 vasp.6.4.2 20Jul23 (build Mar 15 2024 16:31:38) complex                        
  
 executed on             LinuxIFC date 2025.03.19  13:08:07
 running  120 mpi-ranks, on    3 nodes
 distrk:  each k-point on  120 cores,    1 groups
 distr:  one band on NCORE=  10 cores,   12 groups


--------------------------------------------------------------------------------------------------------


 INCAR:
   ALGO = Normal
   EDIFF = 1e-05
   ENAUG = 1360
   ENCUT = 680
   GGA = Pe
   HFSCREEN = 0.2
   ISMEAR = -5
   ISPIN = 2
   LAECHG = True
   LASPH = True
   LCHARG = True
   LDAU = False
   LELF = False
   LHFCALC = True
   LMAXMIX = 4
   LMIXTAU = True
   LORBIT = 11
   LREAL = False
   LVTOT = True
   LWAVE = True
   MAGMOM = 6*0.6
   NCORE = 10
   NELM = 200
   NSW = 0
   PREC = Accurate
   PRECFOCK = Fast
   SIGMA = 0.2

 POTCAR:    PAW_PBE Cu 22Jun2005                  
 POTCAR:    PAW_PBE O 08Apr2002                   
 WARNING: For LVTOT=.TRUE., VASP.5.x writes the TOTAL local potential to the
     file LOCPOT. If you want only the Hartree contributions, use LVHAR=.TRUE.
     instead. 

 POTCAR:    PAW_PBE Cu 22Jun2005                  
   VRHFIN =Cu: d10 p1                                                                               
   LEXCH  = PE                                                                                      
   EATOM  =  1390.9808 eV,  102.2342 Ry                                                             
                                                                                                    
   TITEL  = PAW_PBE Cu 22Jun2005                                                                    
   LULTRA =        F    use ultrasoft PP ?                                                          
   IUNSCR =        1    unscreen: 0-lin 1-nonlin 2-no                                               
   RPACOR =    2.000    partial core radius                                                         
   POMASS =   63.546; ZVAL   =   11.000    mass and valenz                                          
   RCORE  =    2.300    outmost cutoff radius                                                       
   RWIGS  =    2.200; RWIGS  =    1.164    wigner-seitz radius (au A)                               
   ENMAX  =  295.446; ENMIN  =  221.585 eV                                                          
   ICORE  =        3    local potential                                                             
   LCOR   =        T    correct aug charges                                                         
   LPAW   =        T    paw PP                                                                      
   EAUG   =  586.980                                                                                
   DEXC   =    0.000                                                                                
   RMAX   =    2.344    core radius for proj-oper                                                   
   RAUG   =    1.300    factor for augmentation sphere                                              
   RDEP   =    2.302    radius for radial grids                                                     
   RDEPT  =    1.771    core radius for aug-charge                                                  
                                                                                                    
   Atomic configuration                                                                             
    9 entries                                                                                       
     n  l   j            E        occ.                                                              
     1  0  0.50     -8850.2468   2.0000                                                             
     2  0  0.50     -1062.3498   2.0000                                                             
     2  1  1.50      -916.8226   6.0000                                                             
     3  0  0.50      -114.6929   2.0000                                                             
     3  1  1.50       -72.1325   6.0000                                                             
     3  2  2.50        -5.0394  10.0000                                                             
     4  0  0.50        -4.6097   1.0000                                                             
     4  1  0.50        -4.0817   0.0000                                                             
     4  3  2.50        -1.3606   0.0000                                                             
   Description                                                                                      
     l       E           TYP  RCUT    TYP  RCUT                                                     
     2     -5.0393973     23  2.200                                                                 
     2     10.8846608     23  2.200                                                                 
     0     -4.6097109     23  2.200                                                                 
     0      8.2520465     23  2.200                                                                 
     1     -2.7211652     23  2.200                                                                 
     1     21.7055443     23  2.200                                                                 
     3      2.7211652     23  2.300                                                                 
  local pseudopotential read in
  partial core-charges read in
  partial kinetic energy density read in
  atomic valenz-charges read in
  non local Contribution for L=           2  read in
    real space projection operators read in
  non local Contribution for L=           2  read in
    real space projection operators read in
  non local Contribution for L=           0  read in
    real space projection operators read in
  non local Contribution for L=           0  read in
    real space projection operators read in
  non local Contribution for L=           1  read in
    real space projection operators read in
  non local Contribution for L=           1  read in
    real space projection operators read in
    PAW grid and wavefunctions read in
 
   number of l-projection  operators is LMAX  =           6
   number of lm-projection operators is LMMAX =          18
 
 POTCAR:    PAW_PBE O 08Apr2002                   
   VRHFIN =O: s2p4                                                                                  
   LEXCH  = PE                                                                                      
   EATOM  =   432.3788 eV,   31.7789 Ry                                                             
                                                                                                    
   TITEL  = PAW_PBE O 08Apr2002                                                                     
   LULTRA =        F    use ultrasoft PP ?                                                          
   IUNSCR =        1    unscreen: 0-lin 1-nonlin 2-no                                               
   RPACOR =    1.200    partial core radius                                                         
   POMASS =   16.000; ZVAL   =    6.000    mass and valenz                                          
   RCORE  =    1.520    outmost cutoff radius                                                       
   RWIGS  =    1.550; RWIGS  =    0.820    wigner-seitz radius (au A)                               
   ENMAX  =  400.000; ENMIN  =  300.000 eV                                                          
   ICORE  =        2    local potential                                                             
   LCOR   =        T    correct aug charges                                                         
   LPAW   =        T    paw PP                                                                      
   EAUG   =  605.392                                                                                
   DEXC   =    0.000                                                                                
   RMAX   =    1.553    core radius for proj-oper                                                   
   RAUG   =    1.300    factor for augmentation sphere                                              
   RDEP   =    1.550    radius for radial grids                                                     
   RDEPT  =    1.329    core radius for aug-charge                                                  
                                                                                                    
   Atomic configuration                                                                             
    4 entries                                                                                       
     n  l   j            E        occ.                                                              
     1  0  0.50      -514.6923   2.0000                                                             
     2  0  0.50       -23.9615   2.0000                                                             
     2  1  0.50        -9.0305   4.0000                                                             
     3  2  1.50        -9.5241   0.0000                                                             
   Description                                                                                      
     l       E           TYP  RCUT    TYP  RCUT                                                     
     0    -23.9615318     23  1.200                                                                 
     0     -9.5240782     23  1.200                                                                 
     1     -9.0304911     23  1.520                                                                 
     1      8.1634956     23  1.520                                                                 
     2     -9.5240782      7  1.500                                                                 
  local pseudopotential read in
  partial core-charges read in
  partial kinetic energy density read in
  kinetic energy density of atom read in
  atomic valenz-charges read in
  non local Contribution for L=           0  read in
    real space projection operators read in
  non local Contribution for L=           0  read in
    real space projection operators read in
  non local Contribution for L=           1  read in
    real space projection operators read in
  non local Contribution for L=           1  read in
    real space projection operators read in
    PAW grid and wavefunctions read in
 
   number of l-projection  operators is LMAX  =           4
   number of lm-projection operators is LMMAX =           8
 
  PAW_PBE Cu 22Jun2005                  :
 energy of atom  1       EATOM=-1390.9808
 kinetic energy error for atom=    0.0018 (will be added to EATOM!!)
  PAW_PBE O 08Apr2002                   :
 energy of atom  2       EATOM= -432.3788
 kinetic energy error for atom=    0.0105 (will be added to EATOM!!)
 
 
 POSCAR: Cu4 O2
  positions in direct lattice
  No initial velocities read in
 exchange correlation table for  LEXCH =        8
   RHO(1)=    0.500       N(1)  =     2000
   RHO(2)=  100.500       N(2)  =     4000
 


--------------------------------------------------------------------------------------------------------


 ion  position               nearest neighbor table
   1  0.500  0.500  0.000-   5 1.84   6 1.84
   2  0.000  0.500  0.500-   5 1.84   6 1.84
   3  0.500  0.000  0.500-   5 1.84   6 1.84
   4  0.000  0.000  0.000-   5 1.84   6 1.84
   5  0.750  0.750  0.750-   1 1.84   2 1.84   3 1.84   4 1.84
   6  0.250  0.250  0.250-   1 1.84   2 1.84   3 1.84   4 1.84
 
  LATTYP: Found a simple cubic cell.
 ALAT       =     4.2466993200
  
  Lattice vectors:
  
 A1 = (   4.2466993200,   0.0000000000,   0.0000000000)
 A2 = (  -0.0000000000,   4.2466993200,   0.0000000000)
 A3 = (   0.0000000000,   0.0000000000,   4.2466993200)


Analysis of symmetry for initial positions (statically):
=====================================================================
 Subroutine PRICEL returns:
 Original cell was already a primitive cell.
 

 Routine SETGRP: Setting up the symmetry group for a 
 simple cubic supercell.


 Subroutine GETGRP returns: Found 48 space group operations
 (whereof 12 operations were pure point group operations)
 out of a pool of 48 trial point group operations.


The static configuration has the point symmetry D_3d.
 The point group associated with its full space group is O_h .


Analysis of symmetry for dynamics (positions and initial velocities):
=====================================================================
 Subroutine PRICEL returns:
 Original cell was already a primitive cell.
 

 Routine SETGRP: Setting up the symmetry group for a 
 simple cubic supercell.


 Subroutine GETGRP returns: Found 48 space group operations
 (whereof 12 operations were pure point group operations)
 out of a pool of 48 trial point group operations.


The dynamic configuration has the point symmetry D_3d.
 The point group associated with its full space group is O_h .


Analysis of structural, dynamic, and magnetic symmetry:
=====================================================================
 Subroutine PRICEL returns:
 Original cell was already a primitive cell.
 

 Routine SETGRP: Setting up the symmetry group for a 
 simple cubic supercell.


 Subroutine GETGRP returns: Found 48 space group operations
 (whereof 12 operations were pure point group operations)
 out of a pool of 48 trial point group operations.


The overall configuration has the point symmetry D_3d.
 The point group associated with its full space group is O_h .


 Subroutine INISYM returns: Found 48 space group operations
 (whereof 12 operations are pure point group operations),
 and found     1 'primitive' translations


----------------------------------------------------------------------------------------

                                     Primitive cell                                     

  volume of cell :      76.5869

  direct lattice vectors                    reciprocal lattice vectors
     4.246699320  0.000000000  0.000000000     0.235476996  0.000000000  0.000000000
    -0.000000000  4.246699320  0.000000000     0.000000000  0.235476996  0.000000000
     0.000000000  0.000000000  4.246699320    -0.000000000 -0.000000000  0.235476996

  length of vectors
     4.246699320  4.246699320  4.246699320     0.235476996  0.235476996  0.235476996

  position of ions in fractional coordinates (direct lattice)
     0.500000000  0.500000000  1.000000000
     0.000000000  0.500000000  0.500000000
     0.500000000  0.000000000  0.500000000
     0.000000000  0.000000000  0.000000000
     0.750000000  0.750000000  0.750000000
     0.250000000  0.250000000  0.250000000

  ion indices of the primitive-cell ions
   primitive index   ion index
                 1           1
                 2           2
                 3           3
                 4           4
                 5           5
                 6           6

----------------------------------------------------------------------------------------

 
 
 KPOINTS: pymatgen with grid density = 1244 / numb

Automatic generation of k-mesh.
 Grid dimensions read from file:
 generate k-points for:    5    5    5

 Generating k-lattice:

  Cartesian coordinates                     Fractional coordinates (reciprocal lattice)
     0.047095399  0.000000000  0.000000000     0.200000000 -0.000000000  0.000000000
     0.000000000  0.047095399  0.000000000     0.000000000  0.200000000  0.000000000
    -0.000000000 -0.000000000  0.047095399     0.000000000  0.000000000  0.200000000

  Length of vectors
     0.047095399  0.047095399  0.047095399

  Shift w.r.t. Gamma in fractional coordinates (k-lattice)
     0.000000000  0.000000000  0.000000000

 TETIRR: Found     57 inequivalent tetrahedra from      750
 
 Subroutine IBZKPT returns following result:
 ===========================================
 
 Found     10 irreducible k-points:
 
 Following reciprocal coordinates:
            Coordinates               Weight
  0.000000  0.000000  0.000000      1.000000
  0.200000  0.000000  0.000000      6.000000
  0.400000  0.000000  0.000000      6.000000
  0.200000  0.200000  0.000000     12.000000
  0.400000  0.200000  0.000000     24.000000
  0.400000  0.400000  0.000000     12.000000
  0.200000  0.200000  0.200000      8.000000
  0.400000  0.200000  0.200000     24.000000
  0.400000  0.400000  0.200000     24.000000
  0.400000  0.400000  0.400000      8.000000
 
 Following cartesian coordinates:
            Coordinates               Weight
  0.000000  0.000000  0.000000      1.000000
  0.047095  0.000000  0.000000      6.000000
  0.094191  0.000000  0.000000      6.000000
  0.047095  0.047095  0.000000     12.000000
  0.094191  0.047095  0.000000     24.000000
  0.094191  0.094191  0.000000     12.000000
  0.047095  0.047095  0.047095      8.000000
  0.094191  0.047095  0.047095     24.000000
  0.094191  0.094191  0.047095     24.000000
  0.094191  0.094191  0.094191      8.000000
 
 
 Subroutine IBZKPT_HF returns following result:
 ==============================================
 
 Found    125 k-points in 1st BZ
 the following    125 k-points will be used (e.g. in the exchange kernel)
 Following reciprocal coordinates:   # in IRBZ
  0.000000  0.000000  0.000000    0.00800000   1 t-inv F
  0.200000  0.000000  0.000000    0.00800000   2 t-inv F
  0.400000  0.000000  0.000000    0.00800000   3 t-inv F
  0.200000  0.200000  0.000000    0.00800000   4 t-inv F
  0.400000  0.200000  0.000000    0.00800000   5 t-inv F
  0.400000  0.400000  0.000000    0.00800000   6 t-inv F
  0.200000  0.200000  0.200000    0.00800000   7 t-inv F
  0.400000  0.200000  0.200000    0.00800000   8 t-inv F
  0.400000  0.400000  0.200000    0.00800000   9 t-inv F
  0.400000  0.400000  0.400000    0.00800000  10 t-inv F
 -0.200000 -0.000000  0.000000    0.00800000   2 t-inv F
  0.000000  0.200000  0.000000    0.00800000   2 t-inv F
  0.000000 -0.200000 -0.000000    0.00800000   2 t-inv F
  0.000000  0.000000  0.200000    0.00800000   2 t-inv F
 -0.000000  0.000000 -0.200000    0.00800000   2 t-inv F
 -0.400000 -0.000000  0.000000    0.00800000   3 t-inv F
  0.000000  0.400000  0.000000    0.00800000   3 t-inv F
  0.000000 -0.400000 -0.000000    0.00800000   3 t-inv F
  0.000000  0.000000  0.400000    0.00800000   3 t-inv F
 -0.000000  0.000000 -0.400000    0.00800000   3 t-inv F
 -0.200000 -0.200000  0.000000    0.00800000   4 t-inv F
  0.000000  0.200000  0.200000    0.00800000   4 t-inv F
  0.000000 -0.200000 -0.200000    0.00800000   4 t-inv F
  0.200000  0.000000  0.200000    0.00800000   4 t-inv F
 -0.200000  0.000000 -0.200000    0.00800000   4 t-inv F
 -0.200000  0.200000  0.000000    0.00800000   4 t-inv F
  0.200000 -0.200000  0.000000    0.00800000   4 t-inv F
 -0.200000  0.000000  0.200000    0.00800000   4 t-inv F
  0.200000  0.000000 -0.200000    0.00800000   4 t-inv F
  0.000000 -0.200000  0.200000    0.00800000   4 t-inv F
  0.000000  0.200000 -0.200000    0.00800000   4 t-inv F
 -0.400000 -0.200000  0.000000    0.00800000   5 t-inv F
  0.000000  0.400000  0.200000    0.00800000   5 t-inv F
  0.000000 -0.400000 -0.200000    0.00800000   5 t-inv F
  0.200000  0.000000  0.400000    0.00800000   5 t-inv F
 -0.200000  0.000000 -0.400000    0.00800000   5 t-inv F
 -0.400000  0.000000 -0.200000    0.00800000   5 t-inv F
  0.400000  0.000000  0.200000    0.00800000   5 t-inv F
 -0.200000 -0.400000  0.000000    0.00800000   5 t-inv F
  0.200000  0.400000  0.000000    0.00800000   5 t-inv F
  0.000000 -0.200000 -0.400000    0.00800000   5 t-inv F
  0.000000  0.200000  0.400000    0.00800000   5 t-inv F
 -0.200000  0.400000  0.000000    0.00800000   5 t-inv F
  0.200000 -0.400000  0.000000    0.00800000   5 t-inv F
 -0.400000  0.000000  0.200000    0.00800000   5 t-inv F
  0.400000  0.000000 -0.200000    0.00800000   5 t-inv F
  0.000000 -0.400000  0.200000    0.00800000   5 t-inv F
  0.000000  0.400000 -0.200000    0.00800000   5 t-inv F
 -0.200000  0.000000  0.400000    0.00800000   5 t-inv F
  0.200000  0.000000 -0.400000    0.00800000   5 t-inv F
  0.000000 -0.200000  0.400000    0.00800000   5 t-inv F
  0.000000  0.200000 -0.400000    0.00800000   5 t-inv F
  0.400000 -0.200000  0.000000    0.00800000   5 t-inv F
 -0.400000  0.200000  0.000000    0.00800000   5 t-inv F
 -0.400000 -0.400000  0.000000    0.00800000   6 t-inv F
  0.000000  0.400000  0.400000    0.00800000   6 t-inv F
  0.000000 -0.400000 -0.400000    0.00800000   6 t-inv F
  0.400000  0.000000  0.400000    0.00800000   6 t-inv F
 -0.400000  0.000000 -0.400000    0.00800000   6 t-inv F
 -0.400000  0.400000  0.000000    0.00800000   6 t-inv F
  0.400000 -0.400000  0.000000    0.00800000   6 t-inv F
 -0.400000  0.000000  0.400000    0.00800000   6 t-inv F
  0.400000  0.000000 -0.400000    0.00800000   6 t-inv F
  0.000000 -0.400000  0.400000    0.00800000   6 t-inv F
  0.000000  0.400000 -0.400000    0.00800000   6 t-inv F
 -0.200000 -0.200000 -0.200000    0.00800000   7 t-inv F
 -0.200000  0.200000  0.200000    0.00800000   7 t-inv F
  0.200000 -0.200000 -0.200000    0.00800000   7 t-inv F
 -0.200000 -0.200000  0.200000    0.00800000   7 t-inv F
  0.200000  0.200000 -0.200000    0.00800000   7 t-inv F
  0.200000 -0.200000  0.200000    0.00800000   7 t-inv F
 -0.200000  0.200000 -0.200000    0.00800000   7 t-inv F
 -0.400000 -0.200000 -0.200000    0.00800000   8 t-inv F
  0.200000  0.400000  0.200000    0.00800000   8 t-inv F
 -0.200000 -0.400000 -0.200000    0.00800000   8 t-inv F
  0.200000  0.200000  0.400000    0.00800000   8 t-inv F
 -0.200000 -0.200000 -0.400000    0.00800000   8 t-inv F
 -0.200000  0.400000  0.200000    0.00800000   8 t-inv F
  0.200000 -0.400000 -0.200000    0.00800000   8 t-inv F
 -0.400000  0.200000  0.200000    0.00800000   8 t-inv F
  0.400000 -0.200000 -0.200000    0.00800000   8 t-inv F
 -0.200000  0.200000  0.400000    0.00800000   8 t-inv F
  0.200000 -0.200000 -0.400000    0.00800000   8 t-inv F
 -0.400000 -0.200000  0.200000    0.00800000   8 t-inv F
  0.400000  0.200000 -0.200000    0.00800000   8 t-inv F
 -0.200000 -0.400000  0.200000    0.00800000   8 t-inv F
  0.200000  0.400000 -0.200000    0.00800000   8 t-inv F
 -0.200000 -0.200000  0.400000    0.00800000   8 t-inv F
  0.200000  0.200000 -0.400000    0.00800000   8 t-inv F
  0.200000 -0.400000  0.200000    0.00800000   8 t-inv F
 -0.200000  0.400000 -0.200000    0.00800000   8 t-inv F
  0.400000 -0.200000  0.200000    0.00800000   8 t-inv F
 -0.400000  0.200000 -0.200000    0.00800000   8 t-inv F
  0.200000 -0.200000  0.400000    0.00800000   8 t-inv F
 -0.200000  0.200000 -0.400000    0.00800000   8 t-inv F
 -0.400000 -0.400000 -0.200000    0.00800000   9 t-inv F
  0.200000  0.400000  0.400000    0.00800000   9 t-inv F
 -0.200000 -0.400000 -0.400000    0.00800000   9 t-inv F
  0.400000  0.200000  0.400000    0.00800000   9 t-inv F
 -0.400000 -0.200000 -0.400000    0.00800000   9 t-inv F
 -0.400000  0.400000  0.200000    0.00800000   9 t-inv F
  0.400000 -0.400000 -0.200000    0.00800000   9 t-inv F
 -0.400000  0.200000  0.400000    0.00800000   9 t-inv F
  0.400000 -0.200000 -0.400000    0.00800000   9 t-inv F
 -0.200000  0.400000  0.400000    0.00800000   9 t-inv F
  0.200000 -0.400000 -0.400000    0.00800000   9 t-inv F
 -0.400000 -0.400000  0.200000    0.00800000   9 t-inv F
  0.400000  0.400000 -0.200000    0.00800000   9 t-inv F
 -0.200000 -0.400000  0.400000    0.00800000   9 t-inv F
  0.200000  0.400000 -0.400000    0.00800000   9 t-inv F
 -0.400000 -0.200000  0.400000    0.00800000   9 t-inv F
  0.400000  0.200000 -0.400000    0.00800000   9 t-inv F
  0.400000 -0.400000  0.200000    0.00800000   9 t-inv F
 -0.400000  0.400000 -0.200000    0.00800000   9 t-inv F
  0.400000 -0.200000  0.400000    0.00800000   9 t-inv F
 -0.400000  0.200000 -0.400000    0.00800000   9 t-inv F
  0.200000 -0.400000  0.400000    0.00800000   9 t-inv F
 -0.200000  0.400000 -0.400000    0.00800000   9 t-inv F
 -0.400000 -0.400000 -0.400000    0.00800000  10 t-inv F
 -0.400000  0.400000  0.400000    0.00800000  10 t-inv F
  0.400000 -0.400000 -0.400000    0.00800000  10 t-inv F
 -0.400000 -0.400000  0.400000    0.00800000  10 t-inv F
  0.400000  0.400000 -0.400000    0.00800000  10 t-inv F
  0.400000 -0.400000  0.400000    0.00800000  10 t-inv F
 -0.400000  0.400000 -0.400000    0.00800000  10 t-inv F


--------------------------------------------------------------------------------------------------------




 Dimension of arrays:
   k-points           NKPTS =     10   k-points in BZ     NKDIM =    125   number of bands    NBANDS=     36
   number of dos      NEDOS =    301   number of ions     NIONS =      6
   non local maximal  LDIM  =      6   non local SUM 2l+1 LMDIM =     18
   total plane-waves  NPLWV =  46656
   max r-space proj   IRMAX =      1   max aug-charges    IRDMAX=  17843
   dimension x,y,z NGX =    36 NGY =   36 NGZ =   36
   dimension x,y,z NGXF=    72 NGYF=   72 NGZF=   72
   support grid    NGXF=    72 NGYF=   72 NGZF=   72
   ions per type =               4   2
   NGX,Y,Z   is equivalent  to a cutoff of  14.09, 14.09, 14.09 a.u.
   NGXF,Y,Z  is equivalent  to a cutoff of  28.19, 28.19, 28.19 a.u.

 SYSTEM =  unknown system                          
 POSCAR =  Cu4 O2                                  

 Startparameter for this run:
   NWRITE =      2    write-flag & timer
   PREC   = accura    normal or accurate (medium, high low for compatibility)
   ISTART =      0    job   : 0-new  1-cont  2-samecut
   ICHARG =      2    charge: 1-file 2-atom 10-const
   ISPIN  =      2    spin polarized calculation?
   LNONCOLLINEAR =      F non collinear calculations
   LSORBIT =      F    spin-orbit coupling
   INIWAV =      1    electr: 0-lowe 1-rand  2-diag
   LASPH  =      T    aspherical Exc in radial PAW
 Electronic Relaxation 1
   ENCUT  =  680.0 eV  49.98 Ry    7.07 a.u.   9.03  9.03  9.03*2*pi/ulx,y,z
   ENINI  =  680.0     initial cutoff
   ENAUG  = 1360.0 eV  augmentation charge cutoff
   NELM   =    200;   NELMIN=  2; NELMDL= -5     # of ELM steps 
   EDIFF  = 0.1E-04   stopping-criterion for ELM
   LREAL  =      F    real-space projection
   NLSPLINE    = F    spline interpolate recip. space projectors
   LCOMPAT=      F    compatible to vasp.4.4
   GGA_COMPAT  = T    GGA compatible to vasp.4.4-vasp.4.6
   LMAXPAW     = -100 max onsite density
   LMAXMIX     =    4 max onsite mixed and CHGCAR
   VOSKOWN=      0    Vosko Wilk Nusair interpolation
   ROPT   =    0.00000   0.00000
 Ionic relaxation
   EDIFFG = 0.1E-03   stopping-criterion for IOM
   NSW    =      0    number of steps for IOM
   NBLOCK =      1;   KBLOCK =      1    inner block; outer block 
   IBRION =     -1    ionic relax: 0-MD 1-quasi-New 2-CG
   NFREE  =      0    steps in history (QN), initial steepest desc. (CG)
   ISIF   =      0    stress and relaxation
   IWAVPR =     10    prediction:  0-non 1-charg 2-wave 3-comb
   ISYM   =      3    0-nonsym 1-usesym 2-fastsym
   LCORR  =      T    Harris-Foulkes like correction to forces

   POTIM  = 0.5000    time-step for ionic-motion
   TEIN   =    0.0    initial temperature
   TEBEG  =    0.0;   TEEND  =   0.0 temperature during run
   SMASS  =  -3.00    Nose mass-parameter (am)
   estimated Nose-frequenzy (Omega)   =  0.10E-29 period in steps = 0.13E+47 mass=  -0.412E-27a.u.
   SCALEE = 1.0000    scale energy and forces
   NPACO  =    256;   APACO  = 10.0  distance and # of slots for P.C.
   PSTRESS=    0.0 pullay stress

  Mass of Ions in am
   POMASS =  63.55 16.00
  Ionic Valenz
   ZVAL   =  11.00  6.00
  Atomic Wigner-Seitz radii
   RWIGS  =  -1.00 -1.00
  virtual crystal weights 
   VCA    =   1.00  1.00
   NELECT =      56.0000    total number of electrons
   NUPDOWN=      -1.0000    fix difference up-down

 DOS related values:
   EMIN   =  10.00;   EMAX   =-10.00  energy-range for DOS
   EFERMI =   0.00;   METHOD = LEGACY      
   ISMEAR =    -5;   SIGMA  =   0.20  broadening in eV -4-tet -1-fermi 0-gaus

 Electronic relaxation 2 (details)
   IALGO  =     38    algorithm
   LDIAG  =      T    sub-space diagonalisation (order eigenvalues)
   LSUBROT=      F    optimize rotation matrix (better conditioning)
   TURBO    =      0    0=normal 1=particle mesh
   IRESTART =      0    0=no restart 2=restart with 2 vectors
   NREBOOT  =      0    no. of reboots
   NMIN     =      0    reboot dimension
   EREF     =   0.00    reference energy to select bands
   IMIX   =      1    mixing-type and parameters
     AMIX     =   0.40;   BMIX     =  1.00
     AMIX_MAG =   1.60;   BMIX_MAG =  1.00
     AMIN     =   0.10
     WC   =   100.;   INIMIX=   1;  MIXPRE=   1;  MAXMIX= -45

 Intra band minimization:
   WEIMIN = 0.0000     energy-eigenvalue tresh-hold
   EBREAK =  0.69E-07  absolut break condition
   DEPER  =   0.30     relativ break condition  

   TIME   =   0.40     timestep for ELM

  volume/ion in A,a.u.               =      12.76        86.14
  Fermi-wavevector in a.u.,A,eV,Ry     =   1.474866  2.787093 29.595810  2.175231
  Thomas-Fermi vector in A             =   2.589585
 
 Write flags
   LWAVE        =      T    write WAVECAR
   LDOWNSAMPLE  =      F    k-point downsampling of WAVECAR
   LCHARG       =      T    write CHGCAR
   LVTOT        =      T    write LOCPOT, total local potential
   LVHAR        =      F    write LOCPOT, Hartree potential only
   LELF         =      F    write electronic localiz. function (ELF)
   LORBIT       =     11    0 simple, 1 ext, 2 COOP (PROOUT), +10 PAW based schemes


 Dipole corrections
   LMONO  =      F    monopole corrections only (constant potential shift)
   LDIPOL =      F    correct potential (dipole corrections)
   IDIPOL =      0    1-x, 2-y, 3-z, 4-all directions 
   EPSILON=  1.0000000 bulk dielectric constant

 Exchange correlation treatment:
   GGA     =    PE    GGA type
   LEXCH   =     8    internal setting for exchange type
   LIBXC   =     F    Libxc                    
   VOSKOWN =     0    Vosko Wilk Nusair interpolation
   EXXOEP  =     0    0=HF, 1=EXX-LHF (local Hartree Fock) 2=EXX OEP
   LHFCALC =     T    Hartree Fock is set to
   LSYMGRAD=     F    symmetrize gradient (conserves proper symmetry)
   PRECFOCK=fast      Normal, Fast or Accurate (Low or Medium for compatibility)
   LRHFCALC=     F    long range Hartree Fock
   LRSCOR  =     F    long range correlation only (use DFT for short range part)
   LTHOMAS =     F    Thomas Fermi screening in HF
   LMODELHF=     F    short range full HF, long range fraction AEXX
   FOCKCORR=     1    mode to apply convergence corrections
   LFOCKACE=     T    use Adeptively-Compressed-Exchange operator
   ENCUT4O =  -1.0   cutoff for four orbital integrals eV
   LMAXFOCK=     4    L truncation for augmentation on plane wave grid
   LMAXFOCKAE=  -1    L truncation for all-electron charge restoration on plane wave grid
   NMAXFOCKAE=   1    number of basis functions for all-electron charge restoration
   LFOCKAEDFT=     F  apply the AE augmentation even for DFT
   NKREDX  =     1    reduce k-point grid by
   NKREDY  =     1    reduce k-point grid by
   NKREDZ  =     1    reduce k-point grid by
   SHIFTRED=     F    shift reduced grid of Gamma
   HFKIDENT=     F    idential grid for each k-point
   ODDONLY =     F    use only odd q-grid points
   EVENONLY=     F    use only even q-grid points
   HFALPHA =   -1.0000 decay constant for conv. correction
   MCALPHA =    0.0000 extent of test-charge in conv. correction in multipole expansion
   AEXX    =    0.2500 exact exchange contribution
   HFSCREEN=    0.2000 screening length (either q_TF or 0.3 A-1)
   HFSCREENC=   0.2000 screening length for correlation (either q_TF or 0.3 A-1)
   HFRCUT  =    0.0000 spherical cutoff for potential kernel
   ALDAX   =    0.7500 LDA exchange part
   AGGAX   =    0.7500 GGA exchange part
   ALDAC   =    1.0000 LDA correlation
   AGGAC   =    1.0000 GGA correlation
   ENCUTFOCK=  -1.0 apply spherical cutoff to Coloumb kernel
   NBANDSGWLOW=     1    first orbital included in HF term
   NBLOCK_FOCK=    64    blocking factor in FOCK_ACC

 Linear response parameters
   LEPSILON=     F    determine dielectric tensor
   LRPA    =     F    only Hartree local field effects (RPA)
   LNABLA  =     F    use nabla operator in PAW spheres
   LVEL    =     F    velocity operator in full k-point grid
   CSHIFT  =0.1000    complex shift for real part using Kramers Kronig
   OMEGAMAX=  -1.0    maximum frequency
   DEG_THRESHOLD= 0.2000000E-02 threshold for treating states as degnerate
   RTIME   =   -0.100 relaxation time in fs
  (WPLASMAI=    0.000 imaginary part of plasma frequency in eV, 0.658/RTIME)
   DFIELD  = 0.0000000 0.0000000 0.0000000 field for delta impulse in time
 
  Optional k-point grid parameters
   LKPOINTS_OPT  =     F    use optional k-point grid
   KPOINTS_OPT_MODE=     1    mode for optional k-point grid
 
 Orbital magnetization related:
   ORBITALMAG=     F  switch on orbital magnetization
   LCHIMAG   =     F  perturbation theory with respect to B field
   DQ        =  0.001000  dq finite difference perturbation B field
   LLRAUG    =     F  two centre corrections for induced B field
   LBONE     =     F  B-component reconstruction in AE one-centre
   LVGVCALC  =     T  calculate vGv susceptibility
   LVGVAPPL  =     F  apply vGv susceptibility instead of pGv for G=0

 Random number generation:
   RANDOM_GENERATOR = DEFAULT
   PCG_SEED         = not used


--------------------------------------------------------------------------------------------------------


 Static calculation
 charge density and potential will be updated during run
 spin polarized calculation
 Variant of blocked Davidson
 Davidson routine will perform the subspace rotation
 perform sub-space diagonalisation
    after iterative eigenvector-optimisation
 Kerker-like  mixing scheme
 using additional bands            8
 reciprocal scheme for non local part
 use partial core corrections
 calculate Harris-corrections to forces 
   (improved forces if not selfconsistent)
 use gradient corrections 
 use of overlap-Matrix (Vanderbilt PP)
 Fermi weights with tetrahedron method with Bloechl corrections


--------------------------------------------------------------------------------------------------------


  energy-cutoff  :      680.00
  volume of cell :       76.59
      direct lattice vectors                 reciprocal lattice vectors
     4.246699320  0.000000000  0.000000000     0.235476996  0.000000000  0.000000000
    -0.000000000  4.246699320  0.000000000     0.000000000  0.235476996  0.000000000
     0.000000000  0.000000000  4.246699320    -0.000000000 -0.000000000  0.235476996

  length of vectors
     4.246699320  4.246699320  4.246699320     0.235476996  0.235476996  0.235476996


 
 k-points in units of 2pi/SCALE and weight: pymatgen with grid density = 1244 / numb
   0.00000000  0.00000000  0.00000000       0.008
   0.04709540  0.00000000  0.00000000       0.048
   0.09419080  0.00000000  0.00000000       0.048
   0.04709540  0.04709540  0.00000000       0.096
   0.09419080  0.04709540  0.00000000       0.192
   0.09419080  0.09419080  0.00000000       0.096
   0.04709540  0.04709540  0.04709540       0.064
   0.09419080  0.04709540  0.04709540       0.192
   0.09419080  0.09419080  0.04709540       0.192
   0.09419080  0.09419080  0.09419080       0.064
 
 k-points in reciprocal lattice and weights: pymatgen with grid density = 1244 / numb
   0.00000000  0.00000000  0.00000000       0.008
   0.20000000  0.00000000  0.00000000       0.048
   0.40000000  0.00000000  0.00000000       0.048
   0.20000000  0.20000000  0.00000000       0.096
   0.40000000  0.20000000  0.00000000       0.192
   0.40000000  0.40000000  0.00000000       0.096
   0.20000000  0.20000000  0.20000000       0.064
   0.40000000  0.20000000  0.20000000       0.192
   0.40000000  0.40000000  0.20000000       0.192
   0.40000000  0.40000000  0.40000000       0.064
 
 position of ions in fractional coordinates (direct lattice) 
   0.50000000  0.50000000  0.00000000
   0.00000000  0.50000000  0.50000000
   0.50000000  0.00000000  0.50000000
   0.00000000  0.00000000  0.00000000
   0.75000000  0.75000000  0.75000000
   0.25000000  0.25000000  0.25000000
 
 position of ions in cartesian coordinates  (Angst):
   2.12334966  2.12334966  0.00000000
  -0.00000000  2.12334966  2.12334966
   2.12334966  0.00000000  2.12334966
   0.00000000  0.00000000  0.00000000
   3.18502449  3.18502449  3.18502449
   1.06167483  1.06167483  1.06167483
 


--------------------------------------------------------------------------------------------------------


 k-point   1 :   0.0000 0.0000 0.0000  plane waves:    3071
 k-point   2 :   0.2000 0.0000 0.0000  plane waves:    3070
 k-point   3 :   0.4000 0.0000 0.0000  plane waves:    3086
 k-point   4 :   0.2000 0.2000 0.0000  plane waves:    3067
 k-point   5 :   0.4000 0.2000 0.0000  plane waves:    3073
 k-point   6 :   0.4000 0.4000 0.0000  plane waves:    3098
 k-point   7 :   0.2000 0.2000 0.2000  plane waves:    3083
 k-point   8 :   0.4000 0.2000 0.2000  plane waves:    3083
 k-point   9 :   0.4000 0.4000 0.2000  plane waves:    3100
 k-point  10 :   0.4000 0.4000 0.4000  plane waves:    3082

 maximum and minimum number of plane-waves per node :       328      288

 maximum number of plane-waves:      3100
 maximum index in each direction: 
   IXMAX=    9   IYMAX=    9   IZMAX=    9
   IXMIN=   -9   IYMIN=   -9   IZMIN=   -9


 parallel 3D FFT for wavefunctions:
    minimum data exchange during FFTs selected (reduces bandwidth)
 parallel 3D FFT for charge:
    minimum data exchange during FFTs selected (reduces bandwidth)


 FFT grid for exact exchange (Hartree Fock) 
  NGX = 20; NGY = 20; NGZ = 20

 
 Radii for the augmentation spheres in the non-local exchange
 for species   1 augmentation radius   1.273 (default was   0.943)
       energy cutoff for augmentation   2720.0
 for species   2 augmentation radius   0.974 (default was   0.722)
       energy cutoff for augmentation   2720.0

 real space projection operators:
  total allocation   :        760.67 KBytes
  max/ min on nodes  :         88.11         57.36

 Maximum index for augmentation-charges in exchange          109
  SETUP_FOCK is finished

 total amount of memory used by VASP MPI-rank0    32925. kBytes
=======================================================================

   base      :      30000. kBytes
   nonl-proj :       1035. kBytes
   fftplans  :        397. kBytes
   grid      :        843. kBytes
   one-center:         31. kBytes
   HF        :         64. kBytes
   nonlr-proj:        198. kBytes
   wavefun   :        357. kBytes
 
     INWAV:  cpu time      0.0001: real time      0.0004
 initial charge density was supplied:
 charge density of overlapping atoms calculated
 number of electron      56.0000000 magnetization       3.6000000
 keeping initial charge density in first step


--------------------------------------------------------------------------------------------------------


 Maximum index for augmentation-charges          793 (set IRDMAX)


--------------------------------------------------------------------------------------------------------


 First call to EWALD:  gamma=   0.417
 Maximum number of real-space cells 3x 3x 3
 Maximum number of reciprocal cells 3x 3x 3

    FEWALD:  cpu time      0.0015: real time      0.0018


--------------------------------------- Ionic step        1  -------------------------------------------




--------------------------------------- Iteration      1(   1)  ---------------------------------------


    POTLOK:  cpu time      0.0242: real time      0.0430
    SETDIJ:  cpu time      0.3946: real time      0.3958
     EDDAV:  cpu time      0.2798: real time      0.2835
 BZINTS: Fermi energy:   17.633753;   56.000000 electrons
         Band energy: 0.454183E+03;  BLOECHL correction:   -0.347449
       DOS:  cpu time      0.0081: real time      0.0082
    --------------------------------------------
      LOOP:  cpu time      0.7067: real time      0.7305

 eigenvalue-minimisations  :  1440
 total energy-change (2. order) :-0.1182635E+04  (-0.3227714E+04)
 number of electron      56.0000000 magnetization       3.6000000
 augmentation part       56.0000000 magnetization       3.6000000

 Free energy of the ion-electron system (eV)
  ---------------------------------------------------
  alpha Z        PSCENC =       228.31989324
  Ewald energy   TEWEN  =     -4565.41384850
  -Hartree energ DENC   =     -2003.93564795
  -exchange      EXHF   =         0.00000000
  -V(xc)+E(xc)   XCENC  =       237.38328748
  PAW double counting   =      5605.66536144    -7551.83646433
  entropy T*S    EENTRO =         0.00000000
  eigenvalues    EBANDS =       454.18300542
  atomic energy  EATOM  =      6412.99966844
  Solvation  Ediel_sol  =         0.00000000
  ---------------------------------------------------
  free energy    TOTEN  =     -1182.63474477 eV

  energy without entropy =    -1182.63474477  energy(sigma->0) =    -1182.63474477
  exchange ACFDT corr.  =         0.00000000  see jH, gK, PRB 81, 115126


--------------------------------------------------------------------------------------------------------




--------------------------------------- Iteration      1(   2)  ---------------------------------------


     EDDAV:  cpu time      0.2102: real time      0.2138
 BZINTS: Fermi energy:    5.528775;   56.000000 electrons
         Band energy:-0.150160E+02;  BLOECHL correction:   -0.007844
       DOS:  cpu time      0.0055: real time      0.0055
    --------------------------------------------
      LOOP:  cpu time      0.2158: real time      0.2193

 eigenvalue-minimisations  :  1476
 total energy-change (2. order) :-0.4691990E+03  (-0.4515556E+03)
 number of electron      56.0000000 magnetization       3.6000000
 augmentation part       56.0000000 magnetization       3.6000000

 Free energy of the ion-electron system (eV)
  ---------------------------------------------------
  alpha Z        PSCENC =       228.31989324
  Ewald energy   TEWEN  =     -4565.41384850
  -Hartree energ DENC   =     -2003.93564795
  -exchange      EXHF   =         0.00000000
  -V(xc)+E(xc)   XCENC  =       237.38328748
  PAW double counting   =      5605.66536144    -7551.83646433
  entropy T*S    EENTRO =         0.00000000
  eigenvalues    EBANDS =       -15.01601522
  atomic energy  EATOM  =      6412.99966844
  Solvation  Ediel_sol  =         0.00000000
  ---------------------------------------------------
  free energy    TOTEN  =     -1651.83376541 eV

  energy without entropy =    -1651.83376541  energy(sigma->0) =    -1651.83376541
  exchange ACFDT corr.  =         0.00000000  see jH, gK, PRB 81, 115126


--------------------------------------------------------------------------------------------------------




--------------------------------------- Iteration      1(   3)  ---------------------------------------


     EDDAV:  cpu time      0.2486: real time      0.2655
 BZINTS: Fermi energy:    2.974877;   56.000000 electrons
         Band energy:-0.821344E+02;  BLOECHL correction:    0.000000
       DOS:  cpu time      0.0022: real time      0.0022
    --------------------------------------------
      LOOP:  cpu time      0.2507: real time      0.2676

 eigenvalue-minimisations  :  1980
 total energy-change (2. order) :-0.6711840E+02  (-0.6589665E+02)
 number of electron      56.0000000 magnetization       3.6000000
 augmentation part       56.0000000 magnetization       3.6000000

 Free energy of the ion-electron system (eV)
  ---------------------------------------------------
  alpha Z        PSCENC =       228.31989324
  Ewald energy   TEWEN  =     -4565.41384850
  -Hartree energ DENC   =     -2003.93564795
  -exchange      EXHF   =         0.00000000
  -V(xc)+E(xc)   XCENC  =       237.38328748
  PAW double counting   =      5605.66536144    -7551.83646433
  entropy T*S    EENTRO =         0.00000000
  eigenvalues    EBANDS =       -82.13441438
  atomic energy  EATOM  =      6412.99966844
  Solvation  Ediel_sol  =         0.00000000
  ---------------------------------------------------
  free energy    TOTEN  =     -1718.95216457 eV

  energy without entropy =    -1718.95216457  energy(sigma->0) =    -1718.95216457
  exchange ACFDT corr.  =         0.00000000  see jH, gK, PRB 81, 115126


--------------------------------------------------------------------------------------------------------




--------------------------------------- Iteration      1(   4)  ---------------------------------------


     EDDAV:  cpu time      0.2019: real time      0.2178
 BZINTS: Fermi energy:    2.917913;   56.000000 electrons
         Band energy:-0.843793E+02;  BLOECHL correction:    0.000000
       DOS:  cpu time      0.0021: real time      0.0021
    --------------------------------------------
      LOOP:  cpu time      0.2041: real time      0.2200

 eigenvalue-minimisations  :  1572
 total energy-change (2. order) :-0.2244901E+01  (-0.2240968E+01)
 number of electron      56.0000000 magnetization       3.6000000
 augmentation part       56.0000000 magnetization       3.6000000

 Free energy of the ion-electron system (eV)
  ---------------------------------------------------
  alpha Z        PSCENC =       228.31989324
  Ewald energy   TEWEN  =     -4565.41384850
  -Hartree energ DENC   =     -2003.93564795
  -exchange      EXHF   =         0.00000000
  -V(xc)+E(xc)   XCENC  =       237.38328748
  PAW double counting   =      5605.66536144    -7551.83646433
  entropy T*S    EENTRO =         0.00000000
  eigenvalues    EBANDS =       -84.37931509
  atomic energy  EATOM  =      6412.99966844
  Solvation  Ediel_sol  =         0.00000000
  ---------------------------------------------------
  free energy    TOTEN  =     -1721.19706528 eV

  energy without entropy =    -1721.19706528  energy(sigma->0) =    -1721.19706528
  exchange ACFDT corr.  =         0.00000000  see jH, gK, PRB 81, 115126


--------------------------------------------------------------------------------------------------------




--------------------------------------- Iteration      1(   5)  ---------------------------------------


    POTLOK:  cpu time      0.0196: real time      0.0351
    SETDIJ:  cpu time      0.9087: real time      0.9112
     EDDAV:  cpu time     24.5568: real time     24.6402
 BZINTS: Fermi energy:    4.511319;   56.000000 electrons
         Band energy:-0.625388E+02;  BLOECHL correction:    0.000000
       DOS:  cpu time      0.0032: real time      0.0032
    CHARGE:  cpu time      0.0782: real time      0.0788
    MIXING:  cpu time      0.0005: real time      0.0005
    --------------------------------------------
      LOOP:  cpu time     25.5670: real time     25.6689

 eigenvalue-minimisations  :  1704
 total energy-change (2. order) : 0.1686473E+04  (-0.2418640E+01)
 number of electron      55.9999998 magnetization      -2.1600000
 augmentation part       29.8103766 magnetization      -1.9560737

 Free energy of the ion-electron system (eV)
  ---------------------------------------------------
  alpha Z        PSCENC =       228.31989324
  Ewald energy   TEWEN  =     -4565.41384850
  -Hartree energ DENC   =     -2003.93564795
  -exchange      EXHF   =       163.01287573
  -V(xc)+E(xc)   XCENC  =       179.97748468
  PAW double counting   =      5660.95539094    -6048.10084749
  entropy T*S    EENTRO =         0.00000000
  eigenvalues    EBANDS =       -62.53881874
  atomic energy  EATOM  =      6412.99966844
  Solvation  Ediel_sol  =         0.00000000
  ---------------------------------------------------
  free energy    TOTEN  =       -34.72384966 eV

  energy without entropy =      -34.72384966  energy(sigma->0) =      -34.72384966
  exchange ACFDT corr.  =         0.00000000  see jH, gK, PRB 81, 115126


--------------------------------------------------------------------------------------------------------




--------------------------------------- Iteration      1(   6)  ---------------------------------------


    POTLOK:  cpu time      0.0220: real time      0.0342
    SETDIJ:  cpu time      0.9172: real time      0.9196
     EDDAV:  cpu time     25.4939: real time     25.5607
 BZINTS: Fermi energy:    4.054869;   56.000000 electrons
         Band energy:-0.520343E+02;  BLOECHL correction:    0.000000
       DOS:  cpu time      0.0026: real time      0.0027
    CHARGE:  cpu time      0.0739: real time      0.0740
    MIXING:  cpu time      0.0001: real time      0.0001
    --------------------------------------------
      LOOP:  cpu time     26.5097: real time     26.5913

 eigenvalue-minimisations  :  2256
 total energy-change (2. order) : 0.3716487E+01  (-0.1264925E+01)
 number of electron      55.9999995 magnetization       1.2960000
 augmentation part       29.8007908 magnetization       1.4022238

 Free energy of the ion-electron system (eV)
  ---------------------------------------------------
  alpha Z        PSCENC =       228.31989324
  Ewald energy   TEWEN  =     -4565.41384850
  -Hartree energ DENC   =     -2006.52034870
  -exchange      EXHF   =       157.64553176
  -V(xc)+E(xc)   XCENC  =       180.46236455
  PAW double counting   =      5944.31303543    -6330.77935403
  entropy T*S    EENTRO =         0.00000000
  eigenvalues    EBANDS =       -52.03430518
  atomic energy  EATOM  =      6412.99966844
  Solvation  Ediel_sol  =         0.00000000
  ---------------------------------------------------
  free energy    TOTEN  =       -31.00736301 eV

  energy without entropy =      -31.00736301  energy(sigma->0) =      -31.00736301
  exchange ACFDT corr.  =         0.00000000  see jH, gK, PRB 81, 115126


--------------------------------------------------------------------------------------------------------




--------------------------------------- Iteration      1(   7)  ---------------------------------------


    POTLOK:  cpu time      0.0184: real time      0.0337
    SETDIJ:  cpu time      0.9097: real time      0.9121
     EDDAV:  cpu time     25.8707: real time     25.9383
 BZINTS: Fermi energy:    4.080296;   56.000000 electrons
         Band energy:-0.493875E+02;  BLOECHL correction:    0.000000
       DOS:  cpu time      0.0024: real time      0.0024
    CHARGE:  cpu time      0.0730: real time      0.0731
    MIXING:  cpu time      0.0001: real time      0.0001
    --------------------------------------------
      LOOP:  cpu time     26.8743: real time     26.9597

 eigenvalue-minimisations  :  2028
 total energy-change (2. order) :-0.8042241E+00  (-0.2271237E+00)
 number of electron      55.9999993 magnetization      -0.7776000
 augmentation part       29.7452355 magnetization      -0.7518055

 Free energy of the ion-electron system (eV)
  ---------------------------------------------------
  alpha Z        PSCENC =       228.31989324
  Ewald energy   TEWEN  =     -4565.41384850
  -Hartree energ DENC   =     -2000.76631795
  -exchange      EXHF   =       154.72669640
  -V(xc)+E(xc)   XCENC  =       180.20257378
  PAW double counting   =      6170.13587303    -6562.62860368
  entropy T*S    EENTRO =         0.00000000
  eigenvalues    EBANDS =       -49.38752187
  atomic energy  EATOM  =      6412.99966844
  Solvation  Ediel_sol  =         0.00000000
  ---------------------------------------------------
  free energy    TOTEN  =       -31.81158712 eV

  energy without entropy =      -31.81158712  energy(sigma->0) =      -31.81158712
  exchange ACFDT corr.  =         0.00000000  see jH, gK, PRB 81, 115126


--------------------------------------------------------------------------------------------------------




--------------------------------------- Iteration      1(   8)  ---------------------------------------


    POTLOK:  cpu time      0.0183: real time      0.0350
    SETDIJ:  cpu time      0.9069: real time      0.9093
     EDDAV:  cpu time     24.6106: real time     24.6748
 BZINTS: Fermi energy:    4.032073;   56.000000 electrons
         Band energy:-0.509427E+02;  BLOECHL correction:    0.000000
       DOS:  cpu time      0.0024: real time      0.0024
    CHARGE:  cpu time      0.0731: real time      0.0734
    MIXING:  cpu time      0.0001: real time      0.0001
    --------------------------------------------
      LOOP:  cpu time     25.6115: real time     25.6950

 eigenvalue-minimisations  :  2304
 total energy-change (2. order) : 0.1214632E+00  (-0.3169644E-01)
 number of electron      55.9999992 magnetization       0.4665600
 augmentation part       29.6902993 magnetization       0.4975728

 Free energy of the ion-electron system (eV)
  ---------------------------------------------------
  alpha Z        PSCENC =       228.31989324
  Ewald energy   TEWEN  =     -4565.41384850
  -Hartree energ DENC   =     -1993.04991258
  -exchange      EXHF   =       153.82809066
  -V(xc)+E(xc)   XCENC  =       179.81714462
  PAW double counting   =      6300.28779758    -6697.53621348
  entropy T*S    EENTRO =         0.00000000
  eigenvalues    EBANDS =       -50.94274391
  atomic energy  EATOM  =      6412.99966844
  Solvation  Ediel_sol  =         0.00000000
  ---------------------------------------------------
  free energy    TOTEN  =       -31.69012393 eV

  energy without entropy =      -31.69012393  energy(sigma->0) =      -31.69012393
  exchange ACFDT corr.  =         0.00000000  see jH, gK, PRB 81, 115126


--------------------------------------------------------------------------------------------------------




--------------------------------------- Iteration      1(   9)  ---------------------------------------


    POTLOK:  cpu time      0.0184: real time      0.0348
    SETDIJ:  cpu time      0.9085: real time      0.9109
     EDDAV:  cpu time     25.5759: real time     25.6428
 BZINTS: Fermi energy:    3.955106;   56.000000 electrons
         Band energy:-0.553468E+02;  BLOECHL correction:    0.000000
       DOS:  cpu time      0.0022: real time      0.0024
    CHARGE:  cpu time      0.0730: real time      0.0732
    MIXING:  cpu time      0.0001: real time      0.0001
    --------------------------------------------
      LOOP:  cpu time     26.5782: real time     26.6642

 eigenvalue-minimisations  :  1932
 total energy-change (2. order) :-0.2168691E-01  (-0.1700252E-01)
 number of electron      55.9999991 magnetization      -0.2799360
 augmentation part       29.7498994 magnetization      -0.2760009

 Free energy of the ion-electron system (eV)
  ---------------------------------------------------
  alpha Z        PSCENC =       228.31989324
  Ewald energy   TEWEN  =     -4565.41384850
  -Hartree energ DENC   =     -1987.32796559
  -exchange      EXHF   =       154.04328740
  -V(xc)+E(xc)   XCENC  =       179.58705533
  PAW double counting   =      6374.77548362    -6773.34854418
  entropy T*S    EENTRO =         0.00000000
  eigenvalues    EBANDS =       -55.34684059
  atomic energy  EATOM  =      6412.99966844
  Solvation  Ediel_sol  =         0.00000000
  ---------------------------------------------------
  free energy    TOTEN  =       -31.71181085 eV

  energy without entropy =      -31.71181085  energy(sigma->0) =      -31.71181085
  exchange ACFDT corr.  =         0.00000000  see jH, gK, PRB 81, 115126


--------------------------------------------------------------------------------------------------------




--------------------------------------- Iteration      1(  10)  ---------------------------------------


    POTLOK:  cpu time      0.0187: real time      0.0341
    SETDIJ:  cpu time      0.9073: real time      0.9096
     EDDAV:  cpu time     25.6670: real time     25.7342
 BZINTS: Fermi energy:    3.966470;   56.000000 electrons
         Band energy:-0.550706E+02;  BLOECHL correction:    0.000000
       DOS:  cpu time      0.0024: real time      0.0024
    CHARGE:  cpu time      0.0733: real time      0.0735
    MIXING:  cpu time      0.0001: real time      0.0001
    --------------------------------------------
      LOOP:  cpu time     26.6688: real time     26.7538

 eigenvalue-minimisations  :  2112
 total energy-change (2. order) :-0.1071807E-02  (-0.1313173E-02)
 number of electron      55.9999991 magnetization       0.1679616
 augmentation part       29.7708906 magnetization       0.1778456

 Free energy of the ion-electron system (eV)
  ---------------------------------------------------
  alpha Z        PSCENC =       228.31989324
  Ewald energy   TEWEN  =     -4565.41384850
  -Hartree energ DENC   =     -1986.87618547
  -exchange      EXHF   =       154.44662612
  -V(xc)+E(xc)   XCENC  =       179.58314686
  PAW double counting   =      6417.69428171    -6817.39585967
  entropy T*S    EENTRO =         0.00000000
  eigenvalues    EBANDS =       -55.07060538
  atomic energy  EATOM  =      6412.99966844
  Solvation  Ediel_sol  =         0.00000000
  ---------------------------------------------------
  free energy    TOTEN  =       -31.71288266 eV

  energy without entropy =      -31.71288266  energy(sigma->0) =      -31.71288266
  exchange ACFDT corr.  =         0.00000000  see jH, gK, PRB 81, 115126


--------------------------------------------------------------------------------------------------------




--------------------------------------- Iteration      1(  11)  ---------------------------------------


    POTLOK:  cpu time      0.0175: real time      0.0341
    SETDIJ:  cpu time      0.9087: real time      0.9110
     EDDAV:  cpu time     24.5754: real time     24.6393
 BZINTS: Fermi energy:    3.985067;   56.000000 electrons
         Band energy:-0.536303E+02;  BLOECHL correction:    0.000000
       DOS:  cpu time      0.0024: real time      0.0024
    CHARGE:  cpu time      0.0738: real time      0.0740
    MIXING:  cpu time      0.0001: real time      0.0001
    --------------------------------------------
      LOOP:  cpu time     25.5779: real time     25.6609

 eigenvalue-minimisations  :  2136
 total energy-change (2. order) :-0.7443826E-03  (-0.8895453E-03)
 number of electron      55.9999990 magnetization      -0.1007770
 augmentation part       29.7547200 magnetization      -0.1002667

 Free energy of the ion-electron system (eV)
  ---------------------------------------------------
  alpha Z        PSCENC =       228.31989324
  Ewald energy   TEWEN  =     -4565.41384850
  -Hartree energ DENC   =     -1987.37147822
  -exchange      EXHF   =       154.47546183
  -V(xc)+E(xc)   XCENC  =       179.60548809
  PAW double counting   =      6445.17725975    -6845.87576636
  entropy T*S    EENTRO =         0.00000000
  eigenvalues    EBANDS =       -53.63030530
  atomic energy  EATOM  =      6412.99966844
  Solvation  Ediel_sol  =         0.00000000
  ---------------------------------------------------
  free energy    TOTEN  =       -31.71362704 eV

  energy without entropy =      -31.71362704  energy(sigma->0) =      -31.71362704
  exchange ACFDT corr.  =         0.00000000  see jH, gK, PRB 81, 115126


--------------------------------------------------------------------------------------------------------




--------------------------------------- Iteration      1(  12)  ---------------------------------------


    POTLOK:  cpu time      0.0204: real time      0.0339
    SETDIJ:  cpu time      0.9081: real time      0.9104
     EDDAV:  cpu time     25.5812: real time     25.6476
 BZINTS: Fermi energy:    3.983828;   56.000000 electrons
         Band energy:-0.534852E+02;  BLOECHL correction:    0.000000
       DOS:  cpu time      0.0028: real time      0.0028
    CHARGE:  cpu time      0.0725: real time      0.0727
    MIXING:  cpu time      0.0001: real time      0.0001
    --------------------------------------------
      LOOP:  cpu time     26.5850: real time     26.6674

 eigenvalue-minimisations  :  2016
 total energy-change (2. order) :-0.6526890E-03  (-0.1361608E-03)
 number of electron      55.9999990 magnetization       0.0604662
 augmentation part       29.7488335 magnetization       0.0636268

 Free energy of the ion-electron system (eV)
  ---------------------------------------------------
  alpha Z        PSCENC =       228.31989324
  Ewald energy   TEWEN  =     -4565.41384850
  -Hartree energ DENC   =     -1986.91124988
  -exchange      EXHF   =       154.37250955
  -V(xc)+E(xc)   XCENC  =       179.58664890
  PAW double counting   =      6462.31141255    -6863.49413047
  entropy T*S    EENTRO =         0.00000000
  eigenvalues    EBANDS =       -53.48518355
  atomic energy  EATOM  =      6412.99966844
  Solvation  Ediel_sol  =         0.00000000
  ---------------------------------------------------
  free energy    TOTEN  =       -31.71427973 eV

  energy without entropy =      -31.71427973  energy(sigma->0) =      -31.71427973
  exchange ACFDT corr.  =         0.00000000  see jH, gK, PRB 81, 115126


--------------------------------------------------------------------------------------------------------




--------------------------------------- Iteration      1(  13)  ---------------------------------------


    POTLOK:  cpu time      0.0173: real time      0.0295
    SETDIJ:  cpu time      0.9113: real time      0.9137
     EDDAV:  cpu time     25.6503: real time     25.7172
 BZINTS: Fermi energy:    3.979450;   56.000000 electrons
         Band energy:-0.537357E+02;  BLOECHL correction:    0.000000
       DOS:  cpu time      0.0024: real time      0.0024
    CHARGE:  cpu time      0.0743: real time      0.0745
    MIXING:  cpu time      0.0001: real time      0.0001
    --------------------------------------------
      LOOP:  cpu time     26.6556: real time     26.7373

 eigenvalue-minimisations  :  2088
 total energy-change (2. order) :-0.1447760E-03  (-0.4903134E-04)
 number of electron      55.9999990 magnetization      -0.0362797
 augmentation part       29.7515756 magnetization      -0.0363625

 Free energy of the ion-electron system (eV)
  ---------------------------------------------------
  alpha Z        PSCENC =       228.31989324
  Ewald energy   TEWEN  =     -4565.41384850
  -Hartree energ DENC   =     -1986.39434599
  -exchange      EXHF   =       154.35098848
  -V(xc)+E(xc)   XCENC  =       179.56631199
  PAW double counting   =      6472.25472252    -6873.66206920
  entropy T*S    EENTRO =         0.00000000
  eigenvalues    EBANDS =       -53.73574548
  atomic energy  EATOM  =      6412.99966844
  Solvation  Ediel_sol  =         0.00000000
  ---------------------------------------------------
  free energy    TOTEN  =       -31.71442450 eV

  energy without entropy =      -31.71442450  energy(sigma->0) =      -31.71442450
  exchange ACFDT corr.  =         0.00000000  see jH, gK, PRB 81, 115126


--------------------------------------------------------------------------------------------------------




--------------------------------------- Iteration      1(  14)  ---------------------------------------


    POTLOK:  cpu time      0.0176: real time      0.0331
    SETDIJ:  cpu time      0.9087: real time      0.9110
     EDDAV:  cpu time     24.5716: real time     24.6355
 BZINTS: Fermi energy:    3.869368;   56.000000 electrons
         Band energy:-0.537669E+02;  BLOECHL correction:    0.000000
       DOS:  cpu time      0.0023: real time      0.0023
    CHARGE:  cpu time      0.0744: real time      0.0745
    MIXING:  cpu time      0.0001: real time      0.0001
    --------------------------------------------
      LOOP:  cpu time     25.5748: real time     25.6566

 eigenvalue-minimisations  :  1992
 total energy-change (2. order) :-0.8065599E-04  (-0.1343743E-04)
 number of electron      55.9999990 magnetization       0.0217678
 augmentation part       29.7530678 magnetization       0.0227860

 Free energy of the ion-electron system (eV)
  ---------------------------------------------------
  alpha Z        PSCENC =       228.31989324
  Ewald energy   TEWEN  =     -4565.41384850
  -Hartree energ DENC   =     -1986.21810007
  -exchange      EXHF   =       154.36800958
  -V(xc)+E(xc)   XCENC  =       179.55963499
  PAW double counting   =      6478.11105884    -6879.67391585
  entropy T*S    EENTRO =         0.00000000
  eigenvalues    EBANDS =       -53.76690582
  atomic energy  EATOM  =      6412.99966844
  Solvation  Ediel_sol  =         0.00000000
  ---------------------------------------------------
  free energy    TOTEN  =       -31.71450516 eV

  energy without entropy =      -31.71450516  energy(sigma->0) =      -31.71450516
  exchange ACFDT corr.  =         0.00000000  see jH, gK, PRB 81, 115126


--------------------------------------------------------------------------------------------------------




--------------------------------------- Iteration      1(  15)  ---------------------------------------


    POTLOK:  cpu time      0.0174: real time      0.0338
    SETDIJ:  cpu time      0.9129: real time      0.9152
     EDDAV:  cpu time     25.4174: real time     25.4834
 BZINTS: Fermi energy:    3.870257;   56.000000 electrons
         Band energy:-0.537017E+02;  BLOECHL correction:    0.000000
       DOS:  cpu time      0.0023: real time      0.0023
    CHARGE:  cpu time      0.0729: real time      0.0731
    MIXING:  cpu time      0.0001: real time      0.0001
    --------------------------------------------
      LOOP:  cpu time     26.4230: real time     26.5079

 eigenvalue-minimisations  :  1716
 total energy-change (2. order) :-0.3000197E-04  (-0.4230660E-05)
 number of electron      55.9999990 magnetization      -0.0130607
 augmentation part       29.7527179 magnetization      -0.0131329

 Free energy of the ion-electron system (eV)
  ---------------------------------------------------
  alpha Z        PSCENC =       228.31989324
  Ewald energy   TEWEN  =     -4565.41384850
  -Hartree energ DENC   =     -1986.18337506
  -exchange      EXHF   =       154.37536768
  -V(xc)+E(xc)   XCENC  =       179.55836790
  PAW double counting   =      6481.68690215    -6883.35584528
  entropy T*S    EENTRO =         0.00000000
  eigenvalues    EBANDS =       -53.70166572
  atomic energy  EATOM  =      6412.99966844
  Solvation  Ediel_sol  =         0.00000000
  ---------------------------------------------------
  free energy    TOTEN  =       -31.71453516 eV

  energy without entropy =      -31.71453516  energy(sigma->0) =      -31.71453516
  exchange ACFDT corr.  =         0.00000000  see jH, gK, PRB 81, 115126


--------------------------------------------------------------------------------------------------------




--------------------------------------- Iteration      1(  16)  ---------------------------------------


    POTLOK:  cpu time      0.0180: real time      0.0328
    SETDIJ:  cpu time      0.9079: real time      0.9102
     EDDAV:  cpu time     25.6901: real time     25.7569
 BZINTS: Fermi energy:    3.870790;   56.000000 electrons
         Band energy:-0.536721E+02;  BLOECHL correction:    0.000000
       DOS:  cpu time      0.0024: real time      0.0024
    CHARGE:  cpu time      0.0730: real time      0.0732
    MIXING:  cpu time      0.0001: real time      0.0001
    --------------------------------------------
      LOOP:  cpu time     26.6915: real time     26.7757

 eigenvalue-minimisations  :  1368
 total energy-change (2. order) :-0.1337740E-04  (-0.1376036E-05)
 number of electron      55.9999990 magnetization       0.0078364
 augmentation part       29.7523813 magnetization       0.0081894

 Free energy of the ion-electron system (eV)
  ---------------------------------------------------
  alpha Z        PSCENC =       228.31989324
  Ewald energy   TEWEN  =     -4565.41384850
  -Hartree energ DENC   =     -1986.15014349
  -exchange      EXHF   =       154.37351171
  -V(xc)+E(xc)   XCENC  =       179.55706150
  PAW double counting   =      6483.85849378    -6885.58709181
  entropy T*S    EENTRO =         0.00000000
  eigenvalues    EBANDS =       -53.67209340
  atomic energy  EATOM  =      6412.99966844
  Solvation  Ediel_sol  =         0.00000000
  ---------------------------------------------------
  free energy    TOTEN  =       -31.71454854 eV

  energy without entropy =      -31.71454854  energy(sigma->0) =      -31.71454854
  exchange ACFDT corr.  =         0.00000000  see jH, gK, PRB 81, 115126


--------------------------------------------------------------------------------------------------------




--------------------------------------- Iteration      1(  17)  ---------------------------------------


    POTLOK:  cpu time      0.0174: real time      0.0323
    SETDIJ:  cpu time      0.9112: real time      0.9135
     EDDAV:  cpu time     24.4960: real time     24.5591
 BZINTS: Fermi energy:    3.870821;   56.000000 electrons
         Band energy:-0.536704E+02;  BLOECHL correction:    0.000000
       DOS:  cpu time      0.0022: real time      0.0022
    --------------------------------------------
      LOOP:  cpu time     25.4268: real time     25.5071

 eigenvalue-minimisations  :  1224
 total energy-change (2. order) :-0.6184154E-05  (-0.5565281E-06)
 number of electron      55.9999990 magnetization       0.0078364
 augmentation part       29.7523813 magnetization       0.0081894

 Free energy of the ion-electron system (eV)
  ---------------------------------------------------
  alpha Z        PSCENC =       228.31989324
  Ewald energy   TEWEN  =     -4565.41384850
  -Hartree energ DENC   =     -1986.11603902
  -exchange      EXHF   =       154.37174537
  -V(xc)+E(xc)   XCENC  =       179.55568380
  PAW double counting   =      6485.16283709    -6886.92409962
  entropy T*S    EENTRO =         0.00000000
  eigenvalues    EBANDS =       -53.67039551
  atomic energy  EATOM  =      6412.99966844
  Solvation  Ediel_sol  =         0.00000000
  ---------------------------------------------------
  free energy    TOTEN  =       -31.71455472 eV

  energy without entropy =      -31.71455472  energy(sigma->0) =      -31.71455472
  exchange ACFDT corr.  =         0.00000000  see jH, gK, PRB 81, 115126


--------------------------------------------------------------------------------------------------------




 average (electrostatic) potential at core
  the test charge radii are     0.9430  0.7215
  (the norm of the test charge is              1.0000)
       1 -58.2643       2 -58.2643       3 -58.2643       4 -58.2643       5 -65.6109
       6 -65.6109
 
 
 
 E-fermi :   3.8708     XC(G=0):  -9.0359     alpha+bet :-10.2360

 Fermi energy:         3.8708207959

 spin component 1

 k-point     1 :       0.0000    0.0000    0.0000
  band No.  band energies     occupation 
      1     -17.9701      1.00000
      2     -17.1720      1.00000
      3      -3.9258      1.00000
      4      -3.9258      1.00000
      5      -3.9258      1.00000
      6      -1.2367      1.00000
      7      -1.1479      1.00000
      8      -1.1479      1.00000
      9      -1.1479      1.00000
     10      -0.0104      1.00000
     11      -0.0104      1.00000
     12       0.3091      1.00000
     13       0.3091      1.00000
     14       0.3091      1.00000
     15       1.0233      1.00000
     16       1.0233      1.00000
     17       1.2541      1.00000
     18       1.2541      1.00000
     19       1.2542      1.00000
     20       1.2621      1.00000
     21       1.2621      1.00000
     22       1.2621      1.00000
     23       1.5661      1.00000
     24       1.5661      1.00000
     25       1.5661      1.00000
     26       3.8641      1.00000
     27       3.8641      1.00000
     28       3.8641      1.00000
     29       5.9305      0.00000
     30       6.3445      0.00000
     31       6.3445      0.00000
     32      14.0338      0.00000
     33      14.0338      0.00000
     34      14.0338      0.00000
     35      15.0486      0.00000
     36      15.0486      0.00000

 k-point     2 :       0.2000    0.0000    0.0000
  band No.  band energies     occupation 
      1     -17.8931      1.00000
      2     -17.2470      1.00000
      3      -3.7906      1.00000
      4      -3.7603      1.00000
      5      -3.7603      1.00000
      6      -1.9017      1.00000
      7      -1.6220      1.00000
      8      -1.6220      1.00000
      9      -0.7659      1.00000
     10       0.0746      1.00000
     11       0.2822      1.00000
     12       0.3325      1.00000
     13       0.5669      1.00000
     14       0.5669      1.00000
     15       1.0213      1.00000
     16       1.0538      1.00000
     17       1.1526      1.00000
     18       1.1868      1.00000
     19       1.2378      1.00000
     20       1.2378      1.00000
     21       1.3952      1.00000
     22       1.4955      1.00000
     23       1.4955      1.00000
     24       1.5450      1.00000
     25       1.5450      1.00000
     26       2.7414      1.00000
     27       3.7756      1.00000
     28       3.7756      1.00000
     29       6.3049      0.00000
     30       6.9580      0.00000
     31       7.5152      0.00000
     32      13.1645      0.00000
     33      13.2755      0.00000
     34      13.7908      0.00000
     35      13.7909      0.00000
     36      14.2468      0.00000

 k-point     3 :       0.4000    0.0000    0.0000
  band No.  band energies     occupation 
      1     -17.6921      1.00000
      2     -17.4450      1.00000
      3      -3.3863      1.00000
      4      -3.3332      1.00000
      5      -3.3332      1.00000
      6      -2.7280      1.00000
      7      -2.3716      1.00000
      8      -2.3716      1.00000
      9      -0.1809      1.00000
     10       0.3020      1.00000
     11       0.3308      1.00000
     12       0.6362      1.00000
     13       0.7399      1.00000
     14       0.8622      1.00000
     15       0.8622      1.00000
     16       0.9865      1.00000
     17       1.0569      1.00000
     18       1.1350      1.00000
     19       1.1371      1.00000
     20       1.1371      1.00000
     21       1.2435      1.00000
     22       1.4430      1.00000
     23       1.4431      1.00000
     24       1.4431      1.00000
     25       2.0139      1.00000
     26       2.0139      1.00000
     27       3.5803      1.00000
     28       3.5803      1.00000
     29       7.2352      0.00000
     30       8.0828      0.00000
     31       8.5132      0.00000
     32      10.6547      0.00000
     33      13.2976      0.00000
     34      13.2976      0.00000
     35      13.5574      0.00000
     36      13.5574      0.00000

 k-point     4 :       0.2000    0.2000    0.0000
  band No.  band energies     occupation 
      1     -17.8284      1.00000
      2     -17.3050      1.00000
      3      -3.9078      1.00000
      4      -3.6290      1.00000
      5      -3.3949      1.00000
      6      -2.4535      1.00000
      7      -1.8977      1.00000
      8      -1.6240      1.00000
      9      -0.5817      1.00000
     10       0.1604      1.00000
     11       0.3765      1.00000
     12       0.4278      1.00000
     13       0.5582      1.00000
     14       0.7267      1.00000
     15       0.9826      1.00000
     16       1.0434      1.00000
     17       1.1203      1.00000
     18       1.1225      1.00000
     19       1.1936      1.00000
     20       1.3283      1.00000
     21       1.3816      1.00000
     22       1.4117      1.00000
     23       1.4913      1.00000
     24       1.5617      1.00000
     25       1.6799      1.00000
     26       2.5856      1.00000
     27       3.3240      1.00000
     28       3.6928      1.00000
     29       6.6194      0.00000
     30       7.5544      0.00000
     31       8.0549      0.00000
     32      11.7450      0.00000
     33      12.1474      0.00000
     34      13.5471      0.00000
     35      13.7353      0.00000
     36      14.4878      0.00000

 k-point     5 :       0.4000    0.2000    0.0000
  band No.  band energies     occupation 
      1     -17.6614      1.00000
      2     -17.4611      1.00000
      3      -3.7493      1.00000
      4      -3.4318      1.00000
      5      -2.9568      1.00000
      6      -2.8888      1.00000
      7      -2.4149      1.00000
      8      -2.1278      1.00000
      9      -0.0430      1.00000
     10       0.3572      1.00000
     11       0.4049      1.00000
     12       0.6307      1.00000
     13       0.6806      1.00000
     14       0.7706      1.00000
     15       0.8489      1.00000
     16       0.8829      1.00000
     17       0.9547      1.00000
     18       1.0953      1.00000
     19       1.1611      1.00000
     20       1.2313      1.00000
     21       1.2936      1.00000
     22       1.3023      1.00000
     23       1.5242      1.00000
     24       1.7829      1.00000
     25       1.9515      1.00000
     26       2.0398      1.00000
     27       3.3286      1.00000
     28       3.4893      1.00000
     29       7.3506      0.00000
     30       7.9723      0.00000
     31       8.8325      0.00000
     32      10.0608      0.00000
     33      12.4070      0.00000
     34      13.1108      0.00000
     35      13.1528      0.00000
     36      13.6556      0.00000

 k-point     6 :       0.4000    0.4000    0.0000
  band No.  band energies     occupation 
      1     -17.5878      1.00000
      2     -17.5110      1.00000
      3      -3.9010      1.00000
      4      -3.7546      1.00000
      5      -2.8882      1.00000
      6      -2.7168      1.00000
      7      -2.3226      1.00000
      8      -2.0949      1.00000
      9       0.2790      1.00000
     10       0.4233      1.00000
     11       0.5146      1.00000
     12       0.5475      1.00000
     13       0.7230      1.00000
     14       0.7377      1.00000
     15       0.8125      1.00000
     16       0.8439      1.00000
     17       0.8639      1.00000
     18       0.9312      1.00000
     19       1.2031      1.00000
     20       1.2327      1.00000
     21       1.2562      1.00000
     22       1.3020      1.00000
     23       1.7011      1.00000
     24       1.8742      1.00000
     25       2.0032      1.00000
     26       2.0746      1.00000
     27       3.1349      1.00000
     28       3.2865      1.00000
     29       7.3457      0.00000
     30       7.4853      0.00000
     31       9.2902      0.00000
     32       9.4951      0.00000
     33      12.6852      0.00000
     34      12.6971      0.00000
     35      13.0666      0.00000
     36      14.0307      0.00000

 k-point     7 :       0.2000    0.2000    0.2000
  band No.  band energies     occupation 
      1     -17.7800      1.00000
      2     -17.3432      1.00000
      3      -3.7729      1.00000
      4      -3.7729      1.00000
      5      -3.0891      1.00000
      6      -2.8111      1.00000
      7      -1.8734      1.00000
      8      -1.8734      1.00000
      9      -0.4110      1.00000
     10       0.2553      1.00000
     11       0.2553      1.00000
     12       0.6855      1.00000
     13       0.6867      1.00000
     14       0.6867      1.00000
     15       0.9657      1.00000
     16       0.9657      1.00000
     17       1.0642      1.00000
     18       1.0642      1.00000
     19       1.1631      1.00000
     20       1.3554      1.00000
     21       1.3554      1.00000
     22       1.3718      1.00000
     23       1.5239      1.00000
     24       1.5239      1.00000
     25       1.7567      1.00000
     26       2.8588      1.00000
     27       2.8588      1.00000
     28       3.5630      1.00000
     29       6.9144      0.00000
     30       8.1903      0.00000
     31       8.1903      0.00000
     32      10.9688      0.00000
     33      11.7072      0.00000
     34      11.7072      0.00000
     35      14.9280      0.00000
     36      14.9280      0.00000

 k-point     8 :       0.4000    0.2000    0.2000
[...]
      1     -17.7793      1.00000
      2     -17.3425      1.00000
      3      -3.7720      1.00000
      4      -3.7720      1.00000
      5      -3.0882      1.00000
      6      -2.8102      1.00000
      7      -1.8726      1.00000
      8      -1.8726      1.00000
      9      -0.4095      1.00000
     10       0.2561      1.00000
     11       0.2561      1.00000
     12       0.6864      1.00000
     13       0.6874      1.00000
     14       0.6874      1.00000
     15       0.9663      1.00000
     16       0.9663      1.00000
     17       1.0650      1.00000
     18       1.0650      1.00000
     19       1.1637      1.00000
     20       1.3561      1.00000
     21       1.3561      1.00000
     22       1.3725      1.00000
     23       1.5245      1.00000
     24       1.5245      1.00000
     25       1.7574      1.00000
     26       2.8599      1.00000
     27       2.8599      1.00000
     28       3.5642      1.00000
     29       6.9158      0.00000
     30       8.1919      0.00000
     31       8.1919      0.00000
     32      10.9704      0.00000
     33      11.7088      0.00000
     34      11.7088      0.00000
     35      14.9295      0.00000
     36      14.9295      0.00000

 k-point     8 :       0.4000    0.2000    0.2000
  band No.  band energies     occupation 
      1     -17.6703      1.00000
      2     -17.4350      1.00000
      3      -3.7747      1.00000
      4      -3.4704      1.00000
      5      -3.3299      1.00000
      6      -2.5845      1.00000
      7      -2.3266      1.00000
      8      -2.1225      1.00000
      9      -0.0145      1.00000
     10       0.3475      1.00000
     11       0.3899      1.00000
     12       0.6791      1.00000
     13       0.6843      1.00000
     14       0.7839      1.00000
     15       0.8111      1.00000
     16       0.8414      1.00000
     17       0.9768      1.00000
     18       1.0382      1.00000
     19       1.1552      1.00000
     20       1.3091      1.00000
     21       1.3318      1.00000
     22       1.3331      1.00000
     23       1.4732      1.00000
     24       1.7415      1.00000
     25       1.9786      1.00000
     26       2.2613      1.00000
     27       3.1998      1.00000
     28       3.3686      1.00000
     29       7.5298      0.00000
     30       8.3553      0.00000
     31       8.5185      0.00000
     32      10.2057      0.00000
     33      10.6892      0.00000
     34      11.7021      0.00000
     35      15.0637      0.00000
     36      15.8040      0.00000

 k-point     9 :       0.4000    0.4000    0.2000
  band No.  band energies     occupation 
      1     -17.6818      1.00000
      2     -17.3981      1.00000
      3      -3.8370      1.00000
      4      -3.7436      1.00000
      5      -3.3402      1.00000
      6      -2.3775      1.00000
      7      -2.2594      1.00000
      8      -2.1158      1.00000
      9       0.1101      1.00000
     10       0.2932      1.00000
     11       0.3167      1.00000
     12       0.6322      1.00000
     13       0.6380      1.00000
     14       0.7603      1.00000
     15       0.7826      1.00000
     16       0.9181      1.00000
     17       1.0268      1.00000
     18       1.0435      1.00000
     19       1.1950      1.00000
     20       1.2238      1.00000
     21       1.3590      1.00000
     22       1.3848      1.00000
     23       1.5494      1.00000
     24       1.5796      1.00000
     25       2.2598      1.00000
     26       2.4512      1.00000
     27       3.0888      1.00000
     28       3.1934      1.00000
     29       7.2444      0.00000
     30       8.3951      0.00000
     31       8.8875      0.00000
     32       9.2614      0.00000
     33      10.9787      0.00000
     34      11.2314      0.00000
     35      15.2612      0.00000
     36      15.8226      0.00000

 k-point    10 :       0.4000    0.4000    0.4000
  band No.  band energies     occupation 
      1     -17.7509      1.00000
      2     -17.3003      1.00000
      3      -3.7331      1.00000
      4      -3.7331      1.00000
      5      -3.7305      1.00000
      6      -2.1433      1.00000
      7      -2.1416      1.00000
      8      -2.1416      1.00000
      9       0.0473      1.00000
     10       0.1304      1.00000
     11       0.1304      1.00000
     12       0.5384      1.00000
     13       0.5384      1.00000
     14       0.7615      1.00000
     15       0.7615      1.00000
     16       0.8193      1.00000
     17       1.2090      1.00000
     18       1.2090      1.00000
     19       1.2205      1.00000
     20       1.2905      1.00000
     21       1.3287      1.00000
     22       1.3287      1.00000
     23       1.4712      1.00000
     24       1.4712      1.00000
     25       2.7017      1.00000
     26       2.9911      1.00000
     27       2.9911      1.00000
     28       3.0203      1.00000
     29       7.7670      0.00000
     30       7.9804      0.00000
     31       7.9804      0.00000
     32      10.0273      0.00000
     33      10.6548      0.00000
     34      10.6548      0.00000
     35      13.7557      0.00000
     36      14.7168      0.00000


--------------------------------------------------------------------------------------------------------


 soft charge-density along one line, spin component           1
         0         1         2         3         4         5         6         7         8         9
 total charge-density along one line
 
 soft charge-density along one line, spin component           2
         0         1         2         3         4         5         6         7         8         9
 total charge-density along one line
 
 pseudopotential strength for first ion, spin component:           1
 -1.463   0.043   0.021   0.043   0.000  -6.087  -0.029  -0.022
  0.043  -1.463   0.010  -0.043  -0.018  -0.029  -6.087  -0.011
  0.021   0.010  -1.438   0.010  -0.000  -0.022  -0.011  -6.097
  0.043  -0.043   0.010  -1.463   0.018  -0.029   0.029  -0.011
  0.000  -0.018  -0.000   0.018  -1.438  -0.000   0.019   0.000
 -6.087  -0.029  -0.022  -0.029  -0.000  11.408   0.017   0.018
 -0.029  -6.087  -0.011   0.029   0.019   0.017  11.408   0.009
 -0.022  -0.011  -6.097  -0.011   0.000   0.018   0.009  11.410
 -0.029   0.029  -0.011  -6.087  -0.019   0.017  -0.017   0.009
 -0.000   0.019   0.000  -0.019  -6.097  -0.000  -0.015   0.000
  0.034  -0.034  -0.000  -0.034  -0.000  -0.015   0.015  -0.000
  0.065  -0.065  -0.000  -0.065  -0.000  -0.026   0.026  -0.000
  0.000  -0.000   0.000   0.000   0.000  -0.000   0.000  -0.000
  0.000  -0.000  -0.000   0.000   0.000  -0.000   0.000   0.000
 -0.000   0.000  -0.000   0.000   0.000   0.000  -0.000   0.000
  0.000  -0.000   0.000   0.000  -0.000  -0.000   0.000  -0.000
  0.000  -0.000  -0.000   0.000   0.000  -0.000   0.000   0.000
 -0.000   0.000  -0.000   0.000   0.000   0.000  -0.000   0.000
 pseudopotential strength for first ion, spin component:           2
 -1.462   0.042   0.021   0.042   0.000  -6.087  -0.028  -0.022
  0.042  -1.462   0.010  -0.042  -0.018  -0.028  -6.087  -0.011
  0.021   0.010  -1.437   0.010  -0.000  -0.022  -0.011  -6.097
  0.042  -0.042   0.010  -1.462   0.018  -0.028   0.028  -0.011
  0.000  -0.018  -0.000   0.018  -1.437  -0.000   0.019   0.000
 -6.087  -0.028  -0.022  -0.028  -0.000  11.409   0.017   0.018
 -0.028  -6.087  -0.011   0.028   0.019   0.017  11.409   0.009
 -0.022  -0.011  -6.097  -0.011   0.000   0.018   0.009  11.411
 -0.028   0.028  -0.011  -6.087  -0.019   0.017  -0.017   0.009
 -0.000   0.019   0.000  -0.019  -6.097   0.000  -0.015   0.000
  0.034  -0.034  -0.000  -0.034  -0.000  -0.015   0.015  -0.000
  0.065  -0.065  -0.000  -0.065  -0.000  -0.026   0.026  -0.000
  0.000  -0.000   0.000  -0.000   0.000  -0.000  -0.000   0.000
 -0.000  -0.000  -0.000   0.000  -0.000   0.000   0.000  -0.000
 -0.000  -0.000  -0.000  -0.000   0.000  -0.000   0.000   0.000
  0.000  -0.000   0.000  -0.000   0.000   0.000  -0.000   0.000
 -0.000  -0.000  -0.000   0.000  -0.000   0.000  -0.000  -0.000
 -0.000  -0.000  -0.000  -0.000   0.000  -0.000   0.000  -0.000
 total augmentation occupancy for first ion, spin component:           1
  1.912   0.061  -0.006   0.061  -0.000   0.003  -0.045   0.008  -0.045  -0.000  -0.105  -0.060  -0.000   0.000  -0.000  -0.000
  0.061   1.912  -0.003  -0.061   0.005  -0.045   0.003   0.004   0.045  -0.007   0.105   0.060   0.000   0.000  -0.000  -0.000
 -0.006  -0.003   1.980  -0.003  -0.000   0.008   0.004  -0.049   0.004  -0.000   0.000  -0.000  -0.000   0.000  -0.000   0.000
  0.061  -0.061  -0.003   1.912  -0.005  -0.045   0.045   0.004   0.003   0.007   0.105   0.060  -0.000   0.000  -0.000   0.000
 -0.000   0.005  -0.000  -0.005   1.980   0.000  -0.007  -0.000   0.007  -0.049   0.000   0.000  -0.000  -0.000   0.000  -0.000
  0.003  -0.045   0.008  -0.045   0.000   0.039  -0.026  -0.009  -0.026   0.000   0.209  -0.043  -0.000   0.000  -0.000   0.000
 -0.045   0.003   0.004   0.045  -0.007  -0.026   0.039  -0.004   0.026   0.008  -0.209   0.043  -0.000   0.000  -0.000  -0.000
  0.008   0.004  -0.049   0.004  -0.000  -0.009  -0.004   0.017  -0.004  -0.000  -0.000  -0.000  -0.000   0.000  -0.000   0.000
 -0.045   0.045   0.004   0.003   0.007  -0.026   0.026  -0.004   0.039  -0.008  -0.209   0.043  -0.000   0.000  -0.000   0.000
 -0.000  -0.007  -0.000   0.007  -0.049   0.000   0.008  -0.000  -0.008   0.017   0.000  -0.000  -0.000   0.000  -0.000  -0.000
 -0.105   0.105   0.000   0.105   0.000   0.209  -0.209  -0.000  -0.209   0.000   2.320  -0.420   0.000  -0.000   0.000  -0.000
 -0.060   0.060  -0.000   0.060   0.000  -0.043   0.043  -0.000   0.043  -0.000  -0.420   0.094  -0.000   0.000  -0.000   0.000
 -0.000   0.000  -0.000  -0.000  -0.000  -0.000  -0.000  -0.000  -0.000  -0.000   0.000  -0.000   0.251  -0.153   0.153  -0.037
  0.000   0.000   0.000   0.000  -0.000   0.000   0.000   0.000   0.000   0.000  -0.000   0.000  -0.153   0.251  -0.153   0.025
 -0.000  -0.000  -0.000  -0.000   0.000  -0.000  -0.000  -0.000  -0.000  -0.000   0.000  -0.000   0.153  -0.153   0.251  -0.025
 -0.000  -0.000   0.000   0.000  -0.000   0.000  -0.000   0.000   0.000  -0.000  -0.000   0.000  -0.037   0.025  -0.025   0.006
 -0.000  -0.000  -0.000  -0.000   0.000  -0.000  -0.000  -0.000  -0.000  -0.000   0.000  -0.000   0.025  -0.037   0.025  -0.005
 -0.000   0.000   0.000   0.000  -0.000   0.000   0.000   0.000   0.000   0.000  -0.000   0.000  -0.025   0.025  -0.037   0.005
 total augmentation occupancy for first ion, spin component:           2
  0.000  -0.000   0.000  -0.000  -0.000  -0.000  -0.000   0.000  -0.000  -0.000   0.000   0.000  -0.000   0.000   0.000   0.000
 -0.000   0.000   0.000   0.000  -0.000  -0.000  -0.000   0.000   0.000  -0.000  -0.000  -0.000  -0.000  -0.000  -0.000   0.000
  0.000   0.000  -0.000   0.000   0.000   0.000   0.000  -0.000   0.000   0.000  -0.000   0.000  -0.000  -0.000   0.000   0.000
 -0.000   0.000   0.000   0.000   0.000  -0.000   0.000   0.000  -0.000   0.000  -0.000  -0.000  -0.000  -0.000  -0.000   0.000
 -0.000  -0.000   0.000   0.000  -0.000  -0.000  -0.000   0.000   0.000  -0.000   0.000  -0.000  -0.000   0.000  -0.000   0.000
 -0.000  -0.000   0.000  -0.000  -0.000   0.000  -0.000  -0.000  -0.000   0.000   0.000  -0.000  -0.000  -0.000   0.000   0.000
 -0.000  -0.000   0.000   0.000  -0.000  -0.000   0.000  -0.000   0.000   0.000  -0.000   0.000  -0.000   0.000   0.000  -0.000
  0.000   0.000  -0.000   0.000   0.000  -0.000  -0.000  -0.000  -0.000  -0.000   0.000  -0.000   0.000  -0.000   0.000   0.000
 -0.000   0.000   0.000  -0.000   0.000  -0.000   0.000  -0.000   0.000  -0.000  -0.000   0.000  -0.000   0.000   0.000   0.000
 -0.000  -0.000   0.000   0.000  -0.000   0.000   0.000  -0.000  -0.000  -0.000   0.000  -0.000  -0.000   0.000  -0.000   0.000
  0.000  -0.000  -0.000  -0.000   0.000   0.000  -0.000   0.000  -0.000   0.000  -0.000   0.000   0.000  -0.000  -0.000   0.000
  0.000  -0.000   0.000  -0.000  -0.000  -0.000   0.000  -0.000   0.000  -0.000   0.000  -0.000   0.000  -0.000   0.000  -0.000
 -0.000  -0.000  -0.000  -0.000  -0.000  -0.000  -0.000   0.000  -0.000  -0.000   0.000   0.000  -0.000  -0.000   0.000   0.000
  0.000  -0.000  -0.000  -0.000   0.000  -0.000   0.000  -0.000   0.000   0.000  -0.000  -0.000  -0.000  -0.000  -0.000  -0.000
  0.000  -0.000   0.000  -0.000  -0.000   0.000   0.000   0.000   0.000  -0.000  -0.000   0.000   0.000  -0.000  -0.000   0.000
  0.000   0.000   0.000   0.000   0.000   0.000  -0.000   0.000   0.000   0.000   0.000  -0.000   0.000  -0.000   0.000  -0.000
  0.000   0.000   0.000   0.000  -0.000   0.000  -0.000  -0.000  -0.000  -0.000   0.000  -0.000  -0.000   0.000  -0.000   0.000
  0.000  -0.000   0.000  -0.000   0.000  -0.000  -0.000  -0.000  -0.000   0.000   0.000  -0.000   0.000  -0.000   0.000  -0.000


------------------------ aborting loop because EDIFF is reached ----------------------------------------





 total charge

# of ion       s       p       d       tot
------------------------------------------
    1        0.421   0.325   9.312  10.058
    2        0.421   0.325   9.312  10.058
    3        0.421   0.325   9.312  10.058
    4        0.421   0.325   9.312  10.058
    5        1.541   3.531   0.000   5.072
    6        1.541   3.531   0.000   5.072
--------------------------------------------------
tot          4.768   8.360  37.247  50.375



 magnetization (x)

# of ion       s       p       d       tot
------------------------------------------
    1       -0.000   0.000  -0.000  -0.000
    2       -0.000   0.000  -0.000  -0.000
    3       -0.000   0.000  -0.000  -0.000
    4       -0.000   0.000  -0.000  -0.000
    5       -0.000  -0.000   0.000  -0.000
    6       -0.000  -0.000   0.000  -0.000
--------------------------------------------------
tot         -0.000  -0.000  -0.000  -0.000
 
    CHARGE:  cpu time      0.0740: real time      0.0742
    FORLOC:  cpu time      0.0008: real time      0.0008
    FORHF :  cpu time     26.6440: real time     26.7131
    FORNL :  cpu time      0.0159: real time      0.0162
    FORCOR:  cpu time      0.9233: real time      0.9262
    FORHAR:  cpu time      0.0037: real time      0.0041
    MIXING:  cpu time      0.0001: real time      0.0001
    OFIELD:  cpu time      0.0003: real time      0.0003

 VOLUME and BASIS-vectors are now :
 -----------------------------------------------------------------------------
  energy-cutoff  :      680.00
  volume of cell :       76.59
      direct lattice vectors                 reciprocal lattice vectors
     4.246699320  0.000000000  0.000000000     0.235476996  0.000000000  0.000000000
    -0.000000000  4.246699320  0.000000000     0.000000000  0.235476996  0.000000000
     0.000000000  0.000000000  4.246699320    -0.000000000 -0.000000000  0.235476996

  length of vectors
     4.246699320  4.246699320  4.246699320     0.235476996  0.235476996  0.235476996


 FORCES acting on ions
    electron-ion (+dipol)            ewald-force                    non-local-force                 convergence-correction
 -----------------------------------------------------------------------------------------------
   -.162E-04 0.213E-05 -.103E-04   -.711E-13 -.426E-13 -.142E-13   -.151E-22 -.229E-22 0.611E-22   -.602E-06 0.269E-05 0.131E-05
   -.489E-05 -.447E-05 -.289E-05   -.114E-12 -.284E-13 0.000E+00   -.325E-22 0.182E-22 0.106E-22   0.456E-05 0.136E-06 -.602E-05
   0.109E-04 0.121E-04 -.165E-06   -.853E-13 -.568E-13 0.000E+00   0.432E-22 0.258E-22 -.207E-22   -.507E-05 -.329E-05 -.257E-07
   -.361E-06 0.389E-06 0.446E-06   -.711E-13 -.142E-13 0.000E+00   0.302E-23 0.126E-22 0.500E-22   -.271E-05 -.443E-05 0.339E-05
   -.101E-06 0.112E-05 0.302E-06   0.255E-12 0.128E-12 -.704E-13   -.564E-17 -.115E-16 0.684E-17   -.155E-07 0.409E-05 0.714E-06
   0.228E-07 -.123E-05 -.268E-06   0.857E-13 -.461E-15 0.708E-13   -.123E-17 0.218E-17 -.207E-16   -.178E-05 -.230E-05 0.137E-05
 -----------------------------------------------------------------------------------------------
   -.106E-04 0.101E-04 -.129E-04   -.487E-16 -.146E-13 -.138E-13   -.687E-17 -.935E-17 -.138E-16   -.562E-05 -.311E-05 0.742E-06
 
 
 POSITION                                       TOTAL-FORCE (eV/Angst)
 -----------------------------------------------------------------------------------
      2.12335      2.12335      0.00000        -0.000000      0.000000      0.000000
     -0.00000      2.12335      2.12335        -0.000000      0.000000      0.000000
      2.12335      0.00000      2.12335         0.000000      0.000000     -0.000000
      0.00000      0.00000      0.00000         0.000000     -0.000000     -0.000000
      3.18502      3.18502      3.18502        -0.000000      0.000000     -0.000000
      1.06167      1.06167      1.06167         0.000000     -0.000000      0.000000
 -----------------------------------------------------------------------------------
    total drift:                               -0.000016      0.000007     -0.000012


--------------------------------------------------------------------------------------------------------



  FREE ENERGIE OF THE ION-ELECTRON SYSTEM (eV)
  ---------------------------------------------------
  free  energy   TOTEN  =       -31.71455472 eV

  energy  without entropy=      -31.71455472  energy(sigma->0) =      -31.71455472
 


--------------------------------------------------------------------------------------------------------


    POTLOK:  cpu time      0.9258: real time      0.9286


--------------------------------------------------------------------------------------------------------


 writing wavefunctions
     LOOP+:  cpu time    371.4550: real time    372.7202
    4ORBIT:  cpu time      0.0000: real time      0.0000



 total charge

# of ion       s       p       d       tot
------------------------------------------
    1        0.421   0.325   9.312  10.058
    2        0.421   0.325   9.312  10.058
    3        0.421   0.325   9.312  10.058
    4        0.421   0.325   9.312  10.058
    5        1.541   3.531   0.000   5.072
    6        1.541   3.531   0.000   5.072
--------------------------------------------------
tot          4.768   8.360  37.247  50.375



 magnetization (x)

# of ion       s       p       d       tot
------------------------------------------
    1       -0.000   0.000  -0.000  -0.000
    2       -0.000   0.000  -0.000  -0.000
    3       -0.000   0.000  -0.000  -0.000
    4       -0.000   0.000  -0.000  -0.000
    5       -0.000  -0.000   0.000  -0.000
    6       -0.000  -0.000   0.000  -0.000
--------------------------------------------------
tot         -0.000  -0.000  -0.000  -0.000
 
 BZINTS: Fermi energy:    3.870821;   56.000000 electrons
         Band energy:-0.536704E+02;  BLOECHL correction:    0.000000

 total amount of memory used by VASP MPI-rank0    34557. kBytes
=======================================================================

   base      :      30000. kBytes
   nonl-proj :       1035. kBytes
   fftplans  :        397. kBytes
   grid      :        843. kBytes
   one-center:         31. kBytes
   HF        :         64. kBytes
   nonlr-proj:        480. kBytes
   wavefun   :        357. kBytes
   fock_wrk  :       1350. kBytes
 
  
  
 General timing and accounting informations for this job:
 ========================================================
  
                  Total CPU time used (sec):      378.456
                            User time (sec):      376.989
                          System time (sec):        1.466
                         Elapsed time (sec):      380.573
  
                   Maximum memory used (kb):      285536.
                   Average memory used (kb):          N/A
  
                          Minor page faults:        47785
                          Major page faults:            0
                 Voluntary context switches:         5542
