<?xml version="1.0" encoding="ISO-8859-1"?>
<modeling>
 <generator>
  <i name="program" type="string">vasp </i>
  <i name="version" type="string">6.4.2  </i>
  <i name="subversion" type="string">20Jul23 (build Mar 15 2024 16:31:38) complex                          parallel </i>
  <i name="platform" type="string">LinuxIFC </i>
  <i name="date" type="string">2025 03 19 </i>
  <i name="time" type="string">13:08:07 </i>
 </generator>
 <incar>
  <i type="string" name="PREC">Accurate</i>
  <i type="string" name="ALGO">Normal</i>
  <i type="int" name="ISPIN">     2</i>
  <i type="int" name="NELM">   200</i>
  <i name="EDIFF">      0.00001000</i>
  <i type="int" name="NSW">     0</i>
  <i name="ENCUT">    680.00000000</i>
  <i name="ENAUG">   1360.00000000</i>
  <v name="MAGMOM">      0.60000000      0.60000000      0.60000000      0.60000000      0.60000000      0.60000000</v>
  <i type="logical" name="LREAL"> F  </i>
  <i type="int" name="ISMEAR">    -5</i>
  <i name="SIGMA">      0.20000000</i>
  <i type="int" name="LMAXMIX">     4</i>
  <i type="logical" name="LWAVE"> T  </i>
  <i type="logical" name="LCHARG"> T  </i>
  <i type="logical" name="LVTOT"> T  </i>
  <i type="int" name="LORBIT">    11</i>
  <i type="logical" name="LELF"> F  </i>
  <i type="logical" name="LASPH"> T  </i>
  <i type="logical" name="LAECHG"> T  </i>
  <i name="HFSCREEN">      0.20000000</i>
  <i type="logical" name="LHFCALC"> T  </i>
  <i type="string" name="GGA">Pe</i>
  <i type="string" name="PRECFOCK">Fast</i>
  <i type="logical" name="LDAU"> F  </i>
  <i type="logical" name="LMIXTAU"> T  </i>
 </incar>
 <primitive_cell>
  <structure name="primitive_cell" >
   <crystal>
    <varray name="basis" >
     <v>       4.24669932       0.00000000       0.00000000 </v>
     <v>      -0.00000000       4.24669932       0.00000000 </v>
     <v>       0.00000000       0.00000000       4.24669932 </v>
    </varray>
    <i name="volume">     76.58690827 </i>
    <varray name="rec_basis" >
     <v>       0.23547700       0.00000000       0.00000000 </v>
     <v>       0.00000000       0.23547700       0.00000000 </v>
     <v>      -0.00000000      -0.00000000       0.23547700 </v>
    </varray>
   </crystal>
   <varray name="positions" >
    <v>       0.50000000       0.50000000       1.00000000 </v>
    <v>       0.00000000       0.50000000       0.50000000 </v>
    <v>       0.50000000       0.00000000       0.50000000 </v>
    <v>       0.00000000       0.00000000       0.00000000 </v>
    <v>       0.75000000       0.75000000       0.75000000 </v>
    <v>       0.25000000       0.25000000       0.25000000 </v>
   </varray>
  </structure>
  <varray name="primitive_index" >
   <v type="int" >        1 </v>
   <v type="int" >        2 </v>
   <v type="int" >        3 </v>
   <v type="int" >        4 </v>
   <v type="int" >        5 </v>
   <v type="int" >        6 </v>
  </varray>
 </primitive_cell>
 <kpoints>
  <generation param="Gamma">
   <v type="int" name="divisions">       5        5        5 </v>
   <v name="usershift">      0.00000000       0.00000000       0.00000000 </v>
   <v name="genvec1">      0.20000000      -0.00000000       0.00000000 </v>
   <v name="genvec2">      0.00000000       0.20000000       0.00000000 </v>
   <v name="genvec3">      0.00000000       0.00000000       0.20000000 </v>
   <v name="shift">      0.00000000       0.00000000       0.00000000 </v>
  </generation>
  <varray name="kpointlist" >
   <v>       0.00000000       0.00000000       0.00000000 </v>
   <v>       0.20000000       0.00000000       0.00000000 </v>
   <v>       0.40000000       0.00000000       0.00000000 </v>
   <v>       0.20000000       0.20000000       0.00000000 </v>
   <v>       0.40000000       0.20000000       0.00000000 </v>
   <v>       0.40000000       0.40000000       0.00000000 </v>
   <v>       0.20000000       0.20000000       0.20000000 </v>
   <v>       0.40000000       0.20000000       0.20000000 </v>
   <v>       0.40000000       0.40000000       0.20000000 </v>
   <v>       0.40000000       0.40000000       0.40000000 </v>
  </varray>
  <varray name="weights" >
   <v>       0.00800000 </v>
   <v>       0.04800000 </v>
   <v>       0.04800000 </v>
   <v>       0.09600000 </v>
   <v>       0.19200000 </v>
   <v>       0.09600000 </v>
   <v>       0.06400000 </v>
   <v>       0.19200000 </v>
   <v>       0.19200000 </v>
   <v>       0.06400000 </v>
  </varray>
  <varray name="tetrahedronlist"  type="int" >
   <v type="int" >       12        7        8        8        9 </v>
   <v type="int" >       18        8        8        9        9 </v>
   <v type="int" >       24        8        9        9       10 </v>
   <v type="int" >       12        8        9        9        9 </v>
   <v type="int" >       24        9        9        9       10 </v>
   <v type="int" >       18        9        9       10       10 </v>
   <v type="int" >       24        4        5        7        8 </v>
   <v type="int" >       12        5        7        8        8 </v>
   <v type="int" >       24        5        8        8        9 </v>
   <v type="int" >       24        4        5        5        8 </v>
   <v type="int" >       24        5        5        6        8 </v>
   <v type="int" >       12        5        6        8        9 </v>
   <v type="int" >       12        9       10       10       10 </v>
   <v type="int" >       12        8        8        9       10 </v>
   <v type="int" >       12        8        9       10       10 </v>
   <v type="int" >       12        5        5        8        9 </v>
   <v type="int" >       12        5        8        9        9 </v>
   <v type="int" >       12        5        5        6        9 </v>
   <v type="int" >       12        5        6        6        9 </v>
   <v type="int" >       12        5        6        9        9 </v>
   <v type="int" >       12        5        6        8        8 </v>
   <v type="int" >       12        5        6        6        8 </v>
   <v type="int" >       12        6        8        8        9 </v>
   <v type="int" >       12        6        8        9        9 </v>
   <v type="int" >       12        6        6        8        9 </v>
   <v type="int" >       12        7        8        9       10 </v>
   <v type="int" >       12        4        5        8        9 </v>
   <v type="int" >       12        4        7        8        9 </v>
   <v type="int" >       12        4        5        6        9 </v>
   <v type="int" >       12        5        6        7        8 </v>
   <v type="int" >       12        4        5        6        7 </v>
   <v type="int" >       12        6        7        8        9 </v>
   <v type="int" >       12        2        4        7        8 </v>
   <v type="int" >       12        2        4        5        8 </v>
   <v type="int" >       12        2        3        5        8 </v>
   <v type="int" >       12        4        4        5        7 </v>
   <v type="int" >       12        2        4        4        5 </v>
   <v type="int" >       12        2        3        4        5 </v>
   <v type="int" >       12        3        4        5        5 </v>
   <v type="int" >       12        2        3        4        7 </v>
   <v type="int" >       12        3        4        5        7 </v>
   <v type="int" >       12        3        5        7        8 </v>
   <v type="int" >        6       10       10       10       10 </v>
   <v type="int" >       12        6        6        9        9 </v>
   <v type="int" >       12        6        9        9        9 </v>
   <v type="int" >       12        6        6        6        9 </v>
   <v type="int" >       12        3        5        8        8 </v>
   <v type="int" >       12        3        5        5        8 </v>
   <v type="int" >       12        3        3        5        8 </v>
   <v type="int" >       12        5        5        5        8 </v>
   <v type="int" >       12        3        5        5        5 </v>
   <v type="int" >        6        3        3        5        5 </v>
   <v type="int" >        6        5        5        8        8 </v>
   <v type="int" >       12        2        4        4        7 </v>
   <v type="int" >       12        2        2        4        4 </v>
   <v type="int" >       12        1        2        2        4 </v>
   <v type="int" >       12        1        2        4        7 </v>
  </varray>
  <i name="volumeweight">      0.00133333 </i>
 </kpoints>
 <parameters>
  <separator name="general" >
   <i type="string" name="SYSTEM">unknown system</i>
   <i type="logical" name="LCOMPAT"> F  </i>
  </separator>
  <separator name="electronic" >
   <i type="string" name="PREC">accura</i>
   <i name="ENMAX">    680.00000000</i>
   <i name="ENAUG">   1360.00000000</i>
   <i name="EDIFF">      0.00001000</i>
   <i type="int" name="IALGO">    38</i>
   <i type="int" name="IWAVPR">    10</i>
   <i type="int" name="NBANDS">    36</i>
   <i type="int" name="NBANDSLOW">    -1</i>
   <i type="int" name="NBANDSHIGH">    -1</i>
   <i name="NELECT">     56.00000000</i>
   <i type="int" name="TURBO">     0</i>
   <i type="int" name="IRESTART">     0</i>
   <i type="int" name="NREBOOT">     0</i>
   <i type="int" name="NMIN">     0</i>
   <i name="EREF">      0.00000000</i>
   <separator name="electronic smearing" >
    <i type="int" name="ISMEAR">    -5</i>
    <i name="SIGMA">      0.20000000</i>
    <i name="KSPACING">      0.50000000</i>
    <i type="logical" name="KGAMMA"> T  </i>
    <i type="logical" name="KBLOWUP"> T  </i>
   </separator>
   <separator name="electronic projectors" >
    <i type="logical" name="LREAL"> F  </i>
    <v name="ROPT">      0.00000000      0.00000000</v>
    <i type="int" name="LMAXPAW">  -100</i>
    <i type="int" name="LMAXMIX">     4</i>
    <i type="logical" name="NLSPLINE"> F  </i>
   </separator>
   <separator name="electronic startup" >
    <i type="int" name="ISTART">     0</i>
    <i type="int" name="ICHARG">     2</i>
    <i type="int" name="INIWAV">     1</i>
   </separator>
   <separator name="electronic spin" >
    <i type="int" name="ISPIN">     2</i>
    <i type="logical" name="LNONCOLLINEAR"> F  </i>
    <v name="MAGMOM">      0.60000000      0.60000000      0.60000000      0.60000000      0.60000000      0.60000000</v>
    <i name="NUPDOWN">     -1.00000000</i>
    <i type="logical" name="LSORBIT"> F  </i>
    <v name="SAXIS">      0.00000000      0.00000000      1.00000000</v>
    <i type="logical" name="LSPIRAL"> F  </i>
    <v name="QSPIRAL">      0.00000000      0.00000000      0.00000000</v>
    <i type="logical" name="LZEROZ"> F  </i>
   </separator>
   <separator name="electronic exchange-correlation" >
    <i type="logical" name="LASPH"> T  </i>
    <i type="logical" name="LMETAGGA"> F  </i>
   </separator>
   <separator name="electronic convergence" >
    <i type="int" name="NELM">   200</i>
    <i type="int" name="NELMDL">    -5</i>
    <i type="int" name="NELMIN">     2</i>
    <i name="ENINI">    680.00000000</i>
    <separator name="electronic convergence detail" >
     <i type="logical" name="LDIAG"> T  </i>
     <i type="logical" name="LSUBROT"> F  </i>
     <i name="WEIMIN">      0.00000000</i>
     <i name="EBREAK">      0.00000007</i>
     <i name="DEPER">      0.30000000</i>
     <i type="int" name="NRMM">     4</i>
     <i name="TIME">      0.40000000</i>
    </separator>
   </separator>
   <separator name="electronic mixer" >
    <i name="AMIX">      0.40000000</i>
    <i name="BMIX">      1.00000000</i>
    <i name="AMIN">      0.10000000</i>
    <i name="AMIX_MAG">      1.60000000</i>
    <i name="BMIX_MAG">      1.00000000</i>
    <separator name="electronic mixer details" >
     <i type="int" name="IMIX">     1</i>
     <i type="logical" name="MIXFIRST"> F  </i>
     <i type="int" name="MAXMIX">   -45</i>
     <i name="WC">    100.00000000</i>
     <i type="int" name="INIMIX">     1</i>
     <i type="int" name="MIXPRE">     1</i>
     <i type="int" name="MREMOVE">     5</i>
    </separator>
   </separator>
   <separator name="electronic dipolcorrection" >
    <i type="logical" name="LDIPOL"> F  </i>
    <i type="logical" name="LMONO"> F  </i>
    <i type="int" name="IDIPOL">     0</i>
    <i name="EPSILON">      1.00000000</i>
    <v name="DIPOL">   -100.00000000   -100.00000000   -100.00000000</v>
    <i name="EFIELD">      0.00000000</i>
   </separator>
  </separator>
  <separator name="grids" >
   <i type="int" name="NGX">    36</i>
   <i type="int" name="NGY">    36</i>
   <i type="int" name="NGZ">    36</i>
   <i type="int" name="NGXF">    72</i>
   <i type="int" name="NGYF">    72</i>
   <i type="int" name="NGZF">    72</i>
   <i type="logical" name="ADDGRID"> F  </i>
  </separator>
  <separator name="ionic" >
   <i type="int" name="NSW">     0</i>
   <i type="int" name="IBRION">    -1</i>
   <i type="int" name="MDALGO">     0</i>
   <i type="int" name="ISIF">     0</i>
   <i name="PSTRESS">      0.00000000</i>
   <i name="EDIFFG">      0.00010000</i>
   <i type="int" name="NFREE">     0</i>
   <i name="POTIM">      0.50000000</i>
   <i name="SMASS">     -3.00000000</i>
   <i name="SCALEE">      1.00000000</i>
  </separator>
  <separator name="ionic md" >
   <i name="TEBEG">      0.00010000</i>
   <i name="TEEND">      0.00010000</i>
   <i type="int" name="NBLOCK">     1</i>
   <i type="int" name="KBLOCK">     1</i>
   <i type="int" name="NPACO">   256</i>
   <i name="APACO">     10.00000000</i>
  </separator>
  <separator name="symmetry" >
   <i type="int" name="ISYM">     3</i>
   <i name="SYMPREC">      0.00001000</i>
  </separator>
  <separator name="dos" >
   <i type="int" name="LORBIT">    11</i>
   <v name="RWIGS">     -1.00000000     -1.00000000</v>
   <i type="int" name="NEDOS">   301</i>
   <i name="EMIN">     10.00000000</i>
   <i name="EMAX">    -10.00000000</i>
   <i name="EFERMI">      0.00000000</i>
  </separator>
  <separator name="writing" >
   <i type="int" name="NWRITE">     2</i>
   <i type="logical" name="LWAVE"> T  </i>
   <i type="logical" name="LDOWNSAMPLE"> F  </i>
   <i type="logical" name="LCHARG"> T  </i>
   <i type="logical" name="LPARD"> F  </i>
   <i type="logical" name="LVTOT"> T  </i>
   <i type="logical" name="LVHAR"> F  </i>
   <i type="logical" name="LELF"> F  </i>
   <i type="logical" name="LOPTICS"> F  </i>
   <v name="STM">      0.00000000      0.00000000      0.00000000      0.00000000      0.00000000      0.00000000      0.00000000</v>
  </separator>
  <separator name="performance" >
   <i type="int" name="NPAR">    12</i>
   <i type="int" name="NSIM">     4</i>
   <i type="int" name="NBLK">    -1</i>
   <i type="logical" name="LPLANE"> T  </i>
   <i type="logical" name="LSCALAPACK"> T  </i>
   <i type="logical" name="LSCAAWARE"> T  </i>
   <i type="logical" name="LSCALU"> F  </i>
   <i type="logical" name="LASYNC"> F  </i>
   <i type="logical" name="LORBITALREAL"> F  </i>
  </separator>
  <separator name="miscellaneous" >
   <i type="int" name="IDIOT">     3</i>
   <i type="int" name="PHON_NSTRUCT">    -1</i>
   <i type="logical" name="LMUSIC"> F  </i>
   <v name="POMASS">     63.54600000     16.00000000</v>
   <v name="DARWINR">      0.00000000      0.00000000</v>
   <v name="DARWINV">      1.00000000      1.00000000</v>
   <i type="logical" name="LCORR"> T  </i>
  </separator>
  <i type="logical" name="GGA_COMPAT"> T  </i>
  <i type="logical" name="LBERRY"> F  </i>
  <i type="int" name="ICORELEVEL">     0</i>
  <i type="logical" name="LDAU"> F  </i>
  <i type="int" name="I_CONSTRAINED_M">     0</i>
  <separator name="electronic exchange-correlation" >
   <i type="string" name="GGA">PE</i>
   <i type="int" name="VOSKOWN">     0</i>
   <i type="logical" name="LHFCALC"> T  </i>
   <i type="string" name="PRECFOCK">fast</i>
   <i type="logical" name="LSYMGRAD"> F  </i>
   <i type="logical" name="LHFONE"> F  </i>
   <i type="logical" name="LRHFCALC"> F  </i>
   <i type="logical" name="LTHOMAS"> F  </i>
   <i type="logical" name="LMODELHF"> F  </i>
   <i type="logical" name="LFOCKACE"> T  </i>
   <i name="ENCUT4O">     -1.00000000</i>
   <i type="int" name="EXXOEP">     0</i>
   <i type="int" name="FOURORBIT">     0</i>
   <i name="AEXX">      0.25000000</i>
   <i name="HFALPHA">     -1.00000000</i>
   <i name="MCALPHA">      0.00000000</i>
   <i name="ALDAX">      0.75000000</i>
   <i name="AGGAX">      0.75000000</i>
   <i name="ALDAC">      1.00000000</i>
   <i name="AGGAC">      1.00000000</i>
   <i type="int" name="NKREDX">     1</i>
   <i type="int" name="NKREDY">     1</i>
   <i type="int" name="NKREDZ">     1</i>
   <i type="logical" name="SHIFTRED"> F  </i>
   <i type="logical" name="ODDONLY"> F  </i>
   <i type="logical" name="EVENONLY"> F  </i>
   <i type="int" name="LMAXFOCK">     4</i>
   <i type="int" name="NMAXFOCKAE">     1</i>
   <i type="logical" name="LFOCKAEDFT"> F  </i>
   <i name="HFSCREEN">      0.20000000</i>
   <i name="HFSCREENC">      0.20000000</i>
   <i type="int" name="NBANDSGWLOW">     1</i>
  </separator>
  <separator name="vdW DFT" >
   <i type="logical" name="LUSE_VDW"> F  </i>
   <i type="int" name="IVDW_NL">     1</i>
   <i type="logical" name="LSPIN_VDW"> F  </i>
   <i name="Zab_VDW">     -0.84910000</i>
   <i name="PARAM1">      0.12340000</i>
   <i name="PARAM2">      1.00000000</i>
   <i name="PARAM3">      0.00000000</i>
  </separator>
  <separator name="model GW" >
   <i type="int" name="MODEL_GW">     0</i>
   <i name="MODEL_EPS0">      7.65869083</i>
   <i name="MODEL_ALPHA">      1.00000000</i>
  </separator>
  <separator name="linear response parameters" >
   <i type="logical" name="LEPSILON"> F  </i>
   <i type="logical" name="LRPA"> F  </i>
   <i type="logical" name="LNABLA"> F  </i>
   <i type="logical" name="LVEL"> F  </i>
   <i name="CSHIFT">      0.10000000</i>
   <i name="OMEGAMAX">     -1.00000000</i>
   <i name="DEG_THRESHOLD">      0.00200000</i>
   <i name="RTIME">     -0.10000000</i>
   <i name="WPLASMAI">      0.00000000</i>
   <v name="DFIELD">      0.00000000      0.00000000      0.00000000</v>
   <v name="WPLASMA">      0.00000000      0.00000000      0.00000000      0.00000000      0.00000000      0.00000000      0.00000000      0.00000000      0.00000000</v>
  </separator>
  <separator name="orbital magnetization" >
   <i type="logical" name="NUCIND"> F  </i>
   <v name="MAGPOS">      0.00000000      0.00000000      0.00000000</v>
   <i type="logical" name="LNICSALL"> T  </i>
   <i type="logical" name="ORBITALMAG"> F  </i>
   <i type="logical" name="LMAGBLOCH"> F  </i>
   <i type="logical" name="LCHIMAG"> F  </i>
   <i type="logical" name="LGAUGE"> T  </i>
   <i type="int" name="MAGATOM">     0</i>
   <v name="MAGDIPOL">      0.00000000      0.00000000      0.00000000</v>
   <v name="AVECCONST">      0.00000000      0.00000000      0.00000000</v>
  </separator>
  <separator name="response functions" >
   <i type="logical" name="LALL_IN_ONE"> F  </i>
   <i type="int" name="IALL_IN_ONE">    -1</i>
   <i type="int" name="NBANDS_WAVE">    -1</i>
   <i type="logical" name="LFINITE_TEMPERATURE"> F  </i>
   <i type="logical" name="LADDER"> F  </i>
   <i type="logical" name="LRPAFORCE"> F  </i>
   <i type="logical" name="LFXC"> F  </i>
   <i type="logical" name="LHARTREE"> T  </i>
   <i type="int" name="IBSE">     0</i>
   <v type="int" name="KPOINT">    -1     0     0     0</v>
   <i type="logical" name="LTCTC"> F  </i>
   <i type="logical" name="LTCTE"> F  </i>
   <i type="logical" name="LTETE"> F  </i>
   <i type="logical" name="LTRIPLET"> F  </i>
   <i type="logical" name="LFXCEPS"> F  </i>
   <i type="logical" name="LFXHEG"> F  </i>
   <i type="int" name="NATURALO">     2</i>
   <i type="logical" name="LHOLEGF"> F  </i>
   <i type="logical" name="L2ORDER"> F  </i>
   <i type="logical" name="LDMP1"> F  </i>
   <i type="logical" name="LMP2LT"> F  </i>
   <i type="logical" name="LSMP2LT"> F  </i>
   <i type="logical" name="LGWLF"> F  </i>
   <i name="ENCUTGW">     -1.60000002</i>
   <i name="ENCUTGWSOFT">     -1.60000002</i>
   <i name="ENCUTLF">     -1.00000000</i>
   <i type="logical" name="LESF_SPLINES"> F  </i>
   <i type="int" name="LMAXMP2">    -1</i>
   <i name="SCISSOR">      0.00000000</i>
   <i type="int" name="NOMEGA">     0</i>
   <i type="int" name="NOMEGAR">     0</i>
   <i type="int" name="NBANDSGW">    -1</i>
   <i type="int" name="NBANDSO">    -1</i>
   <i type="int" name="NBANDSV">    -1</i>
   <i type="int" name="NELMGW">     1</i>
   <i type="int" name="NELMHF">     1</i>
   <i type="int" name="DIM">     3</i>
   <i type="int" name="IESPILON">     4</i>
   <i type="int" name="ANTIRES">     0</i>
   <i name="OMEGAMAX">    -30.00000000</i>
   <i name="OMEGAMIN">    -30.00000000</i>
   <i name="OMEGATL">   -200.00000000</i>
   <i type="int" name="OMEGAGRID">     0</i>
   <i name="CSHIFT">     -0.10000000</i>
   <i type="logical" name="LSELFENERGY"> F  </i>
   <i type="logical" name="LSPECTRAL"> F  </i>
   <i type="logical" name="LSPECTRALGW"> F  </i>
   <i type="logical" name="LSINGLES"> F  </i>
   <i type="logical" name="LFERMIGW"> F  </i>
   <i type="logical" name="ODDONLYGW"> F  </i>
   <i type="logical" name="EVENONLYGW"> F  </i>
   <i type="int" name="NKREDLFX">     1</i>
   <i type="int" name="NKREDLFY">     1</i>
   <i type="int" name="NKREDLFZ">     1</i>
   <i type="int" name="MAXMEM">  2800</i>
   <i type="int" name="TELESCOPE">     0</i>
   <i type="int" name="NTAUPAR">    -1</i>
   <i type="int" name="NOMEGAPAR">    -1</i>
   <i name="DAMP_NEWTON">      0.80000001</i>
   <i name="LAMBDA">      1.00000000</i>
  </separator>
  <separator name="External order field" >
   <i name="OFIELD_KAPPA">      0.00000000</i>
   <v name="OFIELD_K">      0.00000000      0.00000000      0.00000000</v>
   <i name="OFIELD_Q6_NEAR">      0.00000000</i>
   <i name="OFIELD_Q6_FAR">      0.00000000</i>
   <i name="OFIELD_A">      0.00000000</i>
  </separator>
  <separator name="optional k-points parameters" >
   <i type="int" name="KPOINTS_OPT_MODE">     1</i>
   <i type="logical" name="LKPOINTS_OPT"> F  </i>
  </separator>
 </parameters>
 <atominfo>
  <atoms>       6 </atoms>
  <types>       2 </types>
  <array name="atoms" >
   <dimension dim="1">ion</dimension>
   <field type="string">element</field>
   <field type="int">atomtype</field>
   <set>
    <rc><c>Cu</c><c>   1</c></rc>
    <rc><c>Cu</c><c>   1</c></rc>
    <rc><c>Cu</c><c>   1</c></rc>
    <rc><c>Cu</c><c>   1</c></rc>
    <rc><c>O </c><c>   2</c></rc>
    <rc><c>O </c><c>   2</c></rc>
   </set>
  </array>
  <array name="atomtypes" >
   <dimension dim="1">type</dimension>
   <field type="int">atomspertype</field>
   <field type="string">element</field>
   <field>mass</field>
   <field>valence</field>
   <field type="string">pseudopotential</field>
   <set>
    <rc><c>   4</c><c>Cu</c><c>     63.54600000</c><c>     11.00000000</c><c>  PAW_PBE Cu 22Jun2005                  </c></rc>
    <rc><c>   2</c><c>O </c><c>     16.00000000</c><c>      6.00000000</c><c>  PAW_PBE O 08Apr2002                   </c></rc>
   </set>
  </array>
 </atominfo>
 <structure name="initialpos" >
  <crystal>
   <varray name="basis" >
    <v>       4.24669932       0.00000000       0.00000000 </v>
    <v>      -0.00000000       4.24669932       0.00000000 </v>
    <v>       0.00000000       0.00000000       4.24669932 </v>
   </varray>
   <i name="volume">     76.58690827 </i>
   <varray name="rec_basis" >
    <v>       0.23547700       0.00000000       0.00000000 </v>
    <v>       0.00000000       0.23547700       0.00000000 </v>
    <v>      -0.00000000      -0.00000000       0.23547700 </v>
   </varray>
  </crystal>
  <varray name="positions" >
   <v>       0.50000000       0.50000000       0.00000000 </v>
   <v>       0.00000000       0.50000000       0.50000000 </v>
   <v>       0.50000000       0.00000000       0.50000000 </v>
   <v>       0.00000000       0.00000000       0.00000000 </v>
   <v>       0.75000000       0.75000000       0.75000000 </v>
   <v>       0.25000000       0.25000000       0.25000000 </v>
  </varray>
 </structure>
 <calculation>
  <scstep>
   <time name="dav">    0.28    0.28</time>
   <time name="total">    0.71    0.73</time>
   <energy>
    <i name="alphaZ">    228.31989324 </i>
    <i name="ewald">  -4565.41384850 </i>
    <i name="hartreedc">  -2003.93564795 </i>
    <i name="XCdc">    237.38328748 </i>
    <i name="pawpsdc">   5605.66536144 </i>
    <i name="pawaedc">  -7551.83646433 </i>
    <i name="eentropy">      0.00000000 </i>
    <i name="bandstr">    454.18300542 </i>
    <i name="atom">   6412.99966844 </i>
    <i name="e_fr_energy">  -1182.63474477 </i>
    <i name="e_wo_entrp">  -1182.63474477 </i>
    <i name="e_0_energy">  -1182.63474477 </i>
   </energy>
  </scstep>
  <scstep>
   <time name="dav">    0.21    0.21</time>
   <time name="total">    0.22    0.22</time>
   <energy>
    <i name="e_fr_energy">  -1651.83376541 </i>
    <i name="e_wo_entrp">  -1651.83376541 </i>
    <i name="e_0_energy">  -1651.83376541 </i>
   </energy>
  </scstep>
  <scstep>
   <time name="dav">    0.25    0.27</time>
   <time name="total">    0.25    0.27</time>
   <energy>
    <i name="e_fr_energy">  -1718.95216457 </i>
    <i name="e_wo_entrp">  -1718.95216457 </i>
    <i name="e_0_energy">  -1718.95216457 </i>
   </energy>
  </scstep>
  <scstep>
   <time name="dav">    0.20    0.22</time>
   <time name="total">    0.20    0.22</time>
   <energy>
    <i name="e_fr_energy">  -1721.19706528 </i>
    <i name="e_wo_entrp">  -1721.19706528 </i>
    <i name="e_0_energy">  -1721.19706528 </i>
   </energy>
  </scstep>
  <scstep>
   <time name="dav">   24.56   24.64</time>
   <time name="total">   25.57   25.67</time>
   <energy>
    <i name="e_fr_energy">    -34.72384966 </i>
    <i name="e_wo_entrp">    -34.72384966 </i>
    <i name="e_0_energy">    -34.72384966 </i>
   </energy>
  </scstep>
  <scstep>
   <time name="dav">   25.49   25.56</time>
   <time name="total">   26.51   26.59</time>
   <energy>
    <i name="e_fr_energy">    -31.00736301 </i>
    <i name="e_wo_entrp">    -31.00736301 </i>
    <i name="e_0_energy">    -31.00736301 </i>
   </energy>
  </scstep>
  <scstep>
   <time name="dav">   25.87   25.94</time>
   <time name="total">   26.87   26.96</time>
   <energy>
    <i name="e_fr_energy">    -31.81158712 </i>
    <i name="e_wo_entrp">    -31.81158712 </i>
    <i name="e_0_energy">    -31.81158712 </i>
   </energy>
  </scstep>
  <scstep>
   <time name="dav">   24.61   24.67</time>
   <time name="total">   25.61   25.70</time>
   <energy>
    <i name="e_fr_energy">    -31.69012393 </i>
    <i name="e_wo_entrp">    -31.69012393 </i>
    <i name="e_0_energy">    -31.69012393 </i>
   </energy>
  </scstep>
  <scstep>
   <time name="dav">   25.58   25.64</time>
   <time name="total">   26.58   26.66</time>
   <energy>
    <i name="e_fr_energy">    -31.71181085 </i>
    <i name="e_wo_entrp">    -31.71181085 </i>
    <i name="e_0_energy">    -31.71181085 </i>
   </energy>
  </scstep>
  <scstep>
   <time name="dav">   25.67   25.73</time>
   <time name="total">   26.67   26.75</time>
   <energy>
    <i name="e_fr_energy">    -31.71288266 </i>
    <i name="e_wo_entrp">    -31.71288266 </i>
    <i name="e_0_energy">    -31.71288266 </i>
   </energy>
  </scstep>
  <scstep>
   <time name="dav">   24.58   24.64</time>
   <time name="total">   25.58   25.66</time>
   <energy>
    <i name="e_fr_energy">    -31.71362704 </i>
    <i name="e_wo_entrp">    -31.71362704 </i>
    <i name="e_0_energy">    -31.71362704 </i>
   </energy>
  </scstep>
  <scstep>
   <time name="dav">   25.58   25.65</time>
   <time name="total">   26.59   26.67</time>
   <energy>
    <i name="e_fr_energy">    -31.71427973 </i>
    <i name="e_wo_entrp">    -31.71427973 </i>
    <i name="e_0_energy">    -31.71427973 </i>
   </energy>
  </scstep>
  <scstep>
   <time name="dav">   25.65   25.72</time>
   <time name="total">   26.66   26.74</time>
   <energy>
    <i name="e_fr_energy">    -31.71442450 </i>
    <i name="e_wo_entrp">    -31.71442450 </i>
    <i name="e_0_energy">    -31.71442450 </i>
   </energy>
  </scstep>
  <scstep>
   <time name="dav">   24.57   24.64</time>
   <time name="total">   25.57   25.66</time>
   <energy>
    <i name="e_fr_energy">    -31.71450516 </i>
    <i name="e_wo_entrp">    -31.71450516 </i>
    <i name="e_0_energy">    -31.71450516 </i>
   </energy>
  </scstep>
  <scstep>
   <time name="dav">   25.42   25.48</time>
   <time name="total">   26.42   26.51</time>
   <energy>
    <i name="e_fr_energy">    -31.71453516 </i>
    <i name="e_wo_entrp">    -31.71453516 </i>
    <i name="e_0_energy">    -31.71453516 </i>
   </energy>
  </scstep>
  <scstep>
   <time name="dav">   25.69   25.76</time>
   <time name="total">   26.69   26.78</time>
   <energy>
    <i name="e_fr_energy">    -31.71454854 </i>
    <i name="e_wo_entrp">    -31.71454854 </i>
    <i name="e_0_energy">    -31.71454854 </i>
   </energy>
  </scstep>
  <scstep>
   <time name="dav">   24.50   24.56</time>
   <time name="total">   25.43   25.51</time>
   <energy>
    <i name="alphaZ">    228.31989324 </i>
    <i name="ewald">  -4565.41384850 </i>
    <i name="hartreedc">  -1986.11603902 </i>
    <i name="XCdc">    179.55568380 </i>
    <i name="pawpsdc">   6485.16283709 </i>
    <i name="pawaedc">  -6886.92409962 </i>
    <i name="eentropy">      0.00000000 </i>
    <i name="bandstr">    -53.67039551 </i>
    <i name="atom">   6412.99966844 </i>
    <i name="e_fr_energy">    -31.71455472 </i>
    <i name="e_wo_entrp">    -31.71455472 </i>
    <i name="e_0_energy">    -31.71455472 </i>
   </energy>
  </scstep>
  <structure>
   <crystal>
    <varray name="basis" >
     <v>       4.24669932       0.00000000       0.00000000 </v>
     <v>      -0.00000000       4.24669932       0.00000000 </v>
     <v>       0.00000000       0.00000000       4.24669932 </v>
    </varray>
    <i name="volume">     76.58690827 </i>
    <varray name="rec_basis" >
     <v>       0.23547700       0.00000000       0.00000000 </v>
     <v>       0.00000000       0.23547700       0.00000000 </v>
     <v>      -0.00000000      -0.00000000       0.23547700 </v>
    </varray>
   </crystal>
   <varray name="positions" >
    <v>       0.50000000       0.50000000       0.00000000 </v>
    <v>       0.00000000       0.50000000       0.50000000 </v>
    <v>       0.50000000       0.00000000       0.50000000 </v>
    <v>       0.00000000       0.00000000       0.00000000 </v>
    <v>       0.75000000       0.75000000       0.75000000 </v>
    <v>       0.25000000       0.25000000       0.25000000 </v>
   </varray>
  </structure>
  <varray name="forces" >
   <v>      -0.00000000       0.00000000       0.00000000 </v>
   <v>      -0.00000000       0.00000000       0.00000000 </v>
   <v>       0.00000000       0.00000000      -0.00000000 </v>
   <v>       0.00000000      -0.00000000      -0.00000000 </v>
   <v>      -0.00000000       0.00000000      -0.00000000 </v>
   <v>       0.00000000      -0.00000000       0.00000000 </v>
  </varray>
  <energy>
   <i name="e_fr_energy">    -31.71455472 </i>
   <i name="e_wo_entrp">    -31.71455472 </i>
   <i name="e_0_energy">    -31.71455472 </i>
  </energy>
  <time name="totalsc">  371.46  372.72</time>
  <eigenvalues>
   <array>
    <dimension dim="1">band</dimension>
    <dimension dim="2">kpoint</dimension>
    <dimension dim="3">spin</dimension>
    <field>eigene</field>
    <field>occ</field>
    <set>
     <set comment="spin 1">
      <set comment="kpoint 1">
       <r>  -17.9701    1.0000 </r>
       <r>  -17.1720    1.0000 </r>
       <r>   -3.9258    1.0000 </r>
       <r>   -3.9258    1.0000 </r>
       <r>   -3.9258    1.0000 </r>
       <r>   -1.2367    1.0000 </r>
       <r>   -1.1479    1.0000 </r>
       <r>   -1.1479    1.0000 </r>
       <r>   -1.1479    1.0000 </r>
       <r>   -0.0104    1.0000 </r>
       <r>   -0.0104    1.0000 </r>
       <r>    0.3091    1.0000 </r>
       <r>    0.3091    1.0000 </r>
       <r>    0.3091    1.0000 </r>
       <r>    1.0233    1.0000 </r>
       <r>    1.0233    1.0000 </r>
       <r>    1.2541    1.0000 </r>
       <r>    1.2541    1.0000 </r>
       <r>    1.2542    1.0000 </r>
       <r>    1.2621    1.0000 </r>
       <r>    1.2621    1.0000 </r>
       <r>    1.2621    1.0000 </r>
       <r>    1.5661    1.0000 </r>
       <r>    1.5661    1.0000 </r>
       <r>    1.5661    1.0000 </r>
       <r>    3.8641    1.0000 </r>
       <r>    3.8641    1.0000 </r>
       <r>    3.8641    1.0000 </r>
       <r>    5.9305    0.0000 </r>
       <r>    6.3445    0.0000 </r>
       <r>    6.3445    0.0000 </r>
       <r>   14.0338    0.0000 </r>
       <r>   14.0338    0.0000 </r>
       <r>   14.0338    0.0000 </r>
       <r>   15.0486    0.0000 </r>
       <r>   15.0486    0.0000 </r>
      </set>
      <set comment="kpoint 2">
       <r>  -17.8931    1.0000 </r>
       <r>  -17.2470    1.0000 </r>
       <r>   -3.7906    1.0000 </r>
       <r>   -3.7603    1.0000 </r>
       <r>   -3.7603    1.0000 </r>
       <r>   -1.9017    1.0000 </r>
       <r>   -1.6220    1.0000 </r>
       <r>   -1.6220    1.0000 </r>
       <r>   -0.7659    1.0000 </r>
       <r>    0.0746    1.0000 </r>
       <r>    0.2822    1.0000 </r>
       <r>    0.3325    1.0000 </r>
       <r>    0.5669    1.0000 </r>
       <r>    0.5669    1.0000 </r>
       <r>    1.0213    1.0000 </r>
       <r>    1.0538    1.0000 </r>
       <r>    1.1526    1.0000 </r>
       <r>    1.1868    1.0000 </r>
       <r>    1.2378    1.0000 </r>
       <r>    1.2378    1.0000 </r>
       <r>    1.3952    1.0000 </r>
       <r>    1.4955    1.0000 </r>
       <r>    1.4955    1.0000 </r>
       <r>    1.5450    1.0000 </r>
       <r>    1.5450    1.0000 </r>
       <r>    2.7414    1.0000 </r>
       <r>    3.7756    1.0000 </r>
       <r>    3.7756    1.0000 </r>
       <r>    6.3049    0.0000 </r>
       <r>    6.9580    0.0000 </r>
       <r>    7.5152    0.0000 </r>
       <r>   13.1645    0.0000 </r>
       <r>   13.2755    0.0000 </r>
       <r>   13.7908    0.0000 </r>
       <r>   13.7909    0.0000 </r>
       <r>   14.2468    0.0000 </r>
      </set>
      <set comment="kpoint 3">
       <r>  -17.6921    1.0000 </r>
       <r>  -17.4450    1.0000 </r>
       <r>   -3.3863    1.0000 </r>
       <r>   -3.3332    1.0000 </r>
       <r>   -3.3332    1.0000 </r>
       <r>   -2.7280    1.0000 </r>
       <r>   -2.3716    1.0000 </r>
       <r>   -2.3716    1.0000 </r>
       <r>   -0.1809    1.0000 </r>
       <r>    0.3020    1.0000 </r>
       <r>    0.3308    1.0000 </r>
       <r>    0.6362    1.0000 </r>
       <r>    0.7399    1.0000 </r>
       <r>    0.8622    1.0000 </r>
       <r>    0.8622    1.0000 </r>
       <r>    0.9865    1.0000 </r>
       <r>    1.0569    1.0000 </r>
       <r>    1.1350    1.0000 </r>
       <r>    1.1371    1.0000 </r>
       <r>    1.1371    1.0000 </r>
       <r>    1.2435    1.0000 </r>
       <r>    1.4430    1.0000 </r>
       <r>    1.4431    1.0000 </r>
       <r>    1.4431    1.0000 </r>
       <r>    2.0139    1.0000 </r>
       <r>    2.0139    1.0000 </r>
       <r>    3.5803    1.0000 </r>
       <r>    3.5803    1.0000 </r>
       <r>    7.2352    0.0000 </r>
       <r>    8.0828    0.0000 </r>
       <r>    8.5132    0.0000 </r>
       <r>   10.6547    0.0000 </r>
       <r>   13.2976    0.0000 </r>
       <r>   13.2976    0.0000 </r>
       <r>   13.5574    0.0000 </r>
       <r>   13.5574    0.0000 </r>
      </set>
      <set comment="kpoint 4">
       <r>  -17.8284    1.0000 </r>
       <r>  -17.3050    1.0000 </r>
       <r>   -3.9078    1.0000 </r>
       <r>   -3.6290    1.0000 </r>
       <r>   -3.3949    1.0000 </r>
       <r>   -2.4535    1.0000 </r>
       <r>   -1.8977    1.0000 </r>
       <r>   -1.6240    1.0000 </r>
       <r>   -0.5817    1.0000 </r>
       <r>    0.1604    1.0000 </r>
       <r>    0.3765    1.0000 </r>
       <r>    0.4278    1.0000 </r>
       <r>    0.5582    1.0000 </r>
       <r>    0.7267    1.0000 </r>
       <r>    0.9826    1.0000 </r>
       <r>    1.0434    1.0000 </r>
       <r>    1.1203    1.0000 </r>
       <r>    1.1225    1.0000 </r>
       <r>    1.1936    1.0000 </r>
       <r>    1.3283    1.0000 </r>
       <r>    1.3816    1.0000 </r>
       <r>    1.4117    1.0000 </r>
       <r>    1.4913    1.0000 </r>
       <r>    1.5617    1.0000 </r>
       <r>    1.6799    1.0000 </r>
       <r>    2.5856    1.0000 </r>
       <r>    3.3240    1.0000 </r>
       <r>    3.6928    1.0000 </r>
       <r>    6.6194    0.0000 </r>
       <r>    7.5544    0.0000 </r>
       <r>    8.0549    0.0000 </r>
       <r>   11.7450    0.0000 </r>
       <r>   12.1474    0.0000 </r>
       <r>   13.5471    0.0000 </r>
       <r>   13.7353    0.0000 </r>
       <r>   14.4878    0.0000 </r>
      </set>
      <set comment="kpoint 5">
       <r>  -17.6614    1.0000 </r>
       <r>  -17.4611    1.0000 </r>
       <r>   -3.7493    1.0000 </r>
       <r>   -3.4318    1.0000 </r>
       <r>   -2.9568    1.0000 </r>
       <r>   -2.8888    1.0000 </r>
       <r>   -2.4149    1.0000 </r>
       <r>   -2.1278    1.0000 </r>
       <r>   -0.0430    1.0000 </r>
       <r>    0.3572    1.0000 </r>
       <r>    0.4049    1.0000 </r>
       <r>    0.6307    1.0000 </r>
       <r>    0.6806    1.0000 </r>
       <r>    0.7706    1.0000 </r>
       <r>    0.8489    1.0000 </r>
       <r>    0.8829    1.0000 </r>
       <r>    0.9547    1.0000 </r>
       <r>    1.0953    1.0000 </r>
       <r>    1.1611    1.0000 </r>
       <r>    1.2313    1.0000 </r>
       <r>    1.2936    1.0000 </r>
       <r>    1.3023    1.0000 </r>
       <r>    1.5242    1.0000 </r>
       <r>    1.7829    1.0000 </r>
       <r>    1.9515    1.0000 </r>
       <r>    2.0398    1.0000 </r>
       <r>    3.3286    1.0000 </r>
       <r>    3.4893    1.0000 </r>
       <r>    7.3506    0.0000 </r>
       <r>    7.9723    0.0000 </r>
       <r>    8.8325    0.0000 </r>
       <r>   10.0608    0.0000 </r>
       <r>   12.4070    0.0000 </r>
       <r>   13.1108    0.0000 </r>
       <r>   13.1528    0.0000 </r>
       <r>   13.6556    0.0000 </r>
      </set>
      <set comment="kpoint 6">
       <r>  -17.5878    1.0000 </r>
       <r>  -17.5110    1.0000 </r>
       <r>   -3.9010    1.0000 </r>
       <r>   -3.7546    1.0000 </r>
       <r>   -2.8882    1.0000 </r>
       <r>   -2.7168    1.0000 </r>
       <r>   -2.3226    1.0000 </r>
       <r>   -2.0949    1.0000 </r>
       <r>    0.2790    1.0000 </r>
       <r>    0.4233    1.0000 </r>
       <r>    0.5146    1.0000 </r>
       <r>    0.5475    1.0000 </r>
       <r>    0.7230    1.0000 </r>
       <r>    0.7377    1.0000 </r>
       <r>    0.8125    1.0000 </r>
       <r>    0.8439    1.0000 </r>
       <r>    0.8639    1.0000 </r>
       <r>    0.9312    1.0000 </r>
       <r>    1.2031    1.0000 </r>
       <r>    1.2327    1.0000 </r>
       <r>    1.2562    1.0000 </r>
       <r>    1.3020    1.0000 </r>
       <r>    1.7011    1.0000 </r>
       <r>    1.8742    1.0000 </r>
       <r>    2.0032    1.0000 </r>
       <r>    2.0746    1.0000 </r>
       <r>    3.1349    1.0000 </r>
       <r>    3.2865    1.0000 </r>
       <r>    7.3457    0.0000 </r>
       <r>    7.4853    0.0000 </r>
       <r>    9.2902    0.0000 </r>
       <r>    9.4951    0.0000 </r>
       <r>   12.6852    0.0000 </r>
       <r>   12.6971    0.0000 </r>
       <r>   13.0666    0.0000 </r>
       <r>   14.0307    0.0000 </r>
      </set>
      <set comment="kpoint 7">
       <r>  -17.7800    1.0000 </r>
       <r>  -17.3432    1.0000 </r>
       <r>   -3.7729    1.0000 </r>
       <r>   -3.7729    1.0000 </r>
       <r>   -3.0891    1.0000 </r>
       <r>   -2.8111    1.0000 </r>
       <r>   -1.8734    1.0000 </r>
       <r>   -1.8734    1.0000 </r>
       <r>   -0.4110    1.0000 </r>
       <r>    0.2553    1.0000 </r>
       <r>    0.2553    1.0000 </r>
       <r>    0.6855    1.0000 </r>
       <r>    0.6867    1.0000 </r>
       <r>    0.6867    1.0000 </r>
       <r>    0.9657    1.0000 </r>
       <r>    0.9657    1.0000 </r>
       <r>    1.0642    1.0000 </r>
       <r>    1.0642    1.0000 </r>
       <r>    1.1631    1.0000 </r>
       <r>    1.3554    1.0000 </r>
       <r>    1.3554    1.0000 </r>
       <r>    1.3718    1.0000 </r>
       <r>    1.5239    1.0000 </r>
       <r>    1.5239    1.0000 </r>
       <r>    1.7567    1.0000 </r>
       <r>    2.8588    1.0000 </r>
       <r>    2.8588    1.0000 </r>
       <r>    3.5630    1.0000 </r>
       <r>    6.9144    0.0000 </r>
       <r>    8.1903    0.0000 </r>
       <r>    8.1903    0.0000 </r>
       <r>   10.9688    0.0000 </r>
       <r>   11.7072    0.0000 </r>
       <r>   11.7072    0.0000 </r>
       <r>   14.9280    0.0000 </r>
       <r>   14.9280    0.0000 </r>
      </set>
      <set comment="kpoint 8">
       <r>  -17.6710    1.0000 </r>
       <r>  -17.4358    1.0000 </r>
       <r>   -3.7756    1.0000 </r>
       <r>   -3.4712    1.0000 </r>
       <r>   -3.3308    1.0000 </r>
       <r>   -2.5853    1.0000 </r>
       <r>   -2.3275    1.0000 </r>
       <r>   -2.1234    1.0000 </r>
       <r>   -0.0158    1.0000 </r>
       <r>    0.3467    1.0000 </r>
       <r>    0.3889    1.0000 </r>
       <r>    0.6784    1.0000 </r>
       <r>    0.6835    1.0000 </r>
       <r>    0.7831    1.0000 </r>
       <r>    0.8104    1.0000 </r>
       <r>    0.8407    1.0000 </r>
       <r>    0.9760    1.0000 </r>
       <r>    1.0375    1.0000 </r>
       <r>    1.1545    1.0000 </r>
       <r>    1.3085    1.0000 </r>
       <r>    1.3311    1.0000 </r>
       <r>    1.3324    1.0000 </r>
       <r>    1.4725    1.0000 </r>
       <r>    1.7409    1.0000 </r>
       <r>    1.9778    1.0000 </r>
       <r>    2.2605    1.0000 </r>
       <r>    3.1987    1.0000 </r>
       <r>    3.3673    1.0000 </r>
       <r>    7.5283    0.0000 </r>
       <r>    8.3538    0.0000 </r>
       <r>    8.5168    0.0000 </r>
       <r>   10.2042    0.0000 </r>
       <r>   10.6874    0.0000 </r>
       <r>   11.7007    0.0000 </r>
       <r>   15.0622    0.0000 </r>
       <r>   15.8024    0.0000 </r>
      </set>
      <set comment="kpoint 9">
       <r>  -17.6825    1.0000 </r>
       <r>  -17.3988    1.0000 </r>
       <r>   -3.8378    1.0000 </r>
       <r>   -3.7445    1.0000 </r>
       <r>   -3.3411    1.0000 </r>
       <r>   -2.3784    1.0000 </r>
       <r>   -2.2603    1.0000 </r>
       <r>   -2.1167    1.0000 </r>
       <r>    0.1090    1.0000 </r>
       <r>    0.2923    1.0000 </r>
       <r>    0.3156    1.0000 </r>
       <r>    0.6315    1.0000 </r>
       <r>    0.6375    1.0000 </r>
       <r>    0.7596    1.0000 </r>
       <r>    0.7818    1.0000 </r>
       <r>    0.9175    1.0000 </r>
       <r>    1.0260    1.0000 </r>
       <r>    1.0428    1.0000 </r>
       <r>    1.1944    1.0000 </r>
       <r>    1.2231    1.0000 </r>
       <r>    1.3583    1.0000 </r>
       <r>    1.3840    1.0000 </r>
       <r>    1.5488    1.0000 </r>
       <r>    1.5790    1.0000 </r>
       <r>    2.2590    1.0000 </r>
       <r>    2.4503    1.0000 </r>
       <r>    3.0877    1.0000 </r>
       <r>    3.1922    1.0000 </r>
       <r>    7.2428    0.0000 </r>
       <r>    8.3936    0.0000 </r>
       <r>    8.8859    0.0000 </r>
       <r>    9.2597    0.0000 </r>
       <r>   10.9773    0.0000 </r>
       <r>   11.2300    0.0000 </r>
       <r>   15.2592    0.0000 </r>
       <r>   15.8212    0.0000 </r>
      </set>
      <set comment="kpoint 10">
       <r>  -17.7516    1.0000 </r>
       <r>  -17.3010    1.0000 </r>
       <r>   -3.7339    1.0000 </r>
       <r>   -3.7339    1.0000 </r>
       <r>   -3.7313    1.0000 </r>
       <r>   -2.1442    1.0000 </r>
       <r>   -2.1425    1.0000 </r>
       <r>   -2.1425    1.0000 </r>
       <r>    0.0462    1.0000 </r>
       <r>    0.1294    1.0000 </r>
       <r>    0.1294    1.0000 </r>
       <r>    0.5379    1.0000 </r>
       <r>    0.5379    1.0000 </r>
       <r>    0.7608    1.0000 </r>
       <r>    0.7608    1.0000 </r>
       <r>    0.8186    1.0000 </r>
       <r>    1.2083    1.0000 </r>
       <r>    1.2083    1.0000 </r>
       <r>    1.2197    1.0000 </r>
       <r>    1.2900    1.0000 </r>
       <r>    1.3281    1.0000 </r>
       <r>    1.3281    1.0000 </r>
       <r>    1.4705    1.0000 </r>
       <r>    1.4705    1.0000 </r>
       <r>    2.7007    1.0000 </r>
       <r>    2.9901    1.0000 </r>
       <r>    2.9901    1.0000 </r>
       <r>    3.0190    1.0000 </r>
       <r>    7.7654    0.0000 </r>
       <r>    7.9787    0.0000 </r>
       <r>    7.9787    0.0000 </r>
       <r>   10.0258    0.0000 </r>
       <r>   10.6534    0.0000 </r>
       <r>   10.6534    0.0000 </r>
       <r>   13.7536    0.0000 </r>
       <r>   14.7159    0.0000 </r>
      </set>
     </set>
     <set comment="spin 2">
      <set comment="kpoint 1">
       <r>  -17.9693    1.0000 </r>
       <r>  -17.1713    1.0000 </r>
       <r>   -3.9249    1.0000 </r>
       <r>   -3.9249    1.0000 </r>
       <r>   -3.9249    1.0000 </r>
       <r>   -1.2352    1.0000 </r>
       <r>   -1.1471    1.0000 </r>
       <r>   -1.1471    1.0000 </r>
       <r>   -1.1471    1.0000 </r>
       <r>   -0.0097    1.0000 </r>
       <r>   -0.0097    1.0000 </r>
       <r>    0.3100    1.0000 </r>
       <r>    0.3100    1.0000 </r>
       <r>    0.3100    1.0000 </r>
       <r>    1.0239    1.0000 </r>
       <r>    1.0239    1.0000 </r>
       <r>    1.2548    1.0000 </r>
       <r>    1.2548    1.0000 </r>
       <r>    1.2548    1.0000 </r>
       <r>    1.2626    1.0000 </r>
       <r>    1.2626    1.0000 </r>
       <r>    1.2626    1.0000 </r>
       <r>    1.5668    1.0000 </r>
       <r>    1.5668    1.0000 </r>
       <r>    1.5668    1.0000 </r>
       <r>    3.8652    1.0000 </r>
       <r>    3.8652    1.0000 </r>
       <r>    3.8652    1.0000 </r>
       <r>    5.9319    0.0000 </r>
       <r>    6.3462    0.0000 </r>
       <r>    6.3462    0.0000 </r>
       <r>   14.0353    0.0000 </r>
       <r>   14.0353    0.0000 </r>
       <r>   14.0353    0.0000 </r>
       <r>   15.0502    0.0000 </r>
       <r>   15.0502    0.0000 </r>
      </set>
      <set comment="kpoint 2">
       <r>  -17.8924    1.0000 </r>
       <r>  -17.2463    1.0000 </r>
       <r>   -3.7897    1.0000 </r>
       <r>   -3.7594    1.0000 </r>
       <r>   -3.7594    1.0000 </r>
       <r>   -1.9007    1.0000 </r>
       <r>   -1.6211    1.0000 </r>
       <r>   -1.6211    1.0000 </r>
       <r>   -0.7646    1.0000 </r>
       <r>    0.0753    1.0000 </r>
       <r>    0.2829    1.0000 </r>
       <r>    0.3335    1.0000 </r>
       <r>    0.5677    1.0000 </r>
       <r>    0.5677    1.0000 </r>
       <r>    1.0219    1.0000 </r>
       <r>    1.0544    1.0000 </r>
       <r>    1.1531    1.0000 </r>
       <r>    1.1875    1.0000 </r>
       <r>    1.2384    1.0000 </r>
       <r>    1.2384    1.0000 </r>
       <r>    1.3960    1.0000 </r>
       <r>    1.4962    1.0000 </r>
       <r>    1.4962    1.0000 </r>
       <r>    1.5456    1.0000 </r>
       <r>    1.5456    1.0000 </r>
       <r>    2.7426    1.0000 </r>
       <r>    3.7767    1.0000 </r>
       <r>    3.7767    1.0000 </r>
       <r>    6.3063    0.0000 </r>
       <r>    6.9596    0.0000 </r>
       <r>    7.5167    0.0000 </r>
       <r>   13.1662    0.0000 </r>
       <r>   13.2771    0.0000 </r>
       <r>   13.7924    0.0000 </r>
       <r>   13.7924    0.0000 </r>
       <r>   14.2483    0.0000 </r>
      </set>
      <set comment="kpoint 3">
       <r>  -17.6914    1.0000 </r>
       <r>  -17.4443    1.0000 </r>
       <r>   -3.3854    1.0000 </r>
       <r>   -3.3323    1.0000 </r>
       <r>   -3.3323    1.0000 </r>
       <r>   -2.7270    1.0000 </r>
       <r>   -2.3707    1.0000 </r>
       <r>   -2.3707    1.0000 </r>
       <r>   -0.1795    1.0000 </r>
       <r>    0.3031    1.0000 </r>
       <r>    0.3315    1.0000 </r>
       <r>    0.6370    1.0000 </r>
       <r>    0.7406    1.0000 </r>
       <r>    0.8629    1.0000 </r>
       <r>    0.8629    1.0000 </r>
       <r>    0.9873    1.0000 </r>
       <r>    1.0575    1.0000 </r>
       <r>    1.1356    1.0000 </r>
       <r>    1.1377    1.0000 </r>
       <r>    1.1377    1.0000 </r>
       <r>    1.2442    1.0000 </r>
       <r>    1.4437    1.0000 </r>
       <r>    1.4437    1.0000 </r>
       <r>    1.4439    1.0000 </r>
       <r>    2.0145    1.0000 </r>
       <r>    2.0145    1.0000 </r>
       <r>    3.5815    1.0000 </r>
       <r>    3.5815    1.0000 </r>
       <r>    7.2366    0.0000 </r>
       <r>    8.0843    0.0000 </r>
       <r>    8.5149    0.0000 </r>
       <r>   10.6564    0.0000 </r>
       <r>   13.2997    0.0000 </r>
       <r>   13.2997    0.0000 </r>
       <r>   13.5585    0.0000 </r>
       <r>   13.5586    0.0000 </r>
      </set>
      <set comment="kpoint 4">
       <r>  -17.8276    1.0000 </r>
       <r>  -17.3043    1.0000 </r>
       <r>   -3.9069    1.0000 </r>
       <r>   -3.6282    1.0000 </r>
       <r>   -3.3941    1.0000 </r>
       <r>   -2.4526    1.0000 </r>
       <r>   -1.8968    1.0000 </r>
       <r>   -1.6232    1.0000 </r>
       <r>   -0.5802    1.0000 </r>
       <r>    0.1612    1.0000 </r>
       <r>    0.3772    1.0000 </r>
       <r>    0.4287    1.0000 </r>
       <r>    0.5591    1.0000 </r>
       <r>    0.7275    1.0000 </r>
       <r>    0.9832    1.0000 </r>
       <r>    1.0440    1.0000 </r>
       <r>    1.1210    1.0000 </r>
       <r>    1.1232    1.0000 </r>
       <r>    1.1942    1.0000 </r>
       <r>    1.3290    1.0000 </r>
       <r>    1.3823    1.0000 </r>
       <r>    1.4124    1.0000 </r>
       <r>    1.4919    1.0000 </r>
       <r>    1.5622    1.0000 </r>
       <r>    1.6806    1.0000 </r>
       <r>    2.5867    1.0000 </r>
       <r>    3.3251    1.0000 </r>
       <r>    3.6939    1.0000 </r>
       <r>    6.6208    0.0000 </r>
       <r>    7.5560    0.0000 </r>
       <r>    8.0565    0.0000 </r>
       <r>   11.7468    0.0000 </r>
       <r>   12.1490    0.0000 </r>
       <r>   13.5485    0.0000 </r>
       <r>   13.7369    0.0000 </r>
       <r>   14.4865    0.0000 </r>
      </set>
      <set comment="kpoint 5">
       <r>  -17.6607    1.0000 </r>
       <r>  -17.4604    1.0000 </r>
       <r>   -3.7484    1.0000 </r>
       <r>   -3.4310    1.0000 </r>
       <r>   -2.9559    1.0000 </r>
       <r>   -2.8880    1.0000 </r>
       <r>   -2.4140    1.0000 </r>
       <r>   -2.1269    1.0000 </r>
       <r>   -0.0416    1.0000 </r>
       <r>    0.3579    1.0000 </r>
       <r>    0.4060    1.0000 </r>
       <r>    0.6315    1.0000 </r>
       <r>    0.6813    1.0000 </r>
       <r>    0.7713    1.0000 </r>
       <r>    0.8496    1.0000 </r>
       <r>    0.8837    1.0000 </r>
       <r>    0.9554    1.0000 </r>
       <r>    1.0959    1.0000 </r>
       <r>    1.1618    1.0000 </r>
       <r>    1.2320    1.0000 </r>
       <r>    1.2943    1.0000 </r>
       <r>    1.3030    1.0000 </r>
       <r>    1.5249    1.0000 </r>
       <r>    1.7838    1.0000 </r>
       <r>    1.9521    1.0000 </r>
       <r>    2.0404    1.0000 </r>
       <r>    3.3298    1.0000 </r>
       <r>    3.4906    1.0000 </r>
       <r>    7.3520    0.0000 </r>
       <r>    7.9738    0.0000 </r>
       <r>    8.8341    0.0000 </r>
       <r>   10.0624    0.0000 </r>
       <r>   12.4087    0.0000 </r>
       <r>   13.1124    0.0000 </r>
       <r>   13.1543    0.0000 </r>
       <r>   13.6572    0.0000 </r>
      </set>
      <set comment="kpoint 6">
       <r>  -17.5871    1.0000 </r>
       <r>  -17.5103    1.0000 </r>
       <r>   -3.9001    1.0000 </r>
       <r>   -3.7537    1.0000 </r>
       <r>   -2.8873    1.0000 </r>
       <r>   -2.7160    1.0000 </r>
       <r>   -2.3218    1.0000 </r>
       <r>   -2.0942    1.0000 </r>
       <r>    0.2803    1.0000 </r>
       <r>    0.4241    1.0000 </r>
       <r>    0.5154    1.0000 </r>
       <r>    0.5486    1.0000 </r>
       <r>    0.7237    1.0000 </r>
       <r>    0.7384    1.0000 </r>
       <r>    0.8133    1.0000 </r>
       <r>    0.8447    1.0000 </r>
       <r>    0.8645    1.0000 </r>
       <r>    0.9318    1.0000 </r>
       <r>    1.2038    1.0000 </r>
       <r>    1.2334    1.0000 </r>
       <r>    1.2569    1.0000 </r>
       <r>    1.3027    1.0000 </r>
       <r>    1.7019    1.0000 </r>
       <r>    1.8751    1.0000 </r>
       <r>    2.0038    1.0000 </r>
       <r>    2.0752    1.0000 </r>
       <r>    3.1361    1.0000 </r>
       <r>    3.2877    1.0000 </r>
       <r>    7.3473    0.0000 </r>
       <r>    7.4869    0.0000 </r>
       <r>    9.2918    0.0000 </r>
       <r>    9.4967    0.0000 </r>
       <r>   12.6867    0.0000 </r>
       <r>   12.6986    0.0000 </r>
       <r>   13.0683    0.0000 </r>
       <r>   14.0324    0.0000 </r>
      </set>
      <set comment="kpoint 7">
       <r>  -17.7793    1.0000 </r>
       <r>  -17.3425    1.0000 </r>
       <r>   -3.7720    1.0000 </r>
       <r>   -3.7720    1.0000 </r>
       <r>   -3.0882    1.0000 </r>
       <r>   -2.8102    1.0000 </r>
       <r>   -1.8726    1.0000 </r>
       <r>   -1.8726    1.0000 </r>
       <r>   -0.4095    1.0000 </r>
       <r>    0.2561    1.0000 </r>
       <r>    0.2561    1.0000 </r>
       <r>    0.6864    1.0000 </r>
       <r>    0.6874    1.0000 </r>
       <r>    0.6874    1.0000 </r>
       <r>    0.9663    1.0000 </r>
       <r>    0.9663    1.0000 </r>
       <r>    1.0650    1.0000 </r>
       <r>    1.0650    1.0000 </r>
       <r>    1.1637    1.0000 </r>
       <r>    1.3561    1.0000 </r>
       <r>    1.3561    1.0000 </r>
       <r>    1.3725    1.0000 </r>
       <r>    1.5245    1.0000 </r>
       <r>    1.5245    1.0000 </r>
       <r>    1.7574    1.0000 </r>
       <r>    2.8599    1.0000 </r>
       <r>    2.8599    1.0000 </r>
       <r>    3.5642    1.0000 </r>
       <r>    6.9158    0.0000 </r>
       <r>    8.1919    0.0000 </r>
       <r>    8.1919    0.0000 </r>
       <r>   10.9704    0.0000 </r>
       <r>   11.7088    0.0000 </r>
       <r>   11.7088    0.0000 </r>
       <r>   14.9295    0.0000 </r>
       <r>   14.9295    0.0000 </r>
      </set>
      <set comment="kpoint 8">
       <r>  -17.6703    1.0000 </r>
       <r>  -17.4350    1.0000 </r>
       <r>   -3.7747    1.0000 </r>
       <r>   -3.4704    1.0000 </r>
       <r>   -3.3299    1.0000 </r>
       <r>   -2.5845    1.0000 </r>
       <r>   -2.3266    1.0000 </r>
       <r>   -2.1225    1.0000 </r>
       <r>   -0.0145    1.0000 </r>
       <r>    0.3475    1.0000 </r>
       <r>    0.3899    1.0000 </r>
       <r>    0.6791    1.0000 </r>
       <r>    0.6843    1.0000 </r>
       <r>    0.7839    1.0000 </r>
       <r>    0.8111    1.0000 </r>
       <r>    0.8414    1.0000 </r>
       <r>    0.9768    1.0000 </r>
       <r>    1.0382    1.0000 </r>
       <r>    1.1552    1.0000 </r>
       <r>    1.3091    1.0000 </r>
       <r>    1.3318    1.0000 </r>
       <r>    1.3331    1.0000 </r>
       <r>    1.4732    1.0000 </r>
       <r>    1.7415    1.0000 </r>
       <r>    1.9786    1.0000 </r>
       <r>    2.2613    1.0000 </r>
       <r>    3.1998    1.0000 </r>
       <r>    3.3686    1.0000 </r>
       <r>    7.5298    0.0000 </r>
       <r>    8.3553    0.0000 </r>
       <r>    8.5185    0.0000 </r>
       <r>   10.2057    0.0000 </r>
       <r>   10.6892    0.0000 </r>
       <r>   11.7021    0.0000 </r>
       <r>   15.0637    0.0000 </r>
       <r>   15.8040    0.0000 </r>
      </set>
      <set comment="kpoint 9">
       <r>  -17.6818    1.0000 </r>
       <r>  -17.3981    1.0000 </r>
       <r>   -3.8370    1.0000 </r>
       <r>   -3.7436    1.0000 </r>
       <r>   -3.3402    1.0000 </r>
       <r>   -2.3775    1.0000 </r>
       <r>   -2.2594    1.0000 </r>
       <r>   -2.1158    1.0000 </r>
       <r>    0.1101    1.0000 </r>
       <r>    0.2932    1.0000 </r>
       <r>    0.3167    1.0000 </r>
       <r>    0.6322    1.0000 </r>
       <r>    0.6380    1.0000 </r>
       <r>    0.7603    1.0000 </r>
       <r>    0.7826    1.0000 </r>
       <r>    0.9181    1.0000 </r>
       <r>    1.0268    1.0000 </r>
       <r>    1.0435    1.0000 </r>
       <r>    1.1950    1.0000 </r>
       <r>    1.2238    1.0000 </r>
       <r>    1.3590    1.0000 </r>
       <r>    1.3848    1.0000 </r>
       <r>    1.5494    1.0000 </r>
       <r>    1.5796    1.0000 </r>
       <r>    2.2598    1.0000 </r>
       <r>    2.4512    1.0000 </r>
       <r>    3.0888    1.0000 </r>
       <r>    3.1934    1.0000 </r>
       <r>    7.2444    0.0000 </r>
       <r>    8.3951    0.0000 </r>
       <r>    8.8875    0.0000 </r>
       <r>    9.2614    0.0000 </r>
       <r>   10.9787    0.0000 </r>
       <r>   11.2314    0.0000 </r>
       <r>   15.2612    0.0000 </r>
       <r>   15.8226    0.0000 </r>
      </set>
      <set comment="kpoint 10">
       <r>  -17.7509    1.0000 </r>
       <r>  -17.3003    1.0000 </r>
       <r>   -3.7331    1.0000 </r>
       <r>   -3.7331    1.0000 </r>
       <r>   -3.7305    1.0000 </r>
       <r>   -2.1433    1.0000 </r>
       <r>   -2.1416    1.0000 </r>
       <r>   -2.1416    1.0000 </r>
       <r>    0.0473    1.0000 </r>
       <r>    0.1304    1.0000 </r>
       <r>    0.1304    1.0000 </r>
       <r>    0.5384    1.0000 </r>
       <r>    0.5384    1.0000 </r>
       <r>    0.7615    1.0000 </r>
       <r>    0.7615    1.0000 </r>
       <r>    0.8193    1.0000 </r>
       <r>    1.2090    1.0000 </r>
       <r>    1.2090    1.0000 </r>
       <r>    1.2205    1.0000 </r>
       <r>    1.2905    1.0000 </r>
       <r>    1.3287    1.0000 </r>
       <r>    1.3287    1.0000 </r>
       <r>    1.4712    1.0000 </r>
       <r>    1.4712    1.0000 </r>
       <r>    2.7017    1.0000 </r>
       <r>    2.9911    1.0000 </r>
       <r>    2.9911    1.0000 </r>
       <r>    3.0203    1.0000 </r>
       <r>    7.7670    0.0000 </r>
       <r>    7.9804    0.0000 </r>
       <r>    7.9804    0.0000 </r>
       <r>   10.0273    0.0000 </r>
       <r>   10.6548    0.0000 </r>
       <r>   10.6548    0.0000 </r>
       <r>   13.7557    0.0000 </r>
       <r>   14.7168    0.0000 </r>
      </set>
     </set>
    </set>
   </array>
  </eigenvalues>
  <separator name="orbital magnetization" >
   <v name="MAGDIPOLOUT">      0.00000000      0.00000000      0.00000000</v>
  </separator>
  <dos>
   <i name="efermi">      3.87082080 </i>
   <total>
    <array>
     <dimension dim="1">gridpoints</dimension>
     <dimension dim="2">spin</dimension>
     <field>energy</field>
     <field>total</field>
     <field>integrated</field>
     <set>
      <set comment="spin 1">
       <r>   -19.9701     0.0000     0.0000 </r>
       <r>   -19.8441     0.0000     0.0000 </r>
       <r>   -19.7181     0.0000     0.0000 </r>
       <r>   -19.5921     0.0000     0.0000 </r>
       <r>   -19.4662     0.0000     0.0000 </r>
       <r>   -19.3402     0.0000     0.0000 </r>
       <r>   -19.2142     0.0000     0.0000 </r>
       <r>   -19.0882     0.0000     0.0000 </r>
       <r>   -18.9623     0.0000     0.0000 </r>
       <r>   -18.8363     0.0000     0.0000 </r>
       <r>   -18.7103     0.0000     0.0000 </r>
       <r>   -18.5843     0.0000     0.0000 </r>
       <r>   -18.4584     0.0000     0.0000 </r>
       <r>   -18.3324     0.0000     0.0000 </r>
       <r>   -18.2064     0.0000     0.0000 </r>
       <r>   -18.0804     0.0000     0.0000 </r>
       <r>   -17.9545     0.0196     0.0001 </r>
       <r>   -17.8285     1.1460     0.0685 </r>
       <r>   -17.7025     5.4679     0.3864 </r>
       <r>   -17.5765     3.3657     1.0000 </r>
       <r>   -17.4506    10.1007     1.2139 </r>
       <r>   -17.3246     2.6412     1.8817 </r>
       <r>   -17.1986     0.2557     1.9994 </r>
       <r>   -17.0726     0.0000     2.0000 </r>
       <r>   -16.9467     0.0000     2.0000 </r>
       <r>   -16.8207     0.0000     2.0000 </r>
       <r>   -16.6947     0.0000     2.0000 </r>
       <r>   -16.5687     0.0000     2.0000 </r>
       <r>   -16.4427     0.0000     2.0000 </r>
       <r>   -16.3168     0.0000     2.0000 </r>
       <r>   -16.1908     0.0000     2.0000 </r>
       <r>   -16.0648     0.0000     2.0000 </r>
       <r>   -15.9388     0.0000     2.0000 </r>
       <r>   -15.8129     0.0000     2.0000 </r>
       <r>   -15.6869     0.0000     2.0000 </r>
       <r>   -15.5609     0.0000     2.0000 </r>
       <r>   -15.4349     0.0000     2.0000 </r>
       <r>   -15.3090     0.0000     2.0000 </r>
       <r>   -15.1830     0.0000     2.0000 </r>
       <r>   -15.0570     0.0000     2.0000 </r>
       <r>   -14.9310     0.0000     2.0000 </r>
       <r>   -14.8051     0.0000     2.0000 </r>
       <r>   -14.6791     0.0000     2.0000 </r>
       <r>   -14.5531     0.0000     2.0000 </r>
       <r>   -14.4271     0.0000     2.0000 </r>
       <r>   -14.3012     0.0000     2.0000 </r>
       <r>   -14.1752     0.0000     2.0000 </r>
       <r>   -14.0492     0.0000     2.0000 </r>
       <r>   -13.9232     0.0000     2.0000 </r>
       <r>   -13.7973     0.0000     2.0000 </r>
       <r>   -13.6713     0.0000     2.0000 </r>
       <r>   -13.5453     0.0000     2.0000 </r>
       <r>   -13.4193     0.0000     2.0000 </r>
       <r>   -13.2934     0.0000     2.0000 </r>
       <r>   -13.1674     0.0000     2.0000 </r>
       <r>   -13.0414     0.0000     2.0000 </r>
       <r>   -12.9154     0.0000     2.0000 </r>
       <r>   -12.7895     0.0000     2.0000 </r>
       <r>   -12.6635     0.0000     2.0000 </r>
       <r>   -12.5375     0.0000     2.0000 </r>
       <r>   -12.4115     0.0000     2.0000 </r>
       <r>   -12.2856     0.0000     2.0000 </r>
       <r>   -12.1596     0.0000     2.0000 </r>
       <r>   -12.0336     0.0000     2.0000 </r>
       <r>   -11.9076     0.0000     2.0000 </r>
       <r>   -11.7816     0.0000     2.0000 </r>
       <r>   -11.6557     0.0000     2.0000 </r>
       <r>   -11.5297     0.0000     2.0000 </r>
       <r>   -11.4037     0.0000     2.0000 </r>
       <r>   -11.2777     0.0000     2.0000 </r>
       <r>   -11.1518     0.0000     2.0000 </r>
       <r>   -11.0258     0.0000     2.0000 </r>
       <r>   -10.8998     0.0000     2.0000 </r>
       <r>   -10.7738     0.0000     2.0000 </r>
       <r>   -10.6479     0.0000     2.0000 </r>
       <r>   -10.5219     0.0000     2.0000 </r>
       <r>   -10.3959     0.0000     2.0000 </r>
       <r>   -10.2699     0.0000     2.0000 </r>
       <r>   -10.1440     0.0000     2.0000 </r>
       <r>   -10.0180     0.0000     2.0000 </r>
       <r>    -9.8920     0.0000     2.0000 </r>
       <r>    -9.7660     0.0000     2.0000 </r>
       <r>    -9.6401     0.0000     2.0000 </r>
       <r>    -9.5141     0.0000     2.0000 </r>
       <r>    -9.3881     0.0000     2.0000 </r>
       <r>    -9.2621     0.0000     2.0000 </r>
       <r>    -9.1362     0.0000     2.0000 </r>
       <r>    -9.0102     0.0000     2.0000 </r>
       <r>    -8.8842     0.0000     2.0000 </r>
       <r>    -8.7582     0.0000     2.0000 </r>
       <r>    -8.6323     0.0000     2.0000 </r>
       <r>    -8.5063     0.0000     2.0000 </r>
       <r>    -8.3803     0.0000     2.0000 </r>
       <r>    -8.2543     0.0000     2.0000 </r>
       <r>    -8.1284     0.0000     2.0000 </r>
       <r>    -8.0024     0.0000     2.0000 </r>
       <r>    -7.8764     0.0000     2.0000 </r>
       <r>    -7.7504     0.0000     2.0000 </r>
       <r>    -7.6245     0.0000     2.0000 </r>
       <r>    -7.4985     0.0000     2.0000 </r>
       <r>    -7.3725     0.0000     2.0000 </r>
       <r>    -7.2465     0.0000     2.0000 </r>
       <r>    -7.1206     0.0000     2.0000 </r>
       <r>    -6.9946     0.0000     2.0000 </r>
       <r>    -6.8686     0.0000     2.0000 </r>
       <r>    -6.7426     0.0000     2.0000 </r>
       <r>    -6.6166     0.0000     2.0000 </r>
       <r>    -6.4907     0.0000     2.0000 </r>
       <r>    -6.3647     0.0000     2.0000 </r>
       <r>    -6.2387     0.0000     2.0000 </r>
       <r>    -6.1127     0.0000     2.0000 </r>
       <r>    -5.9868     0.0000     2.0000 </r>
       <r>    -5.8608     0.0000     2.0000 </r>
       <r>    -5.7348     0.0000     2.0000 </r>
       <r>    -5.6088     0.0000     2.0000 </r>
       <r>    -5.4829     0.0000     2.0000 </r>
       <r>    -5.3569     0.0000     2.0000 </r>
       <r>    -5.2309     0.0000     2.0000 </r>
       <r>    -5.1049     0.0000     2.0000 </r>
       <r>    -4.9790     0.0000     2.0000 </r>
       <r>    -4.8530     0.0000     2.0000 </r>
       <r>    -4.7270     0.0000     2.0000 </r>
       <r>    -4.6010     0.0000     2.0000 </r>
       <r>    -4.4751     0.0000     2.0000 </r>
       <r>    -4.3491     0.0000     2.0000 </r>
       <r>    -4.2231     0.0000     2.0000 </r>
       <r>    -4.0971     0.0000     2.0000 </r>
       <r>    -3.9712     0.0000     2.0000 </r>
       <r>    -3.8452     4.9879     2.1744 </r>
       <r>    -3.7192     7.2940     3.1303 </r>
       <r>    -3.5932     3.4076     3.5920 </r>
       <r>    -3.4673     3.0307     3.9908 </r>
       <r>    -3.3413     1.5265     4.2743 </r>
       <r>    -3.2153     2.3099     4.5658 </r>
       <r>    -3.0893     1.6125     4.7966 </r>
       <r>    -2.9634     1.0658     4.9651 </r>
       <r>    -2.8374     0.9895     5.0361 </r>
       <r>    -2.7114     2.2993     5.2569 </r>
       <r>    -2.5854     1.7850     5.5166 </r>
       <r>    -2.4595     1.3041     5.7141 </r>
       <r>    -2.3335     4.7390     6.0891 </r>
       <r>    -2.2075     4.0256     6.6320 </r>
       <r>    -2.0815     6.2618     7.4426 </r>
       <r>    -1.9556     1.3329     7.6610 </r>
       <r>    -1.8296     0.9234     7.7995 </r>
       <r>    -1.7036     0.6106     7.8948 </r>
       <r>    -1.5776     0.3657     7.9662 </r>
       <r>    -1.4516     0.1178     7.9883 </r>
       <r>    -1.3257     0.0393     7.9977 </r>
       <r>    -1.1997     0.0032     7.9999 </r>
       <r>    -1.0737     0.0049     8.0001 </r>
       <r>    -0.9477     0.0353     8.0024 </r>
       <r>    -0.8218     0.0938     8.0102 </r>
       <r>    -0.6958     0.2538     8.0301 </r>
       <r>    -0.5698     0.3530     8.0700 </r>
       <r>    -0.4438     0.4198     8.1178 </r>
       <r>    -0.3179     0.5606     8.1790 </r>
       <r>    -0.1919     0.7477     8.2610 </r>
       <r>    -0.0659     1.5603     8.4064 </r>
       <r>     0.0601     4.0228     8.7170 </r>
       <r>     0.1860     3.2337     9.1109 </r>
       <r>     0.3120     9.5827     9.7054 </r>
       <r>     0.4380     5.6400    10.9892 </r>
       <r>     0.5640     8.1112    11.3066 </r>
       <r>     0.6899    14.7879    12.8973 </r>
       <r>     0.8159    15.6004    14.3606 </r>
       <r>     0.9419    12.0761    15.7493 </r>
       <r>     1.0679    13.9173    17.2307 </r>
       <r>     1.1938    18.2713    18.7179 </r>
       <r>     1.3198    26.4585    20.4861 </r>
       <r>     1.4458     5.4484    21.9720 </r>
       <r>     1.5718    10.6215    23.1037 </r>
       <r>     1.6977     4.2358    23.7152 </r>
       <r>     1.8237     2.2684    24.1511 </r>
       <r>     1.9497     1.5761    24.3421 </r>
       <r>     2.0757     4.6210    24.7733 </r>
       <r>     2.2016     2.4586    25.1266 </r>
       <r>     2.3276     1.9502    25.3956 </r>
       <r>     2.4536     1.3200    25.6175 </r>
       <r>     2.5796     1.0113    25.7642 </r>
       <r>     2.7055     0.7601    25.8945 </r>
       <r>     2.8315     0.2577    25.9480 </r>
       <r>     2.9575     0.3129    25.9784 </r>
       <r>     3.0835     3.0109    26.1824 </r>
       <r>     3.2094     4.9206    26.6745 </r>
       <r>     3.3354     2.9770    27.1685 </r>
       <r>     3.4614     2.6860    27.5221 </r>
       <r>     3.5874     1.6111    27.8053 </r>
       <r>     3.7134     0.8496    27.9437 </r>
       <r>     3.8393     0.0360    27.9997 </r>
       <r>     3.9653     0.0000    28.0000 </r>
       <r>     4.0913     0.0000    28.0000 </r>
       <r>     4.2173     0.0000    28.0000 </r>
       <r>     4.3432     0.0000    28.0000 </r>
       <r>     4.4692     0.0000    28.0000 </r>
       <r>     4.5952     0.0000    28.0000 </r>
       <r>     4.7212     0.0000    28.0000 </r>
       <r>     4.8471     0.0000    28.0000 </r>
       <r>     4.9731     0.0000    28.0000 </r>
       <r>     5.0991     0.0000    28.0000 </r>
       <r>     5.2251     0.0000    28.0000 </r>
       <r>     5.3510     0.0000    28.0000 </r>
       <r>     5.4770     0.0000    28.0000 </r>
       <r>     5.6030     0.0000    28.0000 </r>
       <r>     5.7290     0.0000    28.0000 </r>
       <r>     5.8549     0.0000    28.0000 </r>
       <r>     5.9809     0.0017    28.0000 </r>
       <r>     6.1069     0.0213    28.0013 </r>
       <r>     6.2329     0.0627    28.0063 </r>
       <r>     6.3588     0.1300    28.0181 </r>
       <r>     6.4848     0.1937    28.0387 </r>
       <r>     6.6108     0.2373    28.0661 </r>
       <r>     6.7368     0.2823    28.0984 </r>
       <r>     6.8627     0.3660    28.1389 </r>
       <r>     6.9887     0.4882    28.1923 </r>
       <r>     7.1147     0.6431    28.2632 </r>
       <r>     7.2407     0.8643    28.3557 </r>
       <r>     7.3666     3.9398    28.7301 </r>
       <r>     7.4926     1.2126    29.0014 </r>
       <r>     7.6186     0.7317    29.1000 </r>
       <r>     7.7446     0.8336    29.1979 </r>
       <r>     7.8705     1.0644    29.3161 </r>
       <r>     7.9965     2.0450    29.4925 </r>
       <r>     8.1225     1.8489    29.7260 </r>
       <r>     8.2485     1.9261    29.9636 </r>
       <r>     8.3744     2.6476    30.2211 </r>
       <r>     8.5004     0.8747    30.3539 </r>
       <r>     8.6264     1.3240    30.5081 </r>
       <r>     8.7524     1.3580    30.6783 </r>
       <r>     8.8784     0.8929    30.8297 </r>
       <r>     9.0043     0.5289    30.9120 </r>
       <r>     9.1303     0.3243    30.9654 </r>
       <r>     9.2563     0.1573    30.9953 </r>
       <r>     9.3823     0.5460    31.0566 </r>
       <r>     9.5082     0.5114    31.1340 </r>
       <r>     9.6342     0.5638    31.2018 </r>
       <r>     9.7602     0.6117    31.2759 </r>
       <r>     9.8862     0.6551    31.3557 </r>
       <r>    10.0121     0.6939    31.4407 </r>
       <r>    10.1381     0.8148    31.5494 </r>
       <r>    10.2641     0.4836    31.6210 </r>
       <r>    10.3901     0.4133    31.6776 </r>
       <r>    10.5160     0.3322    31.7247 </r>
       <r>    10.6420     0.2403    31.7609 </r>
       <r>    10.7680     1.1421    31.8745 </r>
       <r>    10.8940     1.1445    32.0133 </r>
       <r>    11.0199     0.6701    32.1352 </r>
       <r>    11.1459     0.7279    32.2232 </r>
       <r>    11.2719     0.7486    32.3174 </r>
       <r>    11.3979     0.7730    32.4132 </r>
       <r>    11.5238     0.7966    32.5121 </r>
       <r>    11.6498     0.8193    32.6139 </r>
       <r>    11.7758     0.7849    32.7140 </r>
       <r>    11.9018     0.8381    32.8160 </r>
       <r>    12.0277     0.9092    32.9259 </r>
       <r>    12.1537     0.9942    33.0458 </r>
       <r>    12.2797     0.9956    33.1715 </r>
       <r>    12.4057     0.9670    33.2954 </r>
       <r>    12.5316     0.8732    33.4127 </r>
       <r>    12.6576     0.7825    33.5167 </r>
       <r>    12.7836     0.6606    33.6059 </r>
       <r>    12.9096     0.5871    33.6846 </r>
       <r>    13.0355     0.5015    33.7533 </r>
       <r>    13.1615     0.8943    33.8305 </r>
       <r>    13.2875     0.7040    33.9324 </r>
       <r>    13.4135     0.6760    34.0182 </r>
       <r>    13.5394     0.6770    34.1033 </r>
       <r>    13.6654     1.0495    34.2218 </r>
       <r>    13.7914     1.0820    34.3560 </r>
       <r>    13.9174     0.8663    34.4661 </r>
       <r>    14.0434     0.9272    34.5773 </r>
       <r>    14.1693     0.9525    34.6958 </r>
       <r>    14.2953     1.0528    34.8190 </r>
       <r>    14.4213     1.1053    34.9577 </r>
       <r>    14.5473     0.9836    35.0888 </r>
       <r>    14.6732     0.8978    35.2072 </r>
       <r>    14.7992     0.9400    35.3275 </r>
       <r>    14.9252     0.8330    35.4350 </r>
       <r>    15.0512     0.8922    35.5416 </r>
       <r>    15.1771     0.8898    35.6567 </r>
       <r>    15.3031     0.4239    35.7434 </r>
       <r>    15.4291     0.4253    35.7969 </r>
       <r>    15.5551     0.4250    35.8505 </r>
       <r>    15.6810     0.4231    35.9039 </r>
       <r>    15.8070     1.9076    35.9607 </r>
       <r>    15.9330     0.0000    36.0000 </r>
       <r>    16.0590     0.0000    36.0000 </r>
       <r>    16.1849     0.0000    36.0000 </r>
       <r>    16.3109     0.0000    36.0000 </r>
       <r>    16.4369     0.0000    36.0000 </r>
       <r>    16.5629     0.0000    36.0000 </r>
       <r>    16.6888     0.0000    36.0000 </r>
       <r>    16.8148     0.0000    36.0000 </r>
       <r>    16.9408     0.0000    36.0000 </r>
       <r>    17.0668     0.0000    36.0000 </r>
       <r>    17.1927     0.0000    36.0000 </r>
       <r>    17.3187     0.0000    36.0000 </r>
       <r>    17.4447     0.0000    36.0000 </r>
       <r>    17.5707     0.0000    36.0000 </r>
       <r>    17.6966     0.0000    36.0000 </r>
       <r>    17.8226     0.0000    36.0000 </r>
      </set>
      <set comment="spin 2">
       <r>   -19.9701     0.0000     0.0000 </r>
       <r>   -19.8441     0.0000     0.0000 </r>
       <r>   -19.7181     0.0000     0.0000 </r>
       <r>   -19.5921     0.0000     0.0000 </r>
       <r>   -19.4662     0.0000     0.0000 </r>
       <r>   -19.3402     0.0000     0.0000 </r>
       <r>   -19.2142     0.0000     0.0000 </r>
       <r>   -19.0882     0.0000     0.0000 </r>
       <r>   -18.9623     0.0000     0.0000 </r>
       <r>   -18.8363     0.0000     0.0000 </r>
       <r>   -18.7103     0.0000     0.0000 </r>
       <r>   -18.5843     0.0000     0.0000 </r>
       <r>   -18.4584     0.0000     0.0000 </r>
       <r>   -18.3324     0.0000     0.0000 </r>
       <r>   -18.2064     0.0000     0.0000 </r>
       <r>   -18.0804     0.0000     0.0000 </r>
       <r>   -17.9545     0.0178     0.0001 </r>
       <r>   -17.8285     1.1426     0.0677 </r>
       <r>   -17.7025     5.4285     0.3826 </r>
       <r>   -17.5765     3.3657     1.0000 </r>
       <r>   -17.4506    10.0370     1.2067 </r>
       <r>   -17.3246     2.6610     1.8801 </r>
       <r>   -17.1986     0.2593     1.9994 </r>
       <r>   -17.0726     0.0000     2.0000 </r>
       <r>   -16.9467     0.0000     2.0000 </r>
       <r>   -16.8207     0.0000     2.0000 </r>
       <r>   -16.6947     0.0000     2.0000 </r>
       <r>   -16.5687     0.0000     2.0000 </r>
       <r>   -16.4427     0.0000     2.0000 </r>
       <r>   -16.3168     0.0000     2.0000 </r>
       <r>   -16.1908     0.0000     2.0000 </r>
       <r>   -16.0648     0.0000     2.0000 </r>
       <r>   -15.9388     0.0000     2.0000 </r>
       <r>   -15.8129     0.0000     2.0000 </r>
       <r>   -15.6869     0.0000     2.0000 </r>
       <r>   -15.5609     0.0000     2.0000 </r>
       <r>   -15.4349     0.0000     2.0000 </r>
       <r>   -15.3090     0.0000     2.0000 </r>
       <r>   -15.1830     0.0000     2.0000 </r>
       <r>   -15.0570     0.0000     2.0000 </r>
       <r>   -14.9310     0.0000     2.0000 </r>
       <r>   -14.8051     0.0000     2.0000 </r>
       <r>   -14.6791     0.0000     2.0000 </r>
       <r>   -14.5531     0.0000     2.0000 </r>
       <r>   -14.4271     0.0000     2.0000 </r>
       <r>   -14.3012     0.0000     2.0000 </r>
       <r>   -14.1752     0.0000     2.0000 </r>
       <r>   -14.0492     0.0000     2.0000 </r>
       <r>   -13.9232     0.0000     2.0000 </r>
       <r>   -13.7973     0.0000     2.0000 </r>
       <r>   -13.6713     0.0000     2.0000 </r>
       <r>   -13.5453     0.0000     2.0000 </r>
       <r>   -13.4193     0.0000     2.0000 </r>
       <r>   -13.2934     0.0000     2.0000 </r>
       <r>   -13.1674     0.0000     2.0000 </r>
       <r>   -13.0414     0.0000     2.0000 </r>
       <r>   -12.9154     0.0000     2.0000 </r>
       <r>   -12.7895     0.0000     2.0000 </r>
       <r>   -12.6635     0.0000     2.0000 </r>
       <r>   -12.5375     0.0000     2.0000 </r>
       <r>   -12.4115     0.0000     2.0000 </r>
       <r>   -12.2856     0.0000     2.0000 </r>
       <r>   -12.1596     0.0000     2.0000 </r>
       <r>   -12.0336     0.0000     2.0000 </r>
       <r>   -11.9076     0.0000     2.0000 </r>
       <r>   -11.7816     0.0000     2.0000 </r>
       <r>   -11.6557     0.0000     2.0000 </r>
       <r>   -11.5297     0.0000     2.0000 </r>
       <r>   -11.4037     0.0000     2.0000 </r>
       <r>   -11.2777     0.0000     2.0000 </r>
       <r>   -11.1518     0.0000     2.0000 </r>
       <r>   -11.0258     0.0000     2.0000 </r>
       <r>   -10.8998     0.0000     2.0000 </r>
       <r>   -10.7738     0.0000     2.0000 </r>
       <r>   -10.6479     0.0000     2.0000 </r>
       <r>   -10.5219     0.0000     2.0000 </r>
       <r>   -10.3959     0.0000     2.0000 </r>
       <r>   -10.2699     0.0000     2.0000 </r>
       <r>   -10.1440     0.0000     2.0000 </r>
       <r>   -10.0180     0.0000     2.0000 </r>
       <r>    -9.8920     0.0000     2.0000 </r>
       <r>    -9.7660     0.0000     2.0000 </r>
       <r>    -9.6401     0.0000     2.0000 </r>
       <r>    -9.5141     0.0000     2.0000 </r>
       <r>    -9.3881     0.0000     2.0000 </r>
       <r>    -9.2621     0.0000     2.0000 </r>
       <r>    -9.1362     0.0000     2.0000 </r>
       <r>    -9.0102     0.0000     2.0000 </r>
       <r>    -8.8842     0.0000     2.0000 </r>
       <r>    -8.7582     0.0000     2.0000 </r>
       <r>    -8.6323     0.0000     2.0000 </r>
       <r>    -8.5063     0.0000     2.0000 </r>
       <r>    -8.3803     0.0000     2.0000 </r>
       <r>    -8.2543     0.0000     2.0000 </r>
       <r>    -8.1284     0.0000     2.0000 </r>
       <r>    -8.0024     0.0000     2.0000 </r>
       <r>    -7.8764     0.0000     2.0000 </r>
       <r>    -7.7504     0.0000     2.0000 </r>
       <r>    -7.6245     0.0000     2.0000 </r>
       <r>    -7.4985     0.0000     2.0000 </r>
       <r>    -7.3725     0.0000     2.0000 </r>
       <r>    -7.2465     0.0000     2.0000 </r>
       <r>    -7.1206     0.0000     2.0000 </r>
       <r>    -6.9946     0.0000     2.0000 </r>
       <r>    -6.8686     0.0000     2.0000 </r>
       <r>    -6.7426     0.0000     2.0000 </r>
       <r>    -6.6166     0.0000     2.0000 </r>
       <r>    -6.4907     0.0000     2.0000 </r>
       <r>    -6.3647     0.0000     2.0000 </r>
       <r>    -6.2387     0.0000     2.0000 </r>
       <r>    -6.1127     0.0000     2.0000 </r>
       <r>    -5.9868     0.0000     2.0000 </r>
       <r>    -5.8608     0.0000     2.0000 </r>
       <r>    -5.7348     0.0000     2.0000 </r>
       <r>    -5.6088     0.0000     2.0000 </r>
       <r>    -5.4829     0.0000     2.0000 </r>
       <r>    -5.3569     0.0000     2.0000 </r>
       <r>    -5.2309     0.0000     2.0000 </r>
       <r>    -5.1049     0.0000     2.0000 </r>
       <r>    -4.9790     0.0000     2.0000 </r>
       <r>    -4.8530     0.0000     2.0000 </r>
       <r>    -4.7270     0.0000     2.0000 </r>
       <r>    -4.6010     0.0000     2.0000 </r>
       <r>    -4.4751     0.0000     2.0000 </r>
       <r>    -4.3491     0.0000     2.0000 </r>
       <r>    -4.2231     0.0000     2.0000 </r>
       <r>    -4.0971     0.0000     2.0000 </r>
       <r>    -3.9712     0.0000     2.0000 </r>
       <r>    -3.8452     4.9304     2.1700 </r>
       <r>    -3.7192     7.2890     3.1271 </r>
[...]
        <r>  0.0238  0.0000  0.0001  0.0002  0.0378  0.0001  0.0097  0.0186  0.0085 </r>
        <r>  0.0000  0.0007  0.0020  0.0003  0.0145  0.0025  0.0127  0.0050  0.0001 </r>
        <r>  0.0000  0.0497  0.1440  0.0245  0.0000  0.0000  0.0000  0.0000  0.0000 </r>
        <r>  0.0000  0.0497  0.1440  0.0245  0.0000  0.0000  0.0000  0.0000  0.0000 </r>
       </set>
       <set comment="band 5">
        <r>  0.0087  0.0000  0.0050  0.0000  0.0049  0.0120  0.0187  0.0120  0.0000 </r>
        <r>  0.0087  0.0000  0.0000  0.0050  0.0120  0.0049  0.0047  0.0120  0.0140 </r>
        <r>  0.0087  0.0050  0.0000  0.0000  0.0120  0.0120  0.0047  0.0049  0.0140 </r>
        <r>  0.0778  0.0005  0.0005  0.0005  0.0369  0.0369  0.0000  0.0369  0.0000 </r>
        <r>  0.0005  0.0726  0.0726  0.0726  0.0000  0.0000  0.0000  0.0000  0.0000 </r>
        <r>  0.0005  0.0726  0.0726  0.0726  0.0000  0.0000  0.0000  0.0000  0.0000 </r>
       </set>
       <set comment="band 6">
        <r>  0.0001  0.0000  0.0204  0.0000  0.0012  0.0094  0.0103  0.0094  0.0000 </r>
        <r>  0.0001  0.0000  0.0000  0.0204  0.0094  0.0012  0.0026  0.0094  0.0077 </r>
        <r>  0.0001  0.0204  0.0000  0.0000  0.0094  0.0094  0.0026  0.0012  0.0077 </r>
        <r>  0.0024  0.0260  0.0260  0.0260  0.0022  0.0022  0.0000  0.0022  0.0000 </r>
        <r>  0.0002  0.0869  0.0869  0.0869  0.0000  0.0000  0.0000  0.0000  0.0000 </r>
        <r>  0.0002  0.0869  0.0869  0.0869  0.0000  0.0000  0.0000  0.0000  0.0000 </r>
       </set>
       <set comment="band 7">
        <r>  0.0000  0.0077  0.0089  0.0386  0.0000  0.0000  0.0000  0.0006  0.0004 </r>
        <r>  0.0000  0.0070  0.0121  0.0001  0.0003  0.0000  0.0010  0.0004  0.0003 </r>
        <r>  0.0000  0.0107  0.0130  0.0387  0.0005  0.0000  0.0002  0.0000  0.0000 </r>
        <r>  0.0000  0.0082  0.0068  0.0001  0.0088  0.0001  0.0270  0.0105  0.0128 </r>
        <r>  0.0000  0.1414  0.1182  0.0018  0.0000  0.0000  0.0000  0.0000  0.0000 </r>
        <r>  0.0000  0.1414  0.1182  0.0018  0.0000  0.0000  0.0000  0.0000  0.0000 </r>
       </set>
       <set comment="band 8">
        <r>  0.0000  0.0313  0.0042  0.0005  0.0000  0.0006  0.0000  0.0001  0.0009 </r>
        <r>  0.0000  0.0321  0.0269  0.0131  0.0003  0.0000  0.0000  0.0002  0.0000 </r>
        <r>  0.0000  0.0025  0.0261  0.0003  0.0001  0.0006  0.0008  0.0000  0.0003 </r>
        <r>  0.0000  0.0019  0.0032  0.0100  0.0042  0.0128  0.0128  0.0024  0.0270 </r>
        <r>  0.0000  0.0329  0.0560  0.1725  0.0000  0.0000  0.0000  0.0000  0.0000 </r>
        <r>  0.0000  0.0329  0.0560  0.1725  0.0000  0.0000  0.0000  0.0000  0.0000 </r>
       </set>
       <set comment="band 9">
        <r>  0.0045  0.0002  0.0002  0.0002  0.1637  0.0028  0.0210  0.0028  0.0000 </r>
        <r>  0.0045  0.0002  0.0002  0.0002  0.0028  0.1637  0.0052  0.0028  0.0157 </r>
        <r>  0.0045  0.0002  0.0002  0.0002  0.0028  0.0028  0.0052  0.1637  0.0157 </r>
        <r>  0.0303  0.0001  0.0001  0.0001  0.0716  0.0716  0.0000  0.0716  0.0000 </r>
        <r>  0.0001  0.0016  0.0016  0.0016  0.0000  0.0000  0.0000  0.0000  0.0000 </r>
        <r>  0.0001  0.0016  0.0016  0.0016  0.0000  0.0000  0.0000  0.0000  0.0000 </r>
       </set>
       <set comment="band 10">
        <r>  0.0142  0.0003  0.0007  0.0000  0.0215  0.1697  0.0012  0.0067  0.0021 </r>
        <r>  0.0000  0.0003  0.0003  0.0000  0.1032  0.0000  0.0057  0.0900  0.0017 </r>
        <r>  0.0154  0.0007  0.0003  0.0000  0.0126  0.1623  0.0003  0.0234  0.0026 </r>
        <r>  0.0000  0.0001  0.0001  0.0000  0.0909  0.0002  0.0196  0.0989  0.0077 </r>
        <r>  0.0000  0.0027  0.0025  0.0000  0.0000  0.0000  0.0000  0.0000  0.0000 </r>
        <r>  0.0000  0.0027  0.0025  0.0000  0.0000  0.0000  0.0000  0.0000  0.0000 </r>
       </set>
       <set comment="band 11">
        <r>  0.0056  0.0001  0.0003  0.0004  0.0085  0.0118  0.0005  0.1748  0.0053 </r>
        <r>  0.0197  0.0001  0.0001  0.0009  0.0783  0.0299  0.0003  0.0916  0.0013 </r>
        <r>  0.0043  0.0002  0.0001  0.0004  0.1689  0.0192  0.0057  0.0066  0.0005 </r>
        <r>  0.0000  0.0000  0.0000  0.0001  0.0358  0.1265  0.0077  0.0278  0.0196 </r>
        <r>  0.0000  0.0008  0.0010  0.0035  0.0000  0.0000  0.0000  0.0000  0.0000 </r>
        <r>  0.0000  0.0008  0.0010  0.0035  0.0000  0.0000  0.0000  0.0000  0.0000 </r>
       </set>
       <set comment="band 12">
        <r>  0.0005  0.0001  0.0002  0.0005  0.0830  0.0097  0.1281  0.0468  0.0135 </r>
        <r>  0.0000  0.0006  0.0003  0.0000  0.0498  0.0041  0.1309  0.0235  0.0137 </r>
        <r>  0.0003  0.0001  0.0000  0.0008  0.0634  0.0000  0.1300  0.0502  0.0129 </r>
        <r>  0.0000  0.0005  0.0008  0.0000  0.0458  0.0023  0.0838  0.0277  0.0086 </r>
        <r>  0.0000  0.0011  0.0018  0.0001  0.0000  0.0000  0.0000  0.0000  0.0000 </r>
        <r>  0.0000  0.0011  0.0018  0.0001  0.0000  0.0000  0.0000  0.0000  0.0000 </r>
       </set>
       <set comment="band 13">
        <r>  0.0000  0.0007  0.0000  0.0002  0.0086  0.0547  0.0132  0.0176  0.1312 </r>
        <r>  0.0005  0.0002  0.0005  0.0002  0.0146  0.0875  0.0130  0.0409  0.1285 </r>
        <r>  0.0002  0.0001  0.0008  0.0000  0.0010  0.0643  0.0139  0.0413  0.1293 </r>
        <r>  0.0000  0.0004  0.0001  0.0009  0.0047  0.0482  0.0086  0.0228  0.0838 </r>
        <r>  0.0000  0.0009  0.0002  0.0019  0.0000  0.0000  0.0000  0.0000  0.0000 </r>
        <r>  0.0000  0.0009  0.0002  0.0019  0.0000  0.0000  0.0000  0.0000  0.0000 </r>
       </set>
       <set comment="band 14">
        <r>  0.0001  0.0000  0.0002  0.0001  0.0385  0.0314  0.1284  0.0005  0.0156 </r>
        <r>  0.0000  0.0000  0.0001  0.0000  0.0204  0.0051  0.0453  0.0051  0.0009 </r>
        <r>  0.0001  0.0004  0.0000  0.0001  0.0113  0.0269  0.0415  0.0712  0.1982 </r>
        <r>  0.0000  0.0001  0.0000  0.0000  0.0362  0.0048  0.0980  0.0670  0.0969 </r>
        <r>  0.0000  0.0006  0.0003  0.0000  0.0000  0.0000  0.0000  0.0000  0.0000 </r>
        <r>  0.0000  0.0006  0.0003  0.0000  0.0000  0.0000  0.0000  0.0000  0.0000 </r>
       </set>
       <set comment="band 15">
        <r>  0.0001  0.0001  0.0002  0.0000  0.0380  0.0004  0.1269  0.0314  0.0157 </r>
        <r>  0.0001  0.0001  0.0000  0.0004  0.0115  0.0714  0.0420  0.0268  0.1984 </r>
        <r>  0.0000  0.0000  0.0001  0.0000  0.0206  0.0050  0.0458  0.0053  0.0010 </r>
        <r>  0.0000  0.0000  0.0000  0.0001  0.0358  0.0672  0.0969  0.0050  0.0980 </r>
        <r>  0.0000  0.0000  0.0003  0.0006  0.0000  0.0000  0.0000  0.0000  0.0000 </r>
        <r>  0.0000  0.0000  0.0003  0.0006  0.0000  0.0000  0.0000  0.0000  0.0000 </r>
       </set>
       <set comment="band 16">
        <r>  0.0000  0.0001  0.0000  0.0001  0.0000  0.0416  0.0000  0.0416  0.2339 </r>
        <r>  0.0000  0.0001  0.0001  0.0000  0.0416  0.0000  0.1754  0.0416  0.0585 </r>
        <r>  0.0000  0.0000  0.0001  0.0001  0.0416  0.0416  0.1754  0.0000  0.0585 </r>
        <r>  0.0000  0.0000  0.0000  0.0000  0.0000  0.0000  0.0000  0.0000  0.0000 </r>
        <r>  0.0000  0.0000  0.0000  0.0000  0.0000  0.0000  0.0000  0.0000  0.0000 </r>
        <r>  0.0000  0.0000  0.0000  0.0000  0.0000  0.0000  0.0000  0.0000  0.0000 </r>
       </set>
       <set comment="band 17">
        <r>  0.0018  0.0000  0.0000  0.0001  0.0002  0.0555  0.0367  0.0585  0.0339 </r>
        <r>  0.0001  0.0002  0.0001  0.0000  0.0041  0.0000  0.2387  0.0019  0.1099 </r>
        <r>  0.0011  0.0000  0.0000  0.0002  0.0371  0.0318  0.0770  0.0001  0.1099 </r>
        <r>  0.0000  0.0001  0.0001  0.0000  0.0055  0.0003  0.1428  0.0033  0.0147 </r>
        <r>  0.0000  0.0019  0.0031  0.0002  0.0000  0.0000  0.0000  0.0000  0.0000 </r>
        <r>  0.0000  0.0019  0.0031  0.0002  0.0000  0.0000  0.0000  0.0000  0.0000 </r>
       </set>
       <set comment="band 18">
        <r>  0.0002  0.0002  0.0000  0.0001  0.0000  0.0075  0.0038  0.0044  0.3297 </r>
        <r>  0.0019  0.0000  0.0001  0.0000  0.0588  0.0002  0.0441  0.0610  0.0113 </r>
        <r>  0.0009  0.0000  0.0002  0.0000  0.0259  0.0312  0.2059  0.0001  0.0113 </r>
        <r>  0.0000  0.0001  0.0000  0.0001  0.0006  0.0057  0.0147  0.0027  0.1428 </r>
        <r>  0.0000  0.0016  0.0003  0.0033  0.0000  0.0000  0.0000  0.0000  0.0000 </r>
        <r>  0.0000  0.0016  0.0003  0.0033  0.0000  0.0000  0.0000  0.0000  0.0000 </r>
       </set>
       <set comment="band 19">
        <r>  0.0000  0.0002  0.0013  0.0002  0.0053  0.0124  0.2471  0.0124  0.0000 </r>
        <r>  0.0000  0.0002  0.0002  0.0013  0.0124  0.0053  0.0618  0.0124  0.1854 </r>
        <r>  0.0000  0.0013  0.0002  0.0002  0.0124  0.0124  0.0618  0.0053  0.1854 </r>
        <r>  0.0011  0.0009  0.0009  0.0009  0.0340  0.0340  0.0000  0.0340  0.0000 </r>
        <r>  0.0004  0.0029  0.0029  0.0029  0.0000  0.0000  0.0000  0.0000  0.0000 </r>
        <r>  0.0004  0.0029  0.0029  0.0029  0.0000  0.0000  0.0000  0.0000  0.0000 </r>
       </set>
       <set comment="band 20">
        <r>  0.0000  0.0000  0.0000  0.0000  0.0000  0.1206  0.0000  0.1206  0.0872 </r>
        <r>  0.0000  0.0000  0.0000  0.0000  0.1206  0.0000  0.0654  0.1206  0.0218 </r>
        <r>  0.0000  0.0000  0.0000  0.0000  0.1206  0.1206  0.0654  0.0000  0.0218 </r>
        <r>  0.0000  0.0000  0.0000  0.0000  0.0000  0.0000  0.0000  0.0000  0.0000 </r>
        <r>  0.0000  0.0000  0.0000  0.0000  0.0000  0.0000  0.0000  0.0000  0.0000 </r>
        <r>  0.0000  0.0000  0.0000  0.0000  0.0000  0.0000  0.0000  0.0000  0.0000 </r>
       </set>
       <set comment="band 21">
        <r>  0.0000  0.0006  0.0006  0.0013  0.1028  0.0276  0.0844  0.0036  0.0002 </r>
        <r>  0.0000  0.0007  0.0002  0.0000  0.0216  0.0053  0.0057  0.0394  0.0011 </r>
        <r>  0.0000  0.0003  0.0001  0.0014  0.0011  0.0428  0.0200  0.0613  0.0315 </r>
        <r>  0.0000  0.0001  0.0002  0.0000  0.1804  0.0093  0.1905  0.1077  0.0189 </r>
        <r>  0.0000  0.0034  0.0056  0.0003  0.0000  0.0000  0.0000  0.0000  0.0000 </r>
        <r>  0.0000  0.0034  0.0056  0.0003  0.0000  0.0000  0.0000  0.0000  0.0000 </r>
       </set>
       <set comment="band 22">
        <r>  0.0000  0.0008  0.0001  0.0001  0.0102  0.0178  0.0084  0.0418  0.0023 </r>
        <r>  0.0000  0.0007  0.0013  0.0006  0.0237  0.1076  0.0194  0.0060  0.0691 </r>
        <r>  0.0000  0.0003  0.0013  0.0000  0.0443  0.0025  0.0051  0.0516  0.0387 </r>
        <r>  0.0000  0.0001  0.0000  0.0002  0.0179  0.1889  0.0189  0.0906  0.1905 </r>
        <r>  0.0000  0.0028  0.0006  0.0059  0.0000  0.0000  0.0000  0.0000  0.0000 </r>
        <r>  0.0000  0.0028  0.0006  0.0059  0.0000  0.0000  0.0000  0.0000  0.0000 </r>
       </set>
       <set comment="band 23">
        <r>  0.0002  0.0003  0.0004  0.0002  0.0900  0.0001  0.0763  0.0631  0.0127 </r>
        <r>  0.0000  0.0000  0.0000  0.0000  0.0606  0.0001  0.0330  0.0645  0.0133 </r>
        <r>  0.0002  0.0004  0.0003  0.0002  0.0591  0.0000  0.0535  0.0959  0.0383 </r>
        <r>  0.0000  0.0000  0.0000  0.0000  0.0429  0.0000  0.1604  0.0457  0.0606 </r>
        <r>  0.0000  0.0026  0.0024  0.0000  0.0000  0.0000  0.0000  0.0000  0.0000 </r>
        <r>  0.0000  0.0026  0.0024  0.0000  0.0000  0.0000  0.0000  0.0000  0.0000 </r>
       </set>
       <set comment="band 24">
        <r>  0.0001  0.0001  0.0001  0.0001  0.0340  0.0824  0.0288  0.0194  0.0336 </r>
        <r>  0.0003  0.0003  0.0003  0.0005  0.0218  0.1239  0.0280  0.0180  0.0771 </r>
        <r>  0.0001  0.0001  0.0001  0.0001  0.0234  0.0825  0.0075  0.0281  0.0521 </r>
        <r>  0.0000  0.0000  0.0000  0.0000  0.0162  0.0590  0.0606  0.0134  0.1604 </r>
        <r>  0.0000  0.0007  0.0009  0.0033  0.0000  0.0000  0.0000  0.0000  0.0000 </r>
        <r>  0.0000  0.0007  0.0009  0.0033  0.0000  0.0000  0.0000  0.0000  0.0000 </r>
       </set>
       <set comment="band 25">
        <r>  0.0132  0.0008  0.0009  0.0008  0.0642  0.0442  0.0158  0.0442  0.0000 </r>
        <r>  0.0132  0.0008  0.0008  0.0009  0.0442  0.0642  0.0040  0.0442  0.0119 </r>
        <r>  0.0132  0.0009  0.0008  0.0008  0.0442  0.0442  0.0040  0.0642  0.0119 </r>
        <r>  0.0617  0.0027  0.0027  0.0027  0.0553  0.0553  0.0000  0.0553  0.0000 </r>
        <r>  0.0006  0.0184  0.0184  0.0184  0.0000  0.0000  0.0000  0.0000  0.0000 </r>
        <r>  0.0006  0.0184  0.0184  0.0184  0.0000  0.0000  0.0000  0.0000  0.0000 </r>
       </set>
       <set comment="band 26">
        <r>  0.0616  0.0002  0.0001  0.0012  0.1094  0.0816  0.0010  0.0019  0.0028 </r>
        <r>  0.0587  0.0002  0.0012  0.0001  0.0846  0.1043  0.0011  0.0010  0.0030 </r>
        <r>  0.0000  0.0000  0.0005  0.0004  0.0651  0.0612  0.0089  0.0001  0.0031 </r>
        <r>  0.0000  0.0000  0.0009  0.0009  0.0790  0.0754  0.0035  0.0001  0.0010 </r>
        <r>  0.0000  0.0000  0.0232  0.0221  0.0000  0.0000  0.0000  0.0000  0.0000 </r>
        <r>  0.0000  0.0000  0.0232  0.0221  0.0000  0.0000  0.0000  0.0000  0.0000 </r>
       </set>
       <set comment="band 27">
        <r>  0.0187  0.0010  0.0000  0.0000  0.0331  0.0168  0.0003  0.0966  0.0092 </r>
        <r>  0.0215  0.0011  0.0000  0.0000  0.0139  0.0382  0.0082  0.0975  0.0009 </r>
        <r>  0.0802  0.0001  0.0008  0.0008  0.0334  0.0373  0.0004  0.1425  0.0009 </r>
        <r>  0.0000  0.0012  0.0003  0.0003  0.0239  0.0276  0.0010  0.1029  0.0035 </r>
        <r>  0.0000  0.0302  0.0070  0.0081  0.0000  0.0000  0.0000  0.0000  0.0000 </r>
        <r>  0.0000  0.0302  0.0070  0.0081  0.0000  0.0000  0.0000  0.0000  0.0000 </r>
       </set>
       <set comment="band 28">
        <r>  0.0075  0.0000  0.0002  0.0000  0.0654  0.0720  0.0019  0.0720  0.0000 </r>
        <r>  0.0075  0.0000  0.0000  0.0002  0.0720  0.0654  0.0005  0.0720  0.0015 </r>
        <r>  0.0075  0.0002  0.0000  0.0000  0.0720  0.0720  0.0005  0.0654  0.0015 </r>
        <r>  0.0098  0.0007  0.0007  0.0007  0.0871  0.0871  0.0000  0.0871  0.0000 </r>
        <r>  0.0086  0.0049  0.0049  0.0049  0.0000  0.0000  0.0000  0.0000  0.0000 </r>
        <r>  0.0086  0.0049  0.0049  0.0049  0.0000  0.0000  0.0000  0.0000  0.0000 </r>
       </set>
       <set comment="band 29">
        <r>  0.0117  0.0134  0.0338  0.0134  0.0014  0.0101  0.0002  0.0101  0.0000 </r>
        <r>  0.0117  0.0134  0.0134  0.0338  0.0101  0.0014  0.0000  0.0101  0.0001 </r>
        <r>  0.0117  0.0338  0.0134  0.0134  0.0101  0.0101  0.0000  0.0014  0.0001 </r>
        <r>  0.0282  0.0003  0.0003  0.0003  0.0087  0.0087  0.0000  0.0087  0.0000 </r>
        <r>  0.0111  0.0263  0.0263  0.0263  0.0000  0.0000  0.0000  0.0000  0.0000 </r>
        <r>  0.0111  0.0263  0.0263  0.0263  0.0000  0.0000  0.0000  0.0000  0.0000 </r>
       </set>
       <set comment="band 30">
        <r>  0.0008  0.0000  0.0135  0.0004  0.0004  0.0077  0.0002  0.0069  0.0000 </r>
        <r>  0.0002  0.0300  0.0342  0.0039  0.0072  0.0001  0.0001  0.0001  0.0002 </r>
        <r>  0.0002  0.0029  0.0376  0.0339  0.0064  0.0000  0.0001  0.0001  0.0002 </r>
        <r>  0.0000  0.0130  0.0613  0.0179  0.0000  0.0000  0.0002  0.0000  0.0000 </r>
        <r>  0.0000  0.0127  0.0599  0.0175  0.0000  0.0000  0.0000  0.0000  0.0000 </r>
        <r>  0.0000  0.0127  0.0599  0.0175  0.0000  0.0000  0.0000  0.0000  0.0000 </r>
       </set>
       <set comment="band 31">
        <r>  0.0000  0.0454  0.0000  0.0449  0.0000  0.0018  0.0000  0.0025  0.0004 </r>
        <r>  0.0006  0.0154  0.0112  0.0096  0.0022  0.0003  0.0002  0.0094  0.0000 </r>
        <r>  0.0007  0.0107  0.0078  0.0115  0.0030  0.0094  0.0002  0.0003  0.0000 </r>
        <r>  0.0000  0.0485  0.0001  0.0435  0.0000  0.0000  0.0000  0.0000  0.0002 </r>
        <r>  0.0000  0.0474  0.0001  0.0425  0.0000  0.0000  0.0000  0.0000  0.0000 </r>
        <r>  0.0000  0.0474  0.0001  0.0425  0.0000  0.0000  0.0000  0.0000  0.0000 </r>
       </set>
       <set comment="band 32">
        <r>  0.0090  0.0004  0.0096  0.0004  0.0180  0.0005  0.0151  0.0005  0.0000 </r>
        <r>  0.0090  0.0004  0.0004  0.0096  0.0005  0.0180  0.0038  0.0005  0.0113 </r>
        <r>  0.0090  0.0096  0.0004  0.0004  0.0005  0.0005  0.0038  0.0180  0.0113 </r>
        <r>  0.1430  0.0019  0.0019  0.0019  0.0383  0.0383  0.0000  0.0383  0.0000 </r>
        <r>  0.0188  0.0217  0.0217  0.0217  0.0000  0.0000  0.0000  0.0000  0.0000 </r>
        <r>  0.0188  0.0217  0.0217  0.0217  0.0000  0.0000  0.0000  0.0000  0.0000 </r>
       </set>
       <set comment="band 33">
        <r>  0.0163  0.0007  0.0013  0.0000  0.0040  0.0217  0.0003  0.0002  0.0127 </r>
        <r>  0.0484  0.0014  0.0004  0.0038  0.0362  0.0119  0.0092  0.0049  0.0005 </r>
        <r>  0.1195  0.0094  0.0019  0.0022  0.0467  0.0370  0.0015  0.0293  0.0009 </r>
        <r>  0.0000  0.0031  0.0004  0.0012  0.0012  0.0036  0.0012  0.0088  0.0078 </r>
        <r>  0.0000  0.0683  0.0093  0.0277  0.0000  0.0000  0.0000  0.0000  0.0000 </r>
        <r>  0.0000  0.0683  0.0093  0.0277  0.0000  0.0000  0.0000  0.0000  0.0000 </r>
       </set>
       <set comment="band 34">
        <r>  0.1065  0.0015  0.0083  0.0022  0.0261  0.0272  0.0017  0.0488  0.0019 </r>
        <r>  0.0744  0.0008  0.0018  0.0058  0.0127  0.0182  0.0024  0.0440  0.0046 </r>
        <r>  0.0033  0.0003  0.0003  0.0000  0.0022  0.0119  0.0100  0.0008  0.0043 </r>
        <r>  0.0000  0.0001  0.0027  0.0019  0.0078  0.0055  0.0078  0.0002  0.0012 </r>
        <r>  0.0000  0.0019  0.0609  0.0425  0.0000  0.0000  0.0000  0.0000  0.0000 </r>
        <r>  0.0000  0.0019  0.0609  0.0425  0.0000  0.0000  0.0000  0.0000  0.0000 </r>
       </set>
       <set comment="band 35">
        <r>  0.0013  0.0119  0.0080  0.0119  0.0044  0.0000  0.0000  0.0000  0.0000 </r>
        <r>  0.0013  0.0119  0.0119  0.0080  0.0000  0.0044  0.0000  0.0000  0.0000 </r>
        <r>  0.0013  0.0080  0.0119  0.0119  0.0000  0.0000  0.0000  0.0044  0.0000 </r>
        <r>  0.0379  0.0095  0.0095  0.0095  0.0060  0.0060  0.0000  0.0060  0.0000 </r>
        <r>  0.0341  0.0120  0.0120  0.0120  0.0000  0.0000  0.0000  0.0000  0.0000 </r>
        <r>  0.0341  0.0120  0.0120  0.0120  0.0000  0.0000  0.0000  0.0000  0.0000 </r>
       </set>
       <set comment="band 36">
        <r>  0.1320  0.0048  0.0076  0.0048  0.0015  0.0007  0.0001  0.0007  0.0000 </r>
        <r>  0.1320  0.0048  0.0048  0.0076  0.0007  0.0015  0.0000  0.0007  0.0001 </r>
        <r>  0.1320  0.0076  0.0048  0.0048  0.0007  0.0007  0.0000  0.0015  0.0001 </r>
        <r>  0.1060  0.0008  0.0008  0.0008  0.0019  0.0019  0.0000  0.0019  0.0000 </r>
        <r>  0.0584  0.0065  0.0065  0.0065  0.0000  0.0000  0.0000  0.0000  0.0000 </r>
        <r>  0.0584  0.0065  0.0065  0.0065  0.0000  0.0000  0.0000  0.0000  0.0000 </r>
       </set>
      </set>
     </set>
    </set>
   </array>
  </projected>
 </calculation>
 <structure name="finalpos" >
  <crystal>
   <varray name="basis" >
    <v>       4.24669932       0.00000000       0.00000000 </v>
    <v>      -0.00000000       4.24669932       0.00000000 </v>
    <v>       0.00000000       0.00000000       4.24669932 </v>
   </varray>
   <i name="volume">     76.58690827 </i>
   <varray name="rec_basis" >
    <v>       0.23547700       0.00000000       0.00000000 </v>
    <v>       0.00000000       0.23547700       0.00000000 </v>
    <v>      -0.00000000      -0.00000000       0.23547700 </v>
   </varray>
  </crystal>
  <varray name="positions" >
   <v>       0.50000000       0.50000000       0.00000000 </v>
   <v>       0.00000000       0.50000000       0.50000000 </v>
   <v>       0.50000000       0.00000000       0.50000000 </v>
   <v>       0.00000000       0.00000000       0.00000000 </v>
   <v>       0.75000000       0.75000000       0.75000000 </v>
   <v>       0.25000000       0.25000000       0.25000000 </v>
  </varray>
 </structure>
</modeling>
