 vasp.6.4.2 20Jul23 (build Mar 15 2024 16:31:38) complex                        
  
 executed on             LinuxIFC date 2025.03.19  15:34:52
 running  120 mpi-ranks, on    3 nodes
 distrk:  each k-point on  120 cores,    1 groups
 distr:  one band on NCORE=  10 cores,   12 groups


--------------------------------------------------------------------------------------------------------


 INCAR:
   ALGO = Fast
   CSHIFT = 1e-05
   EDIFF = 1e-05
   ENAUG = 1360
   ENCUT = 680
   GGA = Ps
   ICHARG = 11
   ISMEAR = -5
   ISPIN = 1
   ISYM = 2
   LAECHG = True
   LASPH = True
   LCHARG = False
   LELF = False
   LMAXMIX = 4
   LMIXTAU = True
   LOPTICS = True
   LORBIT = 11
   LREAL = False
   LVTOT = True
   LWAVE = True
   NBANDS = 87
   NCORE = 10
   NEDOS = 2000
   NELM = 200
   NSW = 0
   PREC = Accurate
   SIGMA = 0.05

 POTCAR:    PAW_PBE Cu 22Jun2005                  
 POTCAR:    PAW_PBE Sb 06Sep2000                  
 POTCAR:    PAW_PBE S 06Sep2000                   
 WARNING: For LVTOT=.TRUE., VASP.5.x writes the TOTAL local potential to the
     file LOCPOT. If you want only the Hartree contributions, use LVHAR=.TRUE.
     instead. 

 POTCAR:    PAW_PBE Cu 22Jun2005                  
   VRHFIN =Cu: d10 p1                                                                               
   LEXCH  = PE                                                                                      
   EATOM  =  1390.9808 eV,  102.2342 Ry                                                             
                                                                                                    
   TITEL  = PAW_PBE Cu 22Jun2005                                                                    
   LULTRA =        F    use ultrasoft PP ?                                                          
   IUNSCR =        1    unscreen: 0-lin 1-nonlin 2-no                                               
   RPACOR =    2.000    partial core radius                                                         
   POMASS =   63.546; ZVAL   =   11.000    mass and valenz                                          
   RCORE  =    2.300    outmost cutoff radius                                                       
   RWIGS  =    2.200; RWIGS  =    1.164    wigner-seitz radius (au A)                               
   ENMAX  =  295.446; ENMIN  =  221.585 eV                                                          
   ICORE  =        3    local potential                                                             
   LCOR   =        T    correct aug charges                                                         
   LPAW   =        T    paw PP                                                                      
   EAUG   =  586.980                                                                                
   DEXC   =    0.000                                                                                
   RMAX   =    2.344    core radius for proj-oper                                                   
   RAUG   =    1.300    factor for augmentation sphere                                              
   RDEP   =    2.302    radius for radial grids                                                     
   RDEPT  =    1.771    core radius for aug-charge                                                  
                                                                                                    
   Atomic configuration                                                                             
    9 entries                                                                                       
     n  l   j            E        occ.                                                              
     1  0  0.50     -8850.2468   2.0000                                                             
     2  0  0.50     -1062.3498   2.0000                                                             
     2  1  1.50      -916.8226   6.0000                                                             
     3  0  0.50      -114.6929   2.0000                                                             
     3  1  1.50       -72.1325   6.0000                                                             
     3  2  2.50        -5.0394  10.0000                                                             
     4  0  0.50        -4.6097   1.0000                                                             
     4  1  0.50        -4.0817   0.0000                                                             
     4  3  2.50        -1.3606   0.0000                                                             
   Description                                                                                      
     l       E           TYP  RCUT    TYP  RCUT                                                     
     2     -5.0393973     23  2.200                                                                 
     2     10.8846608     23  2.200                                                                 
     0     -4.6097109     23  2.200                                                                 
     0      8.2520465     23  2.200                                                                 
     1     -2.7211652     23  2.200                                                                 
     1     21.7055443     23  2.200                                                                 
     3      2.7211652     23  2.300                                                                 
  local pseudopotential read in
  partial core-charges read in
  partial kinetic energy density read in
  atomic valenz-charges read in
  non local Contribution for L=           2  read in
    real space projection operators read in
  non local Contribution for L=           2  read in
    real space projection operators read in
  non local Contribution for L=           0  read in
    real space projection operators read in
  non local Contribution for L=           0  read in
    real space projection operators read in
  non local Contribution for L=           1  read in
    real space projection operators read in
  non local Contribution for L=           1  read in
    real space projection operators read in
    PAW grid and wavefunctions read in
 
   number of l-projection  operators is LMAX  =           6
   number of lm-projection operators is LMMAX =          18
 
 POTCAR:    PAW_PBE Sb 06Sep2000                  
   VRHFIN =Sb: s2p3                                                                                 
   LEXCH  = PE                                                                                      
   EATOM  =   149.9515 eV,   11.0211 Ry                                                             
                                                                                                    
   TITEL  = PAW_PBE Sb 06Sep2000                                                                    
   LULTRA =        F    use ultrasoft PP ?                                                          
   IUNSCR =        1    unscreen: 0-lin 1-nonlin 2-no                                               
   RPACOR =    2.200    partial core radius                                                         
   POMASS =  121.750; ZVAL   =    5.000    mass and valenz                                          
   RCORE  =    2.300    outmost cutoff radius                                                       
   RWIGS  =    2.980; RWIGS  =    1.577    wigner-seitz radius (au A)                               
   ENMAX  =  172.069; ENMIN  =  129.052 eV                                                          
   ICORE  =        3    local potential                                                             
   LCOR   =        T    correct aug charges                                                         
   LPAW   =        T    paw PP                                                                      
   EAUG   =  380.513                                                                                
   DEXC   =    0.000                                                                                
   RMAX   =    2.346    core radius for proj-oper                                                   
   RAUG   =    1.300    factor for augmentation sphere                                              
   RDEP   =    2.360    radius for radial grids                                                     
   RDEPT  =    2.192    core radius for aug-charge                                                  
                                                                                                    
   Atomic configuration                                                                             
   13 entries                                                                                       
     n  l   j            E        occ.                                                              
     1  0  0.50    -30298.2797   2.0000                                                             
     2  0  0.50     -4610.2252   2.0000                                                             
     2  1  1.50     -4138.3407   6.0000                                                             
     3  0  0.50      -903.8815   2.0000                                                             
     3  1  1.50      -750.1337   6.0000                                                             
     3  2  2.50      -515.7092  10.0000                                                             
     4  0  0.50      -148.8034   2.0000                                                             
     4  1  1.50      -101.7581   6.0000                                                             
     4  2  2.50       -33.5048  10.0000                                                             
     5  0  0.50       -12.8298   2.0000                                                             
     5  1  0.50        -4.8276   3.0000                                                             
     5  2  1.50        -4.0817   0.0000                                                             
     4  3  2.50        -4.0817   0.0000                                                             
   Description                                                                                      
     l       E           TYP  RCUT    TYP  RCUT                                                     
     0    -12.8297861     23  2.300                                                                 
     0     13.6058260     23  2.300                                                                 
     1     -4.8275512     23  2.300                                                                 
     1     -0.7245443     23  2.300                                                                 
     2     -4.0817478     23  2.300                                                                 
     3     -1.3605826     23  2.300                                                                 
  local pseudopotential read in
  partial core-charges read in
  partial kinetic energy density read in
  atomic valenz-charges read in
  non local Contribution for L=           0  read in
    real space projection operators read in
  non local Contribution for L=           0  read in
    real space projection operators read in
  non local Contribution for L=           1  read in
    real space projection operators read in
  non local Contribution for L=           1  read in
    real space projection operators read in
  non local Contribution for L=           2  read in
    real space projection operators read in
    PAW grid and wavefunctions read in
 
   number of l-projection  operators is LMAX  =           5
   number of lm-projection operators is LMMAX =          13
 
 POTCAR:    PAW_PBE S 06Sep2000                   
   VRHFIN =S : s2p4                                                                                 
   LEXCH  = PE                                                                                      
   EATOM  =   276.8230 eV,   20.3459 Ry                                                             
                                                                                                    
   TITEL  = PAW_PBE S 06Sep2000                                                                     
   LULTRA =        F    use ultrasoft PP ?                                                          
   IUNSCR =        1    unscreen: 0-lin 1-nonlin 2-no                                               
   RPACOR =    1.500    partial core radius                                                         
   POMASS =   32.066; ZVAL   =    6.000    mass and valenz                                          
   RCORE  =    1.900    outmost cutoff radius                                                       
   RWIGS  =    2.200; RWIGS  =    1.164    wigner-seitz radius (au A)                               
   ENMAX  =  258.689; ENMIN  =  194.016 eV                                                          
   ICORE  =        2    local potential                                                             
   LCOR   =        T    correct aug charges                                                         
   LPAW   =        T    paw PP                                                                      
   EAUG   =  335.092                                                                                
   DEXC   =    0.000                                                                                
   RMAX   =    1.942    core radius for proj-oper                                                   
   RAUG   =    1.300    factor for augmentation sphere                                              
   RDEP   =    1.954    radius for radial grids                                                     
   RDEPT  =    1.744    core radius for aug-charge                                                  
                                                                                                    
   Atomic configuration                                                                             
    6 entries                                                                                       
     n  l   j            E        occ.                                                              
     1  0  0.50     -2405.8406   2.0000                                                             
     2  0  0.50      -211.7007   2.0000                                                             
     2  1  1.50      -156.4958   6.0000                                                             
     3  0  0.50       -17.2562   2.0000                                                             
     3  1  0.50        -7.0085   4.0000                                                             
     3  2  1.50        -6.8029   0.0000                                                             
   Description                                                                                      
     l       E           TYP  RCUT    TYP  RCUT                                                     
     0    -17.2561641     23  1.900                                                                 
     0    -15.8743224     23  1.900                                                                 
     1     -7.0085400     23  1.900                                                                 
     1     -2.7779785     23  1.900                                                                 
     2     -6.8029130     23  1.900                                                                 
  local pseudopotential read in
  partial core-charges read in
  partial kinetic energy density read in
  atomic valenz-charges read in
  non local Contribution for L=           0  read in
    real space projection operators read in
  non local Contribution for L=           0  read in
    real space projection operators read in
  non local Contribution for L=           1  read in
    real space projection operators read in
  non local Contribution for L=           1  read in
    real space projection operators read in
    PAW grid and wavefunctions read in
 
   number of l-projection  operators is LMAX  =           4
   number of lm-projection operators is LMMAX =           8
 
 -----------------------------------------------------------------------------
|                                                                             |
|               ----> ADVICE to this user running VASP <----                  |
|                                                                             |
|     You enforced a specific xc type in the INCAR file but a different       |
|     type was found in the POTCAR file.                                      |
|     I HOPE YOU KNOW WHAT YOU ARE DOING!                                     |
|                                                                             |
 -----------------------------------------------------------------------------

  PAW_PBE Cu 22Jun2005                  :
 energy of atom  1       EATOM=-1390.9808
 kinetic energy error for atom=    0.0018 (will be added to EATOM!!)
  PAW_PBE Sb 06Sep2000                  :
 energy of atom  2       EATOM= -149.9515
 kinetic energy error for atom=    0.0002 (will be added to EATOM!!)
  PAW_PBE S 06Sep2000                   :
 energy of atom  3       EATOM= -276.8230
 kinetic energy error for atom=    0.0008 (will be added to EATOM!!)
 
 
 POSCAR: Cu4 Sb4 S8
  positions in direct lattice
  No initial velocities read in
 exchange correlation table for  LEXCH =       14
   RHO(1)=    0.500       N(1)  =     2000
   RHO(2)=  100.500       N(2)  =     4000
 


--------------------------------------------------------------------------------------------------------


 ion  position               nearest neighbor table
   1  0.250  0.250  0.828-  14 2.28  16 2.30  12 2.31  12 2.31
   2  0.250  0.750  0.672-  16 2.28  14 2.30  10 2.31  10 2.31
   3  0.750  0.750  0.172-  15 2.28  13 2.30  11 2.31  11 2.31
   4  0.750  0.250  0.328-  13 2.28  15 2.30   9 2.31   9 2.31
   5  0.250  0.729  0.435-   9 2.45  13 2.59  13 2.59  10 3.18  10 3.18
   6  0.750  0.271  0.565-  10 2.45  16 2.59  16 2.59   9 3.18   9 3.18
   7  0.250  0.229  0.065-  11 2.45  15 2.59  15 2.59  12 3.18  12 3.18
   8  0.750  0.771  0.935-  12 2.45  14 2.59  14 2.59  11 3.18  11 3.18
   9  0.250  0.124  0.401-   4 2.31   4 2.31   5 2.45   6 3.18   6 3.18
  10  0.750  0.876  0.599-   2 2.31   2 2.31   6 2.45   5 3.18   5 3.18
  11  0.250  0.624  0.099-   3 2.31   3 2.31   7 2.45   8 3.18   8 3.18
  12  0.750  0.376  0.901-   1 2.31   1 2.31   8 2.45   7 3.18   7 3.18
  13  0.750  0.624  0.322-   4 2.28   3 2.30   5 2.59   5 2.59
  14  0.250  0.876  0.822-   1 2.28   2 2.30   8 2.59   8 2.59
  15  0.750  0.124  0.178-   3 2.28   4 2.30   7 2.59   7 2.59
  16  0.250  0.376  0.678-   2 2.28   1 2.30   6 2.59   6 2.59
 
  LATTYP: Found a simple orthorhombic cell.
 ALAT       =     3.8015747400
 B/A-ratio  =     1.5978432559
 C/A-ratio  =     3.8120414489
  
  Lattice vectors:
  
 A1 = (   3.8015747400,   0.0000000000,   0.0000000000)
 A2 = (  -0.0000000000,   6.0743205600,   0.0000000000)
 A3 = (   0.0000000000,   0.0000000000,  14.4917604800)


Analysis of symmetry for initial positions (statically):
=====================================================================
 Subroutine PRICEL returns:
 Original cell was already a primitive cell.
 

 Routine SETGRP: Setting up the symmetry group for a 
 simple orthorhombic supercell.


 Subroutine GETGRP returns: Found  8 space group operations
 (whereof  2 operations were pure point group operations)
 out of a pool of  8 trial point group operations.


The static configuration has the point symmetry S_2 .
 The point group associated with its full space group is D_2h.


Analysis of symmetry for dynamics (positions and initial velocities):
=====================================================================
 Subroutine PRICEL returns:
 Original cell was already a primitive cell.
 

 Routine SETGRP: Setting up the symmetry group for a 
 simple orthorhombic supercell.


 Subroutine GETGRP returns: Found  8 space group operations
 (whereof  2 operations were pure point group operations)
 out of a pool of  8 trial point group operations.


The dynamic configuration has the point symmetry S_2 .
 The point group associated with its full space group is D_2h.


 Subroutine INISYM returns: Found  8 space group operations
 (whereof  2 operations are pure point group operations),
 and found     1 'primitive' translations


----------------------------------------------------------------------------------------

                                     Primitive cell                                     

  volume of cell :     334.6435

  direct lattice vectors                    reciprocal lattice vectors
     3.801574740  0.000000000  0.000000000     0.263048886  0.000000000  0.000000000
    -0.000000000  6.074320560  0.000000000     0.000000000  0.164627466  0.000000000
     0.000000000  0.000000000 14.491760480    -0.000000000 -0.000000000  0.069004729

  length of vectors
     3.801574740  6.074320560 14.491760480     0.263048886  0.164627466  0.069004729

  position of ions in fractional coordinates (direct lattice)
     0.250000000  0.250101620  0.828218420
     0.250000000  0.750101620  0.671781580
     0.750000000  0.749898380  0.171781580
     0.750000000  0.249898380  0.328218420
     0.250000000  0.728812000  0.434587410
     0.750000000  0.271188000  0.565412590
     0.250000000  0.228812000  0.065412590
     0.750000000  0.771188000  0.934587410
     0.250000000  0.123685860  0.401045160
     0.750000000  0.876314140  0.598954840
     0.250000000  0.623685860  0.098954840
     0.750000000  0.376314140  0.901045160
     0.750000000  0.624272650  0.321577210
     0.250000000  0.875727350  0.821577210
     0.750000000  0.124272650  0.178422790
     0.250000000  0.375727350  0.678422790

  ion indices of the primitive-cell ions
   primitive index   ion index
                 1           1
                 2           2
                 3           3
                 4           4
                 5           5
                 6           6
                 7           7
                 8           8
                 9           9
                10          10
                11          11
                12          12
                13          13
                14          14
                15          15
                16          16

----------------------------------------------------------------------------------------

 
 
 KPOINTS: pymatgen with grid density = 1186 / numb

Automatic generation of k-mesh.
 Grid dimensions read from file:
 generate k-points for:    7    4    2

 Generating k-lattice:

  Cartesian coordinates                     Fractional coordinates (reciprocal lattice)
     0.037578412  0.000000000  0.000000000     0.142857143 -0.000000000  0.000000000
     0.000000000  0.041156866  0.000000000     0.000000000  0.250000000  0.000000000
    -0.000000000 -0.000000000  0.034502364     0.000000000 -0.000000000  0.500000000

  Length of vectors
     0.037578412  0.041156866  0.034502364

  Shift w.r.t. Gamma in fractional coordinates (k-lattice)
     0.000000000  0.000000000  0.000000000

 TETIRR: Found    168 inequivalent tetrahedra from      336
 
 Subroutine IBZKPT returns following result:
 ===========================================
 
 Found     24 irreducible k-points:
 
 Following reciprocal coordinates:
            Coordinates               Weight
  0.000000  0.000000  0.000000      1.000000
  0.142857 -0.000000  0.000000      2.000000
  0.285714  0.000000  0.000000      2.000000
  0.428571 -0.000000  0.000000      2.000000
  0.000000  0.250000  0.000000      2.000000
  0.142857  0.250000  0.000000      4.000000
  0.285714  0.250000  0.000000      4.000000
  0.428571  0.250000  0.000000      4.000000
  0.000000  0.500000  0.000000      1.000000
  0.142857  0.500000  0.000000      2.000000
  0.285714  0.500000  0.000000      2.000000
  0.428571  0.500000  0.000000      2.000000
  0.000000  0.000000  0.500000      1.000000
  0.142857  0.000000  0.500000      2.000000
  0.285714 -0.000000  0.500000      2.000000
  0.428571 -0.000000  0.500000      2.000000
  0.000000  0.250000  0.500000      2.000000
  0.142857  0.250000  0.500000      4.000000
  0.285714  0.250000  0.500000      4.000000
  0.428571  0.250000  0.500000      4.000000
  0.000000  0.500000  0.500000      1.000000
  0.142857  0.500000  0.500000      2.000000
  0.285714  0.500000  0.500000      2.000000
  0.428571  0.500000  0.500000      2.000000
 
 Following cartesian coordinates:
            Coordinates               Weight
  0.000000  0.000000  0.000000      1.000000
  0.037578  0.000000  0.000000      2.000000
  0.075157  0.000000  0.000000      2.000000
  0.112735  0.000000  0.000000      2.000000
  0.000000  0.041157  0.000000      2.000000
  0.037578  0.041157  0.000000      4.000000
  0.075157  0.041157  0.000000      4.000000
  0.112735  0.041157  0.000000      4.000000
  0.000000  0.082314  0.000000      1.000000
  0.037578  0.082314  0.000000      2.000000
  0.075157  0.082314  0.000000      2.000000
  0.112735  0.082314  0.000000      2.000000
 -0.000000 -0.000000  0.034502      1.000000
  0.037578  0.000000  0.034502      2.000000
  0.075157  0.000000  0.034502      2.000000
  0.112735  0.000000  0.034502      2.000000
 -0.000000  0.041157  0.034502      2.000000
  0.037578  0.041157  0.034502      4.000000
  0.075157  0.041157  0.034502      4.000000
  0.112735  0.041157  0.034502      4.000000
 -0.000000  0.082314  0.034502      1.000000
  0.037578  0.082314  0.034502      2.000000
  0.075157  0.082314  0.034502      2.000000
  0.112735  0.082314  0.034502      2.000000
 
 -----------------------------------------------------------------------------
|                                                                             |
|           W    W    AA    RRRRR   N    N  II  N    N   GGGG   !!!           |
|           W    W   A  A   R    R  NN   N  II  NN   N  G    G  !!!           |
|           W    W  A    A  R    R  N N  N  II  N N  N  G       !!!           |
|           W WW W  AAAAAA  RRRRR   N  N N  II  N  N N  G  GGG   !            |
|           WW  WW  A    A  R   R   N   NN  II  N   NN  G    G                |
|           W    W  A    A  R    R  N    N  II  N    N   GGGG   !!!           |
|                                                                             |
|     The number of bands has been changed from the values supplied in        |
|     the INCAR file. This is a result of running the parallel version.       |
|     The orbitals not found in the WAVECAR file will be initialized with     |
|     random numbers, which is usually adequate. For correlated               |
|     calculations, however, you should redo the groundstate calculation.     |
|     I found NBANDS = 87. Now, NBANDS = 96.                                  |
|                                                                             |
 -----------------------------------------------------------------------------



--------------------------------------------------------------------------------------------------------




 Dimension of arrays:
   k-points           NKPTS =     24   k-points in BZ     NKDIM =     24   number of bands    NBANDS=     96
   number of dos      NEDOS =   2000   number of ions     NIONS =     16
   non local maximal  LDIM  =      6   non local SUM 2l+1 LMDIM =     18
   total plane-waves  NPLWV = 217728
   max r-space proj   IRMAX =      1   max aug-charges    IRDMAX=  36303
   dimension x,y,z NGX =    32 NGY =   54 NGZ =  126
   dimension x,y,z NGXF=    64 NGYF=  108 NGZF=  252
   support grid    NGXF=    64 NGYF=  108 NGZF=  252
   ions per type =               4   4   8
   NGX,Y,Z   is equivalent  to a cutoff of  13.99, 14.78, 14.45 a.u.
   NGXF,Y,Z  is equivalent  to a cutoff of  27.99, 29.56, 28.91 a.u.

 SYSTEM =  unknown system                          
 POSCAR =  Cu4 Sb4 S8                              

 Startparameter for this run:
   NWRITE =      2    write-flag & timer
   PREC   = accura    normal or accurate (medium, high low for compatibility)
   ISTART =      0    job   : 0-new  1-cont  2-samecut
   ICHARG =     11    charge: 1-file 2-atom 10-const
   ISPIN  =      1    spin polarized calculation?
   LNONCOLLINEAR =      F non collinear calculations
   LSORBIT =      F    spin-orbit coupling
   INIWAV =      1    electr: 0-lowe 1-rand  2-diag
   LASPH  =      T    aspherical Exc in radial PAW
 Electronic Relaxation 1
   ENCUT  =  680.0 eV  49.98 Ry    7.07 a.u.   8.08 12.92 30.81*2*pi/ulx,y,z
   ENINI  =  680.0     initial cutoff
   ENAUG  = 1360.0 eV  augmentation charge cutoff
   NELM   =    200;   NELMIN=  2; NELMDL= -5     # of ELM steps 
   EDIFF  = 0.1E-04   stopping-criterion for ELM
   LREAL  =      F    real-space projection
   NLSPLINE    = F    spline interpolate recip. space projectors
   LCOMPAT=      F    compatible to vasp.4.4
   GGA_COMPAT  = T    GGA compatible to vasp.4.4-vasp.4.6
   LMAXPAW     = -100 max onsite density
   LMAXMIX     =    4 max onsite mixed and CHGCAR
   VOSKOWN=      0    Vosko Wilk Nusair interpolation
   ROPT   =    0.00000   0.00000   0.00000
 Ionic relaxation
   EDIFFG = 0.1E-03   stopping-criterion for IOM
   NSW    =      0    number of steps for IOM
   NBLOCK =      1;   KBLOCK =      1    inner block; outer block 
   IBRION =     -1    ionic relax: 0-MD 1-quasi-New 2-CG
   NFREE  =      0    steps in history (QN), initial steepest desc. (CG)
   ISIF   =      2    stress and relaxation
   IWAVPR =     10    prediction:  0-non 1-charg 2-wave 3-comb
   ISYM   =      2    0-nonsym 1-usesym 2-fastsym
   LCORR  =      T    Harris-Foulkes like correction to forces

   POTIM  = 0.5000    time-step for ionic-motion
   TEIN   =    0.0    initial temperature
   TEBEG  =    0.0;   TEEND  =   0.0 temperature during run
   SMASS  =  -3.00    Nose mass-parameter (am)
   estimated Nose-frequenzy (Omega)   =  0.10E-29 period in steps = 0.13E+47 mass=  -0.330E-27a.u.
   SCALEE = 1.0000    scale energy and forces
   NPACO  =    256;   APACO  = 10.0  distance and # of slots for P.C.
   PSTRESS=    0.0 pullay stress

  Mass of Ions in am
   POMASS =  63.55121.75 32.07
  Ionic Valenz
   ZVAL   =  11.00  5.00  6.00
  Atomic Wigner-Seitz radii
   RWIGS  =  -1.00 -1.00 -1.00
  virtual crystal weights 
   VCA    =   1.00  1.00  1.00
   NELECT =     112.0000    total number of electrons
   NUPDOWN=      -1.0000    fix difference up-down

 DOS related values:
   EMIN   =  10.00;   EMAX   =-10.00  energy-range for DOS
   EFERMI =   0.00;   METHOD = LEGACY      
   ISMEAR =    -5;   SIGMA  =   0.05  broadening in eV -4-tet -1-fermi 0-gaus

 Electronic relaxation 2 (details)
   IALGO  =     68    algorithm
   LDIAG  =      T    sub-space diagonalisation (order eigenvalues)
   LSUBROT=      F    optimize rotation matrix (better conditioning)
   TURBO    =      0    0=normal 1=particle mesh
   IRESTART =      0    0=no restart 2=restart with 2 vectors
   NREBOOT  =      0    no. of reboots
   NMIN     =      0    reboot dimension
   EREF     =   0.00    reference energy to select bands
   IMIX   =      4    mixing-type and parameters
     AMIX     =   0.40;   BMIX     =  1.00
     AMIX_MAG =   1.60;   BMIX_MAG =  1.00
     AMIN     =   0.10
     WC   =   100.;   INIMIX=   1;  MIXPRE=   1;  MAXMIX= -45

 Intra band minimization:
   WEIMIN = 0.0000     energy-eigenvalue tresh-hold
   EBREAK =  0.26E-07  absolut break condition
   DEPER  =   0.30     relativ break condition  

   TIME   =   0.40     timestep for ELM

  volume/ion in A,a.u.               =      20.92       141.14
  Fermi-wavevector in a.u.,A,eV,Ry     =   1.136632  2.147924 17.577819  1.291933
  Thomas-Fermi vector in A             =   2.273338
 
 Write flags
   LWAVE        =      T    write WAVECAR
   LDOWNSAMPLE  =      F    k-point downsampling of WAVECAR
   LCHARG       =      F    write CHGCAR
   LVTOT        =      T    write LOCPOT, total local potential
   LVHAR        =      F    write LOCPOT, Hartree potential only
   LELF         =      F    write electronic localiz. function (ELF)
   LORBIT       =     11    0 simple, 1 ext, 2 COOP (PROOUT), +10 PAW based schemes


 Dipole corrections
   LMONO  =      F    monopole corrections only (constant potential shift)
   LDIPOL =      F    correct potential (dipole corrections)
   IDIPOL =      0    1-x, 2-y, 3-z, 4-all directions 
   EPSILON=  1.0000000 bulk dielectric constant

 Exchange correlation treatment:
   GGA     =    PS    GGA type
   LEXCH   =    14    internal setting for exchange type
   LIBXC   =     F    Libxc                    
   VOSKOWN =     0    Vosko Wilk Nusair interpolation
   LHFCALC =     F    Hartree Fock is set to
   LHFONE  =     F    Hartree Fock one center treatment
   AEXX    =    0.0000 exact exchange contribution

 Linear response parameters
   LEPSILON=     F    determine dielectric tensor
   LRPA    =     F    only Hartree local field effects (RPA)
   LNABLA  =     F    use nabla operator in PAW spheres
   LVEL    =     F    velocity operator in full k-point grid
   CSHIFT  =0.0000    complex shift for real part using Kramers Kronig
   OMEGAMAX=  -1.0    maximum frequency
   DEG_THRESHOLD= 0.2000000E-02 threshold for treating states as degnerate
   RTIME   =   -0.100 relaxation time in fs
  (WPLASMAI=    0.000 imaginary part of plasma frequency in eV, 0.658/RTIME)
   DFIELD  = 0.0000000 0.0000000 0.0000000 field for delta impulse in time
 
  Optional k-point grid parameters
   LKPOINTS_OPT  =     F    use optional k-point grid
   KPOINTS_OPT_MODE=     1    mode for optional k-point grid
 
 Orbital magnetization related:
   ORBITALMAG=     F  switch on orbital magnetization
   LCHIMAG   =     F  perturbation theory with respect to B field
   DQ        =  0.001000  dq finite difference perturbation B field
   LLRAUG    =     F  two centre corrections for induced B field
   LBONE     =     F  B-component reconstruction in AE one-centre
   LVGVCALC  =     T  calculate vGv susceptibility
   LVGVAPPL  =     F  apply vGv susceptibility instead of pGv for G=0

 Random number generation:
   RANDOM_GENERATOR = DEFAULT
   PCG_SEED         = not used


--------------------------------------------------------------------------------------------------------


 Static calculation
 charge density and potential remain constant during run
 non-spin polarized calculation
 RMM-DIIS sequential band-by-band and
  variant of blocked Davidson during initial phase
 perform sub-space diagonalisation
    before iterative eigenvector-optimisation
 no mixing
 using additional bands           40
 reciprocal scheme for non local part
 use partial core corrections
 calculate Harris-corrections to forces 
   (improved forces if not selfconsistent)
 use gradient corrections 
 WARNING: stress and forces are not correct
  (second derivative of E(xc) not defined)
 use of overlap-Matrix (Vanderbilt PP)
 Fermi weights with tetrahedron method with Bloechl corrections


--------------------------------------------------------------------------------------------------------


  energy-cutoff  :      680.00
  volume of cell :      334.64
      direct lattice vectors                 reciprocal lattice vectors
     3.801574740  0.000000000  0.000000000     0.263048886  0.000000000  0.000000000
    -0.000000000  6.074320560  0.000000000     0.000000000  0.164627466  0.000000000
     0.000000000  0.000000000 14.491760480    -0.000000000 -0.000000000  0.069004729

  length of vectors
     3.801574740  6.074320560 14.491760480     0.263048886  0.164627466  0.069004729


 
 k-points in units of 2pi/SCALE and weight: pymatgen with grid density = 1186 / numb
   0.00000000  0.00000000  0.00000000       0.018
   0.03757841  0.00000000  0.00000000       0.036
   0.07515682  0.00000000  0.00000000       0.036
   0.11273524  0.00000000  0.00000000       0.036
   0.00000000  0.04115687  0.00000000       0.036
   0.03757841  0.04115687  0.00000000       0.071
   0.07515682  0.04115687  0.00000000       0.071
   0.11273524  0.04115687  0.00000000       0.071
   0.00000000  0.08231373  0.00000000       0.018
   0.03757841  0.08231373  0.00000000       0.036
   0.07515682  0.08231373  0.00000000       0.036
   0.11273524  0.08231373  0.00000000       0.036
  -0.00000000 -0.00000000  0.03450236       0.018
   0.03757841  0.00000000  0.03450236       0.036
   0.07515682  0.00000000  0.03450236       0.036
   0.11273524  0.00000000  0.03450236       0.036
  -0.00000000  0.04115687  0.03450236       0.036
   0.03757841  0.04115687  0.03450236       0.071
   0.07515682  0.04115687  0.03450236       0.071
   0.11273524  0.04115687  0.03450236       0.071
  -0.00000000  0.08231373  0.03450236       0.018
   0.03757841  0.08231373  0.03450236       0.036
   0.07515682  0.08231373  0.03450236       0.036
   0.11273524  0.08231373  0.03450236       0.036
 
 k-points in reciprocal lattice and weights: pymatgen with grid density = 1186 / numb
   0.00000000  0.00000000  0.00000000       0.018
   0.14285714 -0.00000000  0.00000000       0.036
   0.28571429  0.00000000  0.00000000       0.036
   0.42857143 -0.00000000  0.00000000       0.036
   0.00000000  0.25000000  0.00000000       0.036
   0.14285714  0.25000000  0.00000000       0.071
   0.28571429  0.25000000  0.00000000       0.071
   0.42857143  0.25000000  0.00000000       0.071
   0.00000000  0.50000000  0.00000000       0.018
   0.14285714  0.50000000  0.00000000       0.036
   0.28571429  0.50000000  0.00000000       0.036
   0.42857143  0.50000000  0.00000000       0.036
   0.00000000  0.00000000  0.50000000       0.018
   0.14285714  0.00000000  0.50000000       0.036
   0.28571429 -0.00000000  0.50000000       0.036
   0.42857143 -0.00000000  0.50000000       0.036
   0.00000000  0.25000000  0.50000000       0.036
   0.14285714  0.25000000  0.50000000       0.071
   0.28571429  0.25000000  0.50000000       0.071
   0.42857143  0.25000000  0.50000000       0.071
   0.00000000  0.50000000  0.50000000       0.018
   0.14285714  0.50000000  0.50000000       0.036
   0.28571429  0.50000000  0.50000000       0.036
   0.42857143  0.50000000  0.50000000       0.036
 
 position of ions in fractional coordinates (direct lattice) 
   0.25000000  0.25010162  0.82821842
   0.25000000  0.75010162  0.67178158
   0.75000000  0.74989838  0.17178158
   0.75000000  0.24989838  0.32821842
   0.25000000  0.72881200  0.43458741
   0.75000000  0.27118800  0.56541259
   0.25000000  0.22881200  0.06541259
   0.75000000  0.77118800  0.93458741
   0.25000000  0.12368586  0.40104516
   0.75000000  0.87631414  0.59895484
   0.25000000  0.62368586  0.09895484
   0.75000000  0.37631414  0.90104516
   0.75000000  0.62427265  0.32157721
   0.25000000  0.87572735  0.82157721
   0.75000000  0.12427265  0.17842279
   0.25000000  0.37572735  0.67842279
 
 position of ions in cartesian coordinates  (Angst):
   0.95039368  1.51919741 12.00234297
   0.95039368  4.55635769  9.73529775
   2.85118105  4.55512315  2.48941751
   2.85118106  1.51796287  4.75646273
   0.95039368  4.42703772  6.29793665
   2.85118106  1.64728284  8.19382383
   0.95039368  1.38987744  0.94794359
   2.85118105  4.68444312 13.54381689
   0.95039368  0.75130756  5.81185040
   2.85118105  5.32301300  8.67991008
   0.95039368  3.78846784  1.43402984
   2.85118105  2.28585272 13.05773064
   2.85118105  3.79203219  4.66021990
   0.95039368  5.31944865 11.90610014
   2.85118106  0.75487191  2.58566034
   0.95039368  2.28228837  9.83154058
 


--------------------------------------------------------------------------------------------------------


 k-point   1 :   0.0000 0.0000 0.0000  plane waves:   13425
 k-point   2 :   0.1429-0.0000 0.0000  plane waves:   13442
 k-point   3 :   0.2857 0.0000 0.0000  plane waves:   13490
 k-point   4 :   0.4286-0.0000 0.0000  plane waves:   13476
 k-point   5 :   0.0000 0.2500 0.0000  plane waves:   13448
 k-point   6 :   0.1429 0.2500 0.0000  plane waves:   13463
 k-point   7 :   0.2857 0.2500 0.0000  plane waves:   13481
 k-point   8 :   0.4286 0.2500 0.0000  plane waves:   13482
 k-point   9 :   0.0000 0.5000 0.0000  plane waves:   13418
 k-point  10 :   0.1429 0.5000 0.0000  plane waves:   13466
 k-point  11 :   0.2857 0.5000 0.0000  plane waves:   13484
 k-point  12 :   0.4286 0.5000 0.0000  plane waves:   13534
 k-point  13 :   0.0000 0.0000 0.5000  plane waves:   13442
 k-point  14 :   0.1429 0.0000 0.5000  plane waves:   13448
 k-point  15 :   0.2857-0.0000 0.5000  plane waves:   13456
 k-point  16 :   0.4286-0.0000 0.5000  plane waves:   13488
 k-point  17 :   0.0000 0.2500 0.5000  plane waves:   13438
 k-point  18 :   0.1429 0.2500 0.5000  plane waves:   13472
 k-point  19 :   0.2857 0.2500 0.5000  plane waves:   13488
 k-point  20 :   0.4286 0.2500 0.5000  plane waves:   13506
 k-point  21 :   0.0000 0.5000 0.5000  plane waves:   13460
 k-point  22 :   0.1429 0.5000 0.5000  plane waves:   13468
 k-point  23 :   0.2857 0.5000 0.5000  plane waves:   13484
 k-point  24 :   0.4286 0.5000 0.5000  plane waves:   13512

 maximum and minimum number of plane-waves per node :      1369     1326

 maximum number of plane-waves:     13534
 maximum index in each direction: 
   IXMAX=    8   IYMAX=   12   IZMAX=   30
   IXMIN=   -8   IYMIN=  -13   IZMIN=  -31


 parallel 3D FFT for wavefunctions:
    minimum data exchange during FFTs selected (reduces bandwidth)
 parallel 3D FFT for charge:
    minimum data exchange during FFTs selected (reduces bandwidth)


 total amount of memory used by VASP MPI-rank0    53219. kBytes
=======================================================================

   base      :      30000. kBytes
   nonl-proj :      14406. kBytes
   fftplans  :       1662. kBytes
   grid      :       2844. kBytes
   one-center:         31. kBytes
   wavefun   :       4276. kBytes
 
     INWAV:  cpu time      0.0000: real time      0.0001
 initial charge density was supplied:
 number of electron     111.9999973 magnetization 
 keeping initial charge density in first step


--------------------------------------------------------------------------------------------------------


 Maximum index for augmentation-charges          455 (set IRDMAX)


--------------------------------------------------------------------------------------------------------


 First call to EWALD:  gamma=   0.255
 Maximum number of real-space cells 5x 3x 2
 Maximum number of reciprocal cells 2x 2x 5

    FEWALD:  cpu time      0.0027: real time      0.0029


--------------------------------------- Ionic step        1  -------------------------------------------




--------------------------------------- Iteration      1(   1)  ---------------------------------------


    POTLOK:  cpu time      0.0289: real time      0.0309
    SETDIJ:  cpu time      0.1271: real time      0.1279
     EDDAV:  cpu time      1.4076: real time      1.4157
 BZINTS: Fermi energy:   21.202341;  112.000000 electrons
         Band energy: 0.126273E+04;  BLOECHL correction:   -0.123766
       DOS:  cpu time      0.0397: real time      0.0402
    --------------------------------------------
      LOOP:  cpu time      1.6035: real time      1.6146

 eigenvalue-minimisations  :  4608
 total energy-change (2. order) : 0.1079762E+04  (-0.4991414E+04)
 number of electron     111.9999973 magnetization 
 augmentation part      111.9999973 magnetization 

 Free energy of the ion-electron system (eV)
  ---------------------------------------------------
  alpha Z        PSCENC =       140.40642575
  Ewald energy   TEWEN  =     -5671.52231121
  -Hartree energ DENC   =     -2934.00054944
  -exchange      EXHF   =         0.00000000
  -V(xc)+E(xc)   XCENC  =       104.62992695
  PAW double counting   =     10769.77070488   -10961.56731214
  entropy T*S    EENTRO =         0.00000000
  eigenvalues    EBANDS =      1262.73049985
  atomic energy  EATOM  =      8369.31508255
  Solvation  Ediel_sol  =         0.00000000
  ---------------------------------------------------
  free energy    TOTEN  =      1079.76246718 eV

  energy without entropy =     1079.76246718  energy(sigma->0) =     1079.76246718


--------------------------------------------------------------------------------------------------------




--------------------------------------- Iteration      1(   2)  ---------------------------------------


     EDDAV:  cpu time      1.4784: real time      1.4935
 BZINTS: Fermi energy:    9.753628;  112.000000 electrons
         Band energy: 0.298317E+03;  BLOECHL correction:   -0.055721
       DOS:  cpu time      0.0387: real time      0.0388
    --------------------------------------------
      LOOP:  cpu time      1.5172: real time      1.5324

 eigenvalue-minimisations  :  4728
 total energy-change (2. order) :-0.9644137E+03  (-0.8878617E+03)
 number of electron     111.9999973 magnetization 
 augmentation part      111.9999973 magnetization 

 Free energy of the ion-electron system (eV)
  ---------------------------------------------------
  alpha Z        PSCENC =       140.40642575
  Ewald energy   TEWEN  =     -5671.52231121
  -Hartree energ DENC   =     -2934.00054944
  -exchange      EXHF   =         0.00000000
  -V(xc)+E(xc)   XCENC  =       104.62992695
  PAW double counting   =     10769.77070488   -10961.56731214
  entropy T*S    EENTRO =         0.00000000
  eigenvalues    EBANDS =       298.31676297
  atomic energy  EATOM  =      8369.31508255
  Solvation  Ediel_sol  =         0.00000000
  ---------------------------------------------------
  free energy    TOTEN  =       115.34873029 eV

  energy without entropy =      115.34873029  energy(sigma->0) =      115.34873029


--------------------------------------------------------------------------------------------------------




--------------------------------------- Iteration      1(   3)  ---------------------------------------


     EDDAV:  cpu time      1.6570: real time      1.6745
 BZINTS: Fermi energy:    6.140404;  112.000000 electrons
         Band energy: 0.122933E+03;  BLOECHL correction:    0.000000
       DOS:  cpu time      0.0266: real time      0.0267
    --------------------------------------------
      LOOP:  cpu time      1.6835: real time      1.7011

 eigenvalue-minimisations  :  5784
 total energy-change (2. order) :-0.1753837E+03  (-0.1632227E+03)
 number of electron     111.9999973 magnetization 
 augmentation part      111.9999973 magnetization 

 Free energy of the ion-electron system (eV)
  ---------------------------------------------------
  alpha Z        PSCENC =       140.40642575
  Ewald energy   TEWEN  =     -5671.52231121
  -Hartree energ DENC   =     -2934.00054944
  -exchange      EXHF   =         0.00000000
  -V(xc)+E(xc)   XCENC  =       104.62992695
  PAW double counting   =     10769.77070488   -10961.56731214
  entropy T*S    EENTRO =         0.00000000
  eigenvalues    EBANDS =       122.93301552
  atomic energy  EATOM  =      8369.31508255
  Solvation  Ediel_sol  =         0.00000000
  ---------------------------------------------------
  free energy    TOTEN  =       -60.03501715 eV

  energy without entropy =      -60.03501715  energy(sigma->0) =      -60.03501715


--------------------------------------------------------------------------------------------------------




--------------------------------------- Iteration      1(   4)  ---------------------------------------


     EDDAV:  cpu time      1.7693: real time      1.7845
 BZINTS: Fermi energy:    5.831350;  112.000000 electrons
         Band energy: 0.108628E+03;  BLOECHL correction:    0.000000
       DOS:  cpu time      0.0272: real time      0.0273
    --------------------------------------------
      LOOP:  cpu time      1.7965: real time      1.8118

 eigenvalue-minimisations  :  6204
 total energy-change (2. order) :-0.1430501E+02  (-0.1406585E+02)
 number of electron     111.9999973 magnetization 
 augmentation part      111.9999973 magnetization 

 Free energy of the ion-electron system (eV)
  ---------------------------------------------------
  alpha Z        PSCENC =       140.40642575
  Ewald energy   TEWEN  =     -5671.52231121
  -Hartree energ DENC   =     -2934.00054944
  -exchange      EXHF   =         0.00000000
  -V(xc)+E(xc)   XCENC  =       104.62992695
  PAW double counting   =     10769.77070488   -10961.56731214
  entropy T*S    EENTRO =         0.00000000
  eigenvalues    EBANDS =       108.62800874
  atomic energy  EATOM  =      8369.31508255
  Solvation  Ediel_sol  =         0.00000000
  ---------------------------------------------------
  free energy    TOTEN  =       -74.34002393 eV

  energy without entropy =      -74.34002393  energy(sigma->0) =      -74.34002393


--------------------------------------------------------------------------------------------------------




--------------------------------------- Iteration      1(   5)  ---------------------------------------


     EDDAV:  cpu time      1.7429: real time      1.7614
 BZINTS: Fermi energy:    5.817346;  112.000000 electrons
         Band energy: 0.108001E+03;  BLOECHL correction:    0.000000
       DOS:  cpu time      0.0271: real time      0.0271
    --------------------------------------------
      LOOP:  cpu time      1.7700: real time      1.7885

 eigenvalue-minimisations  :  6204
 total energy-change (2. order) :-0.6265932E+00  (-0.6258007E+00)
 number of electron     111.9999973 magnetization 
 augmentation part      111.9999973 magnetization 

 Free energy of the ion-electron system (eV)
  ---------------------------------------------------
  alpha Z        PSCENC =       140.40642575
  Ewald energy   TEWEN  =     -5671.52231121
  -Hartree energ DENC   =     -2934.00054944
  -exchange      EXHF   =         0.00000000
  -V(xc)+E(xc)   XCENC  =       104.62992695
  PAW double counting   =     10769.77070488   -10961.56731214
  entropy T*S    EENTRO =         0.00000000
  eigenvalues    EBANDS =       108.00141556
  atomic energy  EATOM  =      8369.31508255
  Solvation  Ediel_sol  =         0.00000000
  ---------------------------------------------------
  free energy    TOTEN  =       -74.96661711 eV

  energy without entropy =      -74.96661711  energy(sigma->0) =      -74.96661711


--------------------------------------------------------------------------------------------------------




--------------------------------------- Iteration      1(   6)  ---------------------------------------


    EDDIAG:  cpu time      0.3720: real time      0.3871
  RMM-DIIS:  cpu time      0.8693: real time      0.8716
    ORTHCH:  cpu time      0.0581: real time      0.0582
 BZINTS: Fermi energy:    5.813201;  112.000000 electrons
         Band energy: 0.107973E+03;  BLOECHL correction:    0.000000
       DOS:  cpu time      0.0267: real time      0.0268
    --------------------------------------------
      LOOP:  cpu time      1.3261: real time      1.3438

 eigenvalue-minimisations  :  6506
 total energy-change (2. order) :-0.2868087E-01  (-0.2868087E-01)
 number of electron     111.9999973 magnetization 
 augmentation part      111.9999973 magnetization 

 Free energy of the ion-electron system (eV)
  ---------------------------------------------------
  alpha Z        PSCENC =       140.40642575
  Ewald energy   TEWEN  =     -5671.52231121
  -Hartree energ DENC   =     -2934.00054944
  -exchange      EXHF   =         0.00000000
  -V(xc)+E(xc)   XCENC  =       104.62992695
  PAW double counting   =     10769.77070488   -10961.56731214
  entropy T*S    EENTRO =         0.00000000
  eigenvalues    EBANDS =       107.97273470
  atomic energy  EATOM  =      8369.31508255
  Solvation  Ediel_sol  =         0.00000000
  ---------------------------------------------------
  free energy    TOTEN  =       -74.99529798 eV

  energy without entropy =      -74.99529798  energy(sigma->0) =      -74.99529798


--------------------------------------------------------------------------------------------------------




--------------------------------------- Iteration      1(   7)  ---------------------------------------


    EDDIAG:  cpu time      0.3525: real time      0.3674
  RMM-DIIS:  cpu time      1.0207: real time      1.0233
    ORTHCH:  cpu time      0.0583: real time      0.0584
 BZINTS: Fermi energy:    5.817102;  112.000000 electrons
         Band energy: 0.107966E+03;  BLOECHL correction:    0.000000
       DOS:  cpu time      0.0272: real time      0.0273
    --------------------------------------------
      LOOP:  cpu time      1.4587: real time      1.4764

 eigenvalue-minimisations  :  7461
 total energy-change (2. order) :-0.6371829E-02  (-0.6211822E-02)
 number of electron     111.9999973 magnetization 
 augmentation part      111.9999973 magnetization 

 Free energy of the ion-electron system (eV)
  ---------------------------------------------------
  alpha Z        PSCENC =       140.40642575
  Ewald energy   TEWEN  =     -5671.52231121
  -Hartree energ DENC   =     -2934.00054944
  -exchange      EXHF   =         0.00000000
  -V(xc)+E(xc)   XCENC  =       104.62992695
  PAW double counting   =     10769.77070488   -10961.56731214
  entropy T*S    EENTRO =         0.00000000
  eigenvalues    EBANDS =       107.96636287
  atomic energy  EATOM  =      8369.31508255
  Solvation  Ediel_sol  =         0.00000000
  ---------------------------------------------------
  free energy    TOTEN  =       -75.00166981 eV

  energy without entropy =      -75.00166981  energy(sigma->0) =      -75.00166981


--------------------------------------------------------------------------------------------------------




--------------------------------------- Iteration      1(   8)  ---------------------------------------


    EDDIAG:  cpu time      0.3533: real time      0.3693
  RMM-DIIS:  cpu time      0.9791: real time      0.9816
    ORTHCH:  cpu time      0.0560: real time      0.0562
 BZINTS: Fermi energy:    5.812759;  112.000000 electrons
         Band energy: 0.107966E+03;  BLOECHL correction:    0.000000
       DOS:  cpu time      0.0267: real time      0.0267
    --------------------------------------------
      LOOP:  cpu time      1.4151: real time      1.4338

 eigenvalue-minimisations  :  7259
 total energy-change (2. order) :-0.5365391E-03  (-0.5109007E-03)
 number of electron     111.9999973 magnetization 
 augmentation part      111.9999973 magnetization 

 Free energy of the ion-electron system (eV)
  ---------------------------------------------------
  alpha Z        PSCENC =       140.40642575
  Ewald energy   TEWEN  =     -5671.52231121
  -Hartree energ DENC   =     -2934.00054944
  -exchange      EXHF   =         0.00000000
  -V(xc)+E(xc)   XCENC  =       104.62992695
  PAW double counting   =     10769.77070488   -10961.56731214
  entropy T*S    EENTRO =         0.00000000
  eigenvalues    EBANDS =       107.96582633
  atomic energy  EATOM  =      8369.31508255
  Solvation  Ediel_sol  =         0.00000000
  ---------------------------------------------------
  free energy    TOTEN  =       -75.00220634 eV

  energy without entropy =      -75.00220634  energy(sigma->0) =      -75.00220634


--------------------------------------------------------------------------------------------------------




--------------------------------------- Iteration      1(   9)  ---------------------------------------


    EDDIAG:  cpu time      0.3531: real time      0.3693
  RMM-DIIS:  cpu time      0.9414: real time      0.9438
    ORTHCH:  cpu time      0.0583: real time      0.0584
 BZINTS: Fermi energy:    5.822983;  112.000000 electrons
         Band energy: 0.107966E+03;  BLOECHL correction:    0.000000
       DOS:  cpu time      0.0273: real time      0.0273
    --------------------------------------------
      LOOP:  cpu time      1.3800: real time      1.3988

 eigenvalue-minimisations  :  6921
 total energy-change (2. order) :-0.1306499E-03  (-0.1286210E-03)
 number of electron     111.9999973 magnetization 
 augmentation part      111.9999973 magnetization 

 Free energy of the ion-electron system (eV)
  ---------------------------------------------------
  alpha Z        PSCENC =       140.40642575
  Ewald energy   TEWEN  =     -5671.52231121
  -Hartree energ DENC   =     -2934.00054944
  -exchange      EXHF   =         0.00000000
  -V(xc)+E(xc)   XCENC  =       104.62992695
  PAW double counting   =     10769.77070488   -10961.56731214
  entropy T*S    EENTRO =         0.00000000
  eigenvalues    EBANDS =       107.96569568
  atomic energy  EATOM  =      8369.31508255
  Solvation  Ediel_sol  =         0.00000000
  ---------------------------------------------------
  free energy    TOTEN  =       -75.00233699 eV

  energy without entropy =      -75.00233699  energy(sigma->0) =      -75.00233699


--------------------------------------------------------------------------------------------------------




--------------------------------------- Iteration      1(  10)  ---------------------------------------


    EDDIAG:  cpu time      0.3679: real time      0.3692
  RMM-DIIS:  cpu time      0.8001: real time      0.8022
    ORTHCH:  cpu time      0.0601: real time      0.0603
 BZINTS: Fermi energy:    5.821089;  112.000000 electrons
         Band energy: 0.107966E+03;  BLOECHL correction:    0.000000
       DOS:  cpu time      0.0272: real time      0.0273
    --------------------------------------------
      LOOP:  cpu time      1.2553: real time      1.2589

 eigenvalue-minimisations  :  5544
 total energy-change (2. order) :-0.9359999E-05  (-0.8642261E-05)
 number of electron     111.9999973 magnetization 
 augmentation part      111.9999973 magnetization 

 Free energy of the ion-electron system (eV)
  ---------------------------------------------------
  alpha Z        PSCENC =       140.40642575
  Ewald energy   TEWEN  =     -5671.52231121
  -Hartree energ DENC   =     -2934.00054944
  -exchange      EXHF   =         0.00000000
  -V(xc)+E(xc)   XCENC  =       104.62992695
  PAW double counting   =     10769.77070488   -10961.56731214
  entropy T*S    EENTRO =         0.00000000
  eigenvalues    EBANDS =       107.96568632
  atomic energy  EATOM  =      8369.31508255
  Solvation  Ediel_sol  =         0.00000000
  ---------------------------------------------------
  free energy    TOTEN  =       -75.00234635 eV

  energy without entropy =      -75.00234635  energy(sigma->0) =      -75.00234635


--------------------------------------------------------------------------------------------------------




 average (electrostatic) potential at core
  the test charge radii are     0.9430  1.1712  0.9698
  (the norm of the test charge is              1.0000)
       1 -64.5376       2 -64.5376       3 -64.5376       4 -64.5376       5 -87.4777
       6 -87.4777       7 -87.4777       8 -87.4777       9 -85.9232      10 -85.9232
      11 -85.9232      12 -85.9232      13 -86.2759      14 -86.2759      15 -86.2759
      16 -86.2759
 
 
 
 E-fermi :   5.8211     XC(G=0): -10.0639     alpha+bet :-11.0670

 Fermi energy:         5.8210893695

 k-point     1 :       0.0000    0.0000    0.0000
  band No.  band energies     occupation 
      1      -8.9663      2.00000
      2      -8.6752      2.00000
      3      -8.5629      2.00000
      4      -8.1703      2.00000
      5      -7.3231      2.00000
      6      -7.2047      2.00000
      7      -7.0627      2.00000
      8      -6.8746      2.00000
      9      -3.4251      2.00000
     10      -3.2435      2.00000
     11      -3.1996      2.00000
     12      -2.7553      2.00000
     13      -0.5693      2.00000
     14      -0.1558      2.00000
     15       0.2901      2.00000
     16       0.7063      2.00000
     17       0.8500      2.00000
     18       1.3937      2.00000
     19       1.6557      2.00000
     20       1.6906      2.00000
     21       1.7493      2.00000
     22       1.8889      2.00000
     23       2.0672      2.00000
     24       2.0930      2.00000
     25       2.0968      2.00000
     26       2.1253      2.00000
     27       2.1632      2.00000
     28       2.2420      2.00000
     29       2.2884      2.00000
     30       2.3591      2.00000
     31       2.3918      2.00000
     32       2.4652      2.00000
     33       3.0352      2.00000
     34       3.1136      2.00000
     35       3.1470      2.00000
     36       3.4796      2.00000
     37       3.6781      2.00000
     38       3.6808      2.00000
     39       3.7124      2.00000
     40       3.7730      2.00000
     41       3.9251      2.00000
     42       3.9613      2.00000
     43       3.9944      2.00000
     44       4.0115      2.00000
     45       4.3349      2.00000
     46       4.4038      2.00000
     47       4.5967      2.00000
     48       4.9443      2.00000
     49       5.1566      2.00000
     50       5.4845      2.00000
     51       5.4941      2.00000
     52       5.5562      2.00000
     53       5.6077      2.00000
     54       5.6556      2.00000
     55       5.6758      2.00000
     56       5.8100      2.00000
     57       6.6395      0.00000
     58       6.9823      0.00000
     59       7.0062      0.00000
     60       7.3345      0.00000
     61       7.8322      0.00000
     62       7.9649      0.00000
     63       8.2691      0.00000
     64       8.2810      0.00000
     65       8.5073      0.00000
     66       8.5698      0.00000
     67       8.7955      0.00000
     68       8.9519      0.00000
     69       9.9092      0.00000
     70      10.1086      0.00000
     71      10.4634      0.00000
     72      10.9462      0.00000
     73      11.2764      0.00000
     74      11.9937      0.00000
     75      12.0812      0.00000
     76      12.1506      0.00000
     77      12.1726      0.00000
     78      12.3100      0.00000
     79      12.4806      0.00000
     80      12.6286      0.00000
     81      12.9148      0.00000
     82      12.9193      0.00000
     83      13.0180      0.00000
     84      13.2688      0.00000
     85      13.6227      0.00000
     86      13.7901      0.00000
     87      13.8264      0.00000
     88      13.8638      0.00000
     89      13.9169      0.00000
     90      14.0093      0.00000
     91      14.0691      0.00000
     92      14.1366      0.00000
     93      14.1666      0.00000
     94      14.5350      0.00000
     95      15.0688      0.00000
     96      15.1659      0.00000

 k-point     2 :       0.1429   -0.0000    0.0000
  band No.  band energies     occupation 
      1      -8.8226      2.00000
      2      -8.5366      2.00000
      3      -8.4348      2.00000
      4      -8.0468      2.00000
      5      -7.2624      2.00000
      6      -7.1717      2.00000
      7      -7.0356      2.00000
      8      -6.8719      2.00000
      9      -3.4322      2.00000
     10      -3.2155      2.00000
     11      -3.1935      2.00000
     12      -2.7978      2.00000
     13      -0.4263      2.00000
     14      -0.0212      2.00000
     15       0.3310      2.00000
     16       0.7675      2.00000
     17       0.9022      2.00000
     18       0.9152      2.00000
     19       1.0080      2.00000
     20       1.2003      2.00000
     21       1.5498      2.00000
     22       1.6880      2.00000
     23       1.7298      2.00000
     24       1.7911      2.00000
     25       2.0009      2.00000
     26       2.0682      2.00000
     27       2.0766      2.00000
     28       2.1019      2.00000
     29       2.1497      2.00000
     30       2.1740      2.00000
     31       2.2938      2.00000
     32       2.3304      2.00000
     33       3.1253      2.00000
     34       3.3257      2.00000
     35       3.3827      2.00000
     36       3.4395      2.00000
     37       3.6769      2.00000
     38       3.7133      2.00000
     39       3.7172      2.00000
     40       3.7834      2.00000
     41       3.7866      2.00000
     42       3.9283      2.00000
     43       3.9681      2.00000
     44       4.0450      2.00000
     45       4.3333      2.00000
     46       4.4182      2.00000
     47       4.4630      2.00000
     48       4.5566      2.00000
     49       4.9530      2.00000
     50       5.0720      2.00000
     51       5.2837      2.00000
     52       5.3260      2.00000
     53       5.4901      2.00000
     54       5.5096      2.00000
     55       5.5375      2.00000
     56       5.7316      2.00000
     57       7.3873      0.00000
     58       7.5613      0.00000
     59       7.6167      0.00000
     60       7.6815      0.00000
     61       7.8000      0.00000
     62       7.9547      0.00000
     63       8.0019      0.00000
     64       8.0779      0.00000
     65       8.5192      0.00000
     66       8.5683      0.00000
     67       9.0887      0.00000
     68       9.1594      0.00000
     69      10.3183      0.00000
     70      10.6138      0.00000
     71      11.0005      0.00000
     72      11.0490      0.00000
     73      11.1196      0.00000
     74      11.4214      0.00000
     75      11.6493      0.00000
     76      11.8505      0.00000
     77      11.8572      0.00000
     78      12.2578      0.00000
     79      12.4204      0.00000
     80      12.6182      0.00000
     81      12.6939      0.00000
     82      13.0890      0.00000
     83      13.2693      0.00000
     84      13.2787      0.00000
     85      13.3741      0.00000
     86      13.3913      0.00000
     87      13.6142      0.00000
     88      14.0831      0.00000
     89      14.0947      0.00000
     90      14.2377      0.00000
     91      14.4262      0.00000
     92      14.6866      0.00000
     93      14.6900      0.00000
     94      14.9343      0.00000
     95      15.2639      0.00000
     96      15.3655      0.00000

 k-point     3 :       0.2857    0.0000    0.0000
  band No.  band energies     occupation 
      1      -8.4179      2.00000
      2      -8.1520      2.00000
      3      -8.0860      2.00000
      4      -7.7185      2.00000
      5      -7.1353      2.00000
      6      -7.1343      2.00000
      7      -7.0214      2.00000
      8      -6.9440      2.00000
      9      -3.4782      2.00000
     10      -3.3346      2.00000
     11      -3.1607      2.00000
     12      -3.0080      2.00000
     13      -0.0430      2.00000
     14       0.0511      2.00000
     15       0.1514      2.00000
     16       0.3171      2.00000
     17       0.4112      2.00000
     18       0.4169      2.00000
     19       0.4949      2.00000
     20       0.7891      2.00000
     21       1.1381      2.00000
     22       1.2004      2.00000
     23       1.2228      2.00000
     24       1.5622      2.00000
     25       1.8276      2.00000
     26       1.8600      2.00000
     27       2.0075      2.00000
     28       2.0081      2.00000
     29       2.1168      2.00000
     30       2.1939      2.00000
     31       2.5019      2.00000
     32       2.5138      2.00000
     33       2.9440      2.00000
     34       3.0342      2.00000
     35       3.2507      2.00000
     36       3.3862      2.00000
     37       3.5597      2.00000
     38       3.6604      2.00000
     39       3.6901      2.00000
     40       3.6971      2.00000
     41       3.7970      2.00000
     42       3.8472      2.00000
     43       3.9112      2.00000
     44       3.9690      2.00000
     45       4.0541      2.00000
     46       4.2897      2.00000
     47       4.3330      2.00000
     48       4.4917      2.00000
     49       4.5025      2.00000
     50       4.7268      2.00000
     51       4.7360      2.00000
     52       4.9628      2.00000
     53       4.9957      2.00000
     54       5.0969      2.00000
     55       5.1510      2.00000
     56       5.4885      2.00000
     57       7.0856      0.00000
     58       7.2947      0.00000
     59       7.7366      0.00000
     60       8.0810      0.00000
     61       8.0907      0.00000
     62       8.1500      0.00000
     63       8.4469      0.00000
     64       8.7936      0.00000
     65       8.8205      0.00000
     66       8.8823      0.00000
     67       9.3395      0.00000
     68       9.3611      0.00000
     69      10.5678      0.00000
     70      10.7943      0.00000
     71      10.8434      0.00000
     72      11.0486      0.00000
     73      11.4407      0.00000
     74      11.5897      0.00000
     75      11.6443      0.00000
     76      12.0198      0.00000
     77      12.1600      0.00000
     78      12.2266      0.00000
     79      12.4560      0.00000
     80      12.5897      0.00000
     81      12.6550      0.00000
     82      13.0178      0.00000
     83      13.3706      0.00000
     84      13.4268      0.00000
     85      13.9098      0.00000
     86      14.1059      0.00000
     87      14.1960      0.00000
     88      14.5130      0.00000
     89      14.6386      0.00000
     90      14.7000      0.00000
     91      14.7078      0.00000
     92      14.7804      0.00000
     93      14.9415      0.00000
     94      15.4204      0.00000
     95      15.4608      0.00000
     96      15.8443      0.00000

 k-point     4 :       0.4286   -0.0000    0.0000
  band No.  band energies     occupation 
      1      -7.8509      2.00000
      2      -7.6498      2.00000
      3      -7.6342      2.00000
      4      -7.3368      2.00000
      5      -7.2433      2.00000
      6      -7.2427      2.00000
      7      -7.1860      2.00000
      8      -7.1034      2.00000
      9      -3.4946      2.00000
     10      -3.4872      2.00000
     11      -3.3619      2.00000
     12      -3.3238      2.00000
     13      -0.1778      2.00000
     14      -0.1514      2.00000
     15      -0.1500      2.00000
     16       0.1685      2.00000
     17       0.3829      2.00000
     18       0.4134      2.00000
     19       0.4475      2.00000
     20       0.4902      2.00000
     21       1.0040      2.00000
     22       1.0631      2.00000
     23       1.1580      2.00000
     24       1.3474      2.00000
     25       1.7158      2.00000
     26       1.8225      2.00000
     27       1.8957      2.00000
     28       1.9792      2.00000
     29       2.1666      2.00000
     30       2.2673      2.00000
     31       2.3081      2.00000
     32       2.6271      2.00000
     33       2.8027      2.00000
     34       2.9707      2.00000
     35       3.0052      2.00000
     36       3.0765      2.00000
     37       3.6562      2.00000
     38       3.6612      2.00000
     39       3.6823      2.00000
     40       3.7074      2.00000
     41       3.7892      2.00000
     42       3.7902      2.00000
     43       3.8331      2.00000
     44       3.8360      2.00000
     45       4.0055      2.00000
     46       4.0244      2.00000
     47       4.1025      2.00000
     48       4.1147      2.00000
     49       4.3459      2.00000
     50       4.3876      2.00000
     51       4.4441      2.00000
     52       4.5733      2.00000
     53       4.7365      2.00000
     54       4.9182      2.00000
     55       5.0368      2.00000
     56       5.0796      2.00000
     57       7.3716      0.00000
     58       7.4793      0.00000
     59       7.5883      0.00000
     60       7.8610      0.00000
     61       7.8683      0.00000
     62       8.2172      0.00000
     63       8.5535      0.00000
     64       8.6089      0.00000
     65       8.7467      0.00000
     66       9.1652      0.00000
     67       9.1792      0.00000
     68       9.2229      0.00000
     69      10.2334      0.00000
     70      10.4848      0.00000
     71      10.8175      0.00000
     72      10.8195      0.00000
     73      11.4629      0.00000
     74      11.8797      0.00000
     75      12.2143      0.00000
     76      12.2308      0.00000
     77      12.5188      0.00000
     78      12.5604      0.00000
     79      12.7286      0.00000
     80      13.0858      0.00000
     81      13.1465      0.00000
     82      13.7680      0.00000
     83      13.7710      0.00000
     84      13.9392      0.00000
     85      14.2966      0.00000
     86      14.3865      0.00000
     87      14.4565      0.00000
     88      14.5249      0.00000
     89      14.9726      0.00000
     90      15.0345      0.00000
     91      15.3492      0.00000
     92      15.3879      0.00000
     93      15.6456      0.00000
     94      15.7372      0.00000
     95      16.0043      0.00000
     96      16.5069      0.00000

 k-point     5 :       0.0000    0.2500    0.0000
  band No.  band energies     occupation 
      1      -8.8265      2.00000
      2      -8.5691      2.00000
      3      -8.4614      2.00000
      4      -8.1692      2.00000
      5      -7.4976      2.00000
      6      -7.3838      2.00000
      7      -7.1852      2.00000
      8      -6.9962      2.00000
      9      -3.7152      2.00000
     10      -3.4574      2.00000
     11      -2.9082      2.00000
     12      -2.5950      2.00000
     13      -0.1333      2.00000
     14       0.3566      2.00000
     15       0.4085      2.00000
     16       0.7917      2.00000
     17       0.8853      2.00000
     18       1.3578      2.00000
     19       1.6783      2.00000
     20       1.7079      2.00000
     21       1.7493      2.00000
     22       1.7737      2.00000
     23       1.7997      2.00000
     24       2.0638      2.00000
     25       2.1008      2.00000
     26       2.1522      2.00000
     27       2.1845      2.00000
     28       2.2679      2.00000
     29       2.2738      2.00000
     30       2.3642      2.00000
     31       2.4888      2.00000
     32       2.5370      2.00000
     33       3.1246      2.00000
     34       3.1663      2.00000
     35       3.2927      2.00000
     36       3.4815      2.00000
     37       3.7409      2.00000
     38       3.7556      2.00000
     39       3.7663      2.00000
     40       3.8559      2.00000
     41       3.9148      2.00000
     42       3.9811      2.00000
     43       4.0162      2.00000
     44       4.0193      2.00000
     45       4.4225      2.00000
     46       4.5535      2.00000
     47       4.5802      2.00000
     48       4.9770      2.00000
     49       5.0493      2.00000
     50       5.0788      2.00000
     51       5.2308      2.00000
     52       5.2365      2.00000
     53       5.4089      2.00000
     54       5.4362      2.00000
     55       5.6681      2.00000
     56       5.6980      2.00000
     57       6.5196      0.00000
     58       6.5408      0.00000
     59       7.1576      0.00000
     60       7.5238      0.00000
     61       7.6525      0.00000
     62       7.7327      0.00000
     63       7.8366      0.00000
     64       8.1567      0.00000
     65       8.6910      0.00000
     66       8.9543      0.00000
     67       8.9789      0.00000
     68       9.3365      0.00000
     69       9.6937      0.00000
     70       9.7948      0.00000
     71      10.4470      0.00000
     72      10.7016      0.00000
     73      10.8798      0.00000
     74      11.1748      0.00000
     75      11.5794      0.00000
     76      12.0447      0.00000
     77      12.2405      0.00000
     78      12.3946      0.00000
     79      12.6577      0.00000
     80      12.8173      0.00000
     81      12.9748      0.00000
     82      13.0734      0.00000
     83      13.3497      0.00000
     84      13.3586      0.00000
     85      13.4227      0.00000
     86      13.6925      0.00000
     87      13.7064      0.00000
     88      13.7221      0.00000
     89      14.0871      0.00000
     90      14.2085      0.00000
     91      14.3123      0.00000
     92      14.3197      0.00000
     93      14.5322      0.00000
     94      14.8640      0.00000
     95      15.1581      0.00000
     96      15.5856      0.00000

 k-point     6 :       0.1429    0.2500    0.0000
  band No.  band energies     occupation 
      1      -8.6864      2.00000
      2      -8.4345      2.00000
      3      -8.3350      2.00000
      4      -8.0444      2.00000
      5      -7.4251      2.00000
      6      -7.3296      2.00000
      7      -7.1488      2.00000
      8      -6.9790      2.00000
      9      -3.7005      2.00000
     10      -3.4755      2.00000
     11      -2.9494      2.00000
     12      -2.6856      2.00000
     13      -0.0219      2.00000
     14       0.3413      2.00000
     15       0.5146      2.00000
     16       0.7534      2.00000
     17       0.9058      2.00000
     18       1.1057      2.00000
     19       1.1768      2.00000
     20       1.2256      2.00000
     21       1.4282      2.00000
     22       1.5744      2.00000
     23       1.6315      2.00000
     24       1.8130      2.00000
     25       1.9372      2.00000
     26       1.9958      2.00000
     27       2.1236      2.00000
     28       2.1237      2.00000
     29       2.2371      2.00000
     30       2.2810      2.00000
     31       2.3247      2.00000
     32       2.3924      2.00000
     33       3.1307      2.00000
     34       3.2239      2.00000
     35       3.4879      2.00000
     36       3.5356      2.00000
     37       3.7102      2.00000
     38       3.7506      2.00000
     39       3.7525      2.00000
     40       3.8408      2.00000
     41       3.8890      2.00000
     42       3.9521      2.00000
     43       3.9637      2.00000
     44       4.0410      2.00000
     45       4.4212      2.00000
     46       4.5001      2.00000
     47       4.5007      2.00000
     48       4.6629      2.00000
     49       4.8622      2.00000
     50       4.9287      2.00000
     51       4.9590      2.00000
     52       5.2660      2.00000
     53       5.3262      2.00000
     54       5.3474      2.00000
     55       5.4135      2.00000
     56       5.5714      2.00000
     57       6.9873      0.00000
     58       7.2629      0.00000
     59       7.4276      0.00000
     60       7.4717      0.00000
     61       7.8804      0.00000
     62       7.9211      0.00000
     63       8.0654      0.00000
     64       8.1448      0.00000
     65       8.3512      0.00000
     66       8.5361      0.00000
     67       9.1164      0.00000
     68       9.3379      0.00000
     69      10.2334      0.00000
     70      10.5283      0.00000
     71      10.8542      0.00000
     72      10.9560      0.00000
     73      11.0738      0.00000
     74      11.1422      0.00000
     75      11.5601      0.00000
     76      11.7031      0.00000
     77      11.7288      0.00000
     78      11.9289      0.00000
     79      12.3264      0.00000
     80      12.7171      0.00000
     81      12.9155      0.00000
     82      12.9807      0.00000
     83      13.3060      0.00000
     84      13.3305      0.00000
     85      13.3727      0.00000
     86      13.4343      0.00000
     87      13.8451      0.00000
     88      14.0629      0.00000
     89      14.2647      0.00000
     90      14.5157      0.00000
     91      14.5611      0.00000
     92      14.7153      0.00000
     93      14.8593      0.00000
     94      15.0438      0.00000
     95      15.2193      0.00000
     96      15.3460      0.00000

 k-point     7 :       0.2857    0.2500    0.0000
  band No.  band energies     occupation 
      1      -8.2950      2.00000
      2      -8.0649      2.00000
      3      -7.9948      2.00000
      4      -7.7149      2.00000
      5      -7.2606      2.00000
      6      -7.2289      2.00000
      7      -7.1016      2.00000
      8      -7.0000      2.00000
[...]
   27.685662    0.641947    0.634904    0.642408    0.000000   -0.000000   -0.000000
   27.701112    0.642384    0.635350    0.642845    0.000000   -0.000000   -0.000000
   27.716561    0.642820    0.635795    0.643282    0.000000   -0.000000   -0.000000
   27.732011    0.643255    0.636239    0.643718    0.000000   -0.000000   -0.000000
   27.747460    0.643690    0.636682    0.644153    0.000000   -0.000000   -0.000000
   27.762910    0.644123    0.637125    0.644587    0.000000   -0.000000   -0.000000
   27.778360    0.644556    0.637567    0.645020    0.000000   -0.000000   -0.000000
   27.793809    0.644988    0.638008    0.645453    0.000000   -0.000000   -0.000000
   27.809259    0.645419    0.638448    0.645885    0.000000   -0.000000   -0.000000
   27.824708    0.645849    0.638887    0.646315    0.000000   -0.000000   -0.000000
   27.840158    0.646279    0.639325    0.646745    0.000000   -0.000000   -0.000000
   27.855608    0.646707    0.639763    0.647175    0.000000   -0.000000   -0.000000
   27.871057    0.647135    0.640200    0.647603    0.000000   -0.000000   -0.000000
   27.886507    0.647562    0.640635    0.648030    0.000000   -0.000000   -0.000000
   27.901956    0.647988    0.641070    0.648457    0.000000   -0.000000   -0.000000
   27.917406    0.648414    0.641505    0.648883    0.000000   -0.000000   -0.000000
   27.932855    0.648838    0.641938    0.649308    0.000000   -0.000000   -0.000000
   27.948305    0.649262    0.642371    0.649733    0.000000   -0.000000   -0.000000
   27.963755    0.649685    0.642802    0.650156    0.000000   -0.000000   -0.000000
   27.979204    0.650107    0.643233    0.650579    0.000000   -0.000000   -0.000000
   27.994654    0.650529    0.643664    0.651001    0.000000   -0.000000   -0.000000
   28.010103    0.650949    0.644093    0.651422    0.000000   -0.000000   -0.000000
   28.025553    0.651369    0.644521    0.651842    0.000000   -0.000000   -0.000000
   28.041003    0.651788    0.644949    0.652262    0.000000   -0.000000   -0.000000
   28.056452    0.652206    0.645376    0.652680    0.000000   -0.000000   -0.000000
   28.071902    0.652624    0.645802    0.653098    0.000000   -0.000000   -0.000000
   28.087351    0.653040    0.646227    0.653515    0.000000   -0.000000   -0.000000
   28.102801    0.653456    0.646652    0.653932    0.000000   -0.000000   -0.000000
   28.118251    0.653871    0.647076    0.654347    0.000000   -0.000000   -0.000000
   28.133700    0.654285    0.647499    0.654762    0.000000   -0.000000   -0.000000
   28.149150    0.654699    0.647921    0.655176    0.000000   -0.000000   -0.000000
   28.164599    0.655112    0.648342    0.655589    0.000000   -0.000000   -0.000000
   28.180049    0.655524    0.648763    0.656002    0.000000   -0.000000   -0.000000
   28.195498    0.655935    0.649182    0.656413    0.000000   -0.000000   -0.000000
   28.210948    0.656345    0.649601    0.656824    0.000000   -0.000000   -0.000000
   28.226398    0.656755    0.650020    0.657235    0.000000   -0.000000   -0.000000
   28.241847    0.657164    0.650437    0.657644    0.000000   -0.000000   -0.000000
   28.257297    0.657572    0.650854    0.658053    0.000000   -0.000000   -0.000000
   28.272746    0.657980    0.651270    0.658460    0.000000   -0.000000   -0.000000
   28.288196    0.658386    0.651685    0.658867    0.000000   -0.000000   -0.000000
   28.303646    0.658792    0.652099    0.659274    0.000000   -0.000000   -0.000000
   28.319095    0.659197    0.652513    0.659679    0.000000   -0.000000   -0.000000
   28.334545    0.659602    0.652925    0.660084    0.000000   -0.000000   -0.000000
   28.349994    0.660005    0.653337    0.660488    0.000000   -0.000000   -0.000000
   28.365444    0.660408    0.653749    0.660892    0.000000   -0.000000   -0.000000
   28.380894    0.660810    0.654159    0.661294    0.000000   -0.000000   -0.000000
   28.396343    0.661212    0.654569    0.661696    0.000000   -0.000000   -0.000000
   28.411793    0.661612    0.654978    0.662097    0.000000   -0.000000   -0.000000
   28.427242    0.662012    0.655386    0.662497    0.000000   -0.000000   -0.000000
   28.442692    0.662411    0.655794    0.662897    0.000000   -0.000000   -0.000000
   28.458141    0.662810    0.656200    0.663296    0.000000   -0.000000   -0.000000
   28.473591    0.663207    0.656606    0.663694    0.000000   -0.000000   -0.000000
   28.489041    0.663604    0.657011    0.664091    0.000000   -0.000000   -0.000000
   28.504490    0.664001    0.657416    0.664488    0.000000   -0.000000   -0.000000
   28.519940    0.664396    0.657820    0.664884    0.000000   -0.000000   -0.000000
   28.535389    0.664791    0.658223    0.665279    0.000000   -0.000000   -0.000000
   28.550839    0.665185    0.658625    0.665674    0.000000   -0.000000   -0.000000
   28.566289    0.665578    0.659026    0.666067    0.000000   -0.000000   -0.000000
   28.581738    0.665971    0.659427    0.666460    0.000000   -0.000000   -0.000000
   28.597188    0.666363    0.659827    0.666853    0.000000   -0.000000   -0.000000
   28.612637    0.666754    0.660227    0.667244    0.000000   -0.000000   -0.000000
   28.628087    0.667145    0.660625    0.667635    0.000000   -0.000000   -0.000000
   28.643537    0.667534    0.661023    0.668025    0.000000   -0.000000   -0.000000
   28.658986    0.667923    0.661420    0.668414    0.000000   -0.000000   -0.000000
   28.674436    0.668312    0.661817    0.668803    0.000000   -0.000000   -0.000000
   28.689885    0.668699    0.662212    0.669191    0.000000   -0.000000   -0.000000
   28.705335    0.669086    0.662607    0.669578    0.000000   -0.000000   -0.000000
   28.720784    0.669472    0.663002    0.669965    0.000000   -0.000000   -0.000000
   28.736234    0.669858    0.663395    0.670351    0.000000   -0.000000   -0.000000
   28.751684    0.670243    0.663788    0.670736    0.000000   -0.000000   -0.000000
   28.767133    0.670627    0.664180    0.671121    0.000000   -0.000000   -0.000000
   28.782583    0.671010    0.664571    0.671504    0.000000   -0.000000   -0.000000
   28.798032    0.671393    0.664962    0.671887    0.000000   -0.000000   -0.000000
   28.813482    0.671775    0.665352    0.672270    0.000000   -0.000000   -0.000000
   28.828932    0.672156    0.665741    0.672651    0.000000   -0.000000   -0.000000
   28.844381    0.672537    0.666130    0.673032    0.000000   -0.000000   -0.000000
   28.859831    0.672917    0.666518    0.673413    0.000000   -0.000000   -0.000000
   28.875280    0.673296    0.666905    0.673792    0.000000   -0.000000   -0.000000
   28.890730    0.673675    0.667291    0.674171    0.000000   -0.000000   -0.000000
   28.906180    0.674053    0.667677    0.674549    0.000000   -0.000000   -0.000000
   28.921629    0.674430    0.668062    0.674927    0.000000   -0.000000   -0.000000
   28.937079    0.674806    0.668447    0.675304    0.000000   -0.000000   -0.000000
   28.952528    0.675182    0.668830    0.675680    0.000000   -0.000000   -0.000000
   28.967978    0.675557    0.669213    0.676055    0.000000   -0.000000   -0.000000
   28.983427    0.675932    0.669595    0.676430    0.000000   -0.000000   -0.000000
   28.998877    0.676306    0.669977    0.676804    0.000000   -0.000000   -0.000000
   29.014327    0.676679    0.670358    0.677178    0.000000   -0.000000   -0.000000
   29.029776    0.677051    0.670738    0.677551    0.000000   -0.000000   -0.000000
   29.045226    0.677423    0.671118    0.677923    0.000000   -0.000000   -0.000000
   29.060675    0.677794    0.671497    0.678294    0.000000   -0.000000   -0.000000
   29.076125    0.678165    0.671875    0.678665    0.000000   -0.000000   -0.000000
   29.091575    0.678535    0.672252    0.679035    0.000000   -0.000000   -0.000000
   29.107024    0.678904    0.672629    0.679405    0.000000   -0.000000   -0.000000
   29.122474    0.679273    0.673005    0.679774    0.000000   -0.000000   -0.000000
   29.137923    0.679640    0.673381    0.680142    0.000000   -0.000000   -0.000000
   29.153373    0.680008    0.673756    0.680509    0.000000   -0.000000   -0.000000
   29.168823    0.680374    0.674130    0.680876    0.000000   -0.000000   -0.000000
   29.184272    0.680740    0.674504    0.681242    0.000000   -0.000000   -0.000000
   29.199722    0.681105    0.674876    0.681608    0.000000   -0.000000   -0.000000
   29.215171    0.681470    0.675249    0.681973    0.000000   -0.000000   -0.000000
   29.230621    0.681834    0.675620    0.682337    0.000000   -0.000000   -0.000000
   29.246070    0.682197    0.675991    0.682700    0.000000   -0.000000   -0.000000
   29.261520    0.682560    0.676361    0.683063    0.000000   -0.000000   -0.000000
   29.276970    0.682922    0.676731    0.683426    0.000000   -0.000000   -0.000000
   29.292419    0.683283    0.677100    0.683787    0.000000   -0.000000   -0.000000
   29.307869    0.683644    0.677468    0.684148    0.000000   -0.000000   -0.000000
   29.323318    0.684004    0.677835    0.684509    0.000000   -0.000000   -0.000000
   29.338768    0.684363    0.678202    0.684868    0.000000   -0.000000   -0.000000
   29.354218    0.684722    0.678569    0.685227    0.000000   -0.000000   -0.000000
   29.369667    0.685080    0.678934    0.685586    0.000000   -0.000000   -0.000000
   29.385117    0.685438    0.679299    0.685944    0.000000   -0.000000   -0.000000
   29.400566    0.685795    0.679663    0.686301    0.000000   -0.000000   -0.000000
   29.416016    0.686151    0.680027    0.686657    0.000000   -0.000000   -0.000000
   29.431466    0.686507    0.680390    0.687013    0.000000   -0.000000   -0.000000
   29.446915    0.686862    0.680753    0.687368    0.000000   -0.000000   -0.000000
   29.462365    0.687216    0.681114    0.687723    0.000000   -0.000000   -0.000000
   29.477814    0.687570    0.681476    0.688077    0.000000   -0.000000   -0.000000
   29.493264    0.687923    0.681836    0.688431    0.000000   -0.000000   -0.000000
   29.508713    0.688276    0.682196    0.688783    0.000000   -0.000000   -0.000000
   29.524163    0.688628    0.682555    0.689135    0.000000   -0.000000   -0.000000
   29.539613    0.688979    0.682914    0.689487    0.000000   -0.000000   -0.000000
   29.555062    0.689330    0.683272    0.689838    0.000000   -0.000000   -0.000000
   29.570512    0.689680    0.683629    0.690188    0.000000   -0.000000   -0.000000
   29.585961    0.690029    0.683986    0.690538    0.000000   -0.000000   -0.000000
   29.601411    0.690378    0.684342    0.690887    0.000000   -0.000000   -0.000000
   29.616861    0.690727    0.684698    0.691236    0.000000   -0.000000   -0.000000
   29.632310    0.691074    0.685052    0.691583    0.000000   -0.000000   -0.000000
   29.647760    0.691421    0.685407    0.691931    0.000000   -0.000000   -0.000000
   29.663209    0.691768    0.685760    0.692277    0.000000   -0.000000   -0.000000
   29.678659    0.692114    0.686113    0.692623    0.000000   -0.000000   -0.000000
   29.694109    0.692459    0.686466    0.692969    0.000000   -0.000000   -0.000000
   29.709558    0.692803    0.686818    0.693314    0.000000   -0.000000   -0.000000
   29.725008    0.693147    0.687169    0.693658    0.000000   -0.000000   -0.000000
   29.740457    0.693491    0.687519    0.694001    0.000000   -0.000000   -0.000000
   29.755907    0.693834    0.687869    0.694344    0.000000   -0.000000   -0.000000
   29.771356    0.694176    0.688219    0.694687    0.000000   -0.000000   -0.000000
   29.786806    0.694518    0.688567    0.695029    0.000000   -0.000000   -0.000000
   29.802256    0.694859    0.688915    0.695370    0.000000   -0.000000   -0.000000
   29.817705    0.695199    0.689263    0.695711    0.000000   -0.000000   -0.000000
   29.833155    0.695539    0.689610    0.696051    0.000000   -0.000000   -0.000000
   29.848604    0.695878    0.689956    0.696390    0.000000   -0.000000   -0.000000
   29.864054    0.696217    0.690302    0.696729    0.000000   -0.000000   -0.000000
   29.879504    0.696555    0.690647    0.697067    0.000000   -0.000000   -0.000000
   29.894953    0.696893    0.690992    0.697405    0.000000   -0.000000   -0.000000
   29.910403    0.697230    0.691336    0.697742    0.000000   -0.000000   -0.000000
   29.925852    0.697566    0.691679    0.698079    0.000000   -0.000000   -0.000000
   29.941302    0.697902    0.692022    0.698415    0.000000   -0.000000   -0.000000
   29.956752    0.698237    0.692364    0.698750    0.000000   -0.000000   -0.000000
   29.972201    0.698572    0.692706    0.699085    0.000000   -0.000000   -0.000000
   29.987651    0.698906    0.693047    0.699419    0.000000   -0.000000   -0.000000
   30.003100    0.699239    0.693387    0.699753    0.000000   -0.000000   -0.000000
   30.018550    0.699572    0.693727    0.700086    0.000000   -0.000000   -0.000000
   30.033999    0.699905    0.694066    0.700418    0.000000   -0.000000   -0.000000
   30.049449    0.700236    0.694405    0.700750    0.000000   -0.000000   -0.000000
   30.064899    0.700568    0.694743    0.701082    0.000000   -0.000000   -0.000000
   30.080348    0.700898    0.695080    0.701413    0.000000   -0.000000   -0.000000
   30.095798    0.701228    0.695417    0.701743    0.000000   -0.000000   -0.000000
   30.111247    0.701558    0.695754    0.702072    0.000000   -0.000000   -0.000000
   30.126697    0.701887    0.696089    0.702402    0.000000   -0.000000   -0.000000
   30.142147    0.702215    0.696425    0.702730    0.000000   -0.000000   -0.000000
   30.157596    0.702543    0.696759    0.703058    0.000000   -0.000000   -0.000000
   30.173046    0.702870    0.697093    0.703386    0.000000   -0.000000   -0.000000
   30.188495    0.703197    0.697427    0.703712    0.000000   -0.000000   -0.000000
   30.203945    0.703523    0.697760    0.704039    0.000000   -0.000000   -0.000000
   30.219395    0.703849    0.698092    0.704364    0.000000   -0.000000   -0.000000
   30.234844    0.704174    0.698424    0.704690    0.000000   -0.000000   -0.000000
   30.250294    0.704498    0.698755    0.705014    0.000000   -0.000000   -0.000000
   30.265743    0.704822    0.699086    0.705338    0.000000   -0.000000   -0.000000
   30.281193    0.705146    0.699416    0.705662    0.000000   -0.000000   -0.000000
   30.296642    0.705469    0.699745    0.705985    0.000000   -0.000000   -0.000000
   30.312092    0.705791    0.700074    0.706307    0.000000   -0.000000   -0.000000
   30.327542    0.706113    0.700403    0.706629    0.000000   -0.000000   -0.000000
   30.342991    0.706434    0.700731    0.706951    0.000000   -0.000000   -0.000000
   30.358441    0.706755    0.701058    0.707271    0.000000   -0.000000   -0.000000
   30.373890    0.707075    0.701385    0.707592    0.000000   -0.000000   -0.000000
   30.389340    0.707394    0.701711    0.707911    0.000000   -0.000000   -0.000000
   30.404790    0.707713    0.702037    0.708230    0.000000   -0.000000   -0.000000
   30.420239    0.708032    0.702362    0.708549    0.000000   -0.000000   -0.000000
   30.435689    0.708350    0.702686    0.708867    0.000000   -0.000000   -0.000000
   30.451138    0.708667    0.703010    0.709185    0.000000   -0.000000   -0.000000
   30.466588    0.708984    0.703334    0.709502    0.000000   -0.000000   -0.000000
   30.482038    0.709301    0.703657    0.709818    0.000000   -0.000000   -0.000000
   30.497487    0.709617    0.703979    0.710134    0.000000   -0.000000   -0.000000
   30.512937    0.709932    0.704301    0.710450    0.000000   -0.000000   -0.000000
   30.528386    0.710247    0.704622    0.710764    0.000000   -0.000000   -0.000000
   30.543836    0.710561    0.704943    0.711079    0.000000   -0.000000   -0.000000
   30.559285    0.710875    0.705263    0.711393    0.000000   -0.000000   -0.000000
   30.574735    0.711188    0.705583    0.711706    0.000000   -0.000000   -0.000000
   30.590185    0.711501    0.705902    0.712019    0.000000   -0.000000   -0.000000
   30.605634    0.711813    0.706221    0.712331    0.000000   -0.000000   -0.000000
   30.621084    0.712124    0.706539    0.712643    0.000000   -0.000000   -0.000000
   30.636533    0.712435    0.706856    0.712954    0.000000   -0.000000   -0.000000
   30.651983    0.712746    0.707173    0.713265    0.000000   -0.000000   -0.000000
   30.667433    0.713056    0.707490    0.713575    0.000000   -0.000000   -0.000000
   30.682882    0.713366    0.707806    0.713884    0.000000   -0.000000   -0.000000
   30.698332    0.713675    0.708121    0.714193    0.000000   -0.000000   -0.000000
   30.713781    0.713983    0.708436    0.714502    0.000000   -0.000000   -0.000000
   30.729231    0.714291    0.708751    0.714810    0.000000   -0.000000   -0.000000
   30.744681    0.714599    0.709064    0.715118    0.000000   -0.000000   -0.000000
   30.760130    0.714906    0.709378    0.715425    0.000000   -0.000000   -0.000000
   30.775580    0.715212    0.709691    0.715731    0.000000   -0.000000   -0.000000
   30.791029    0.715518    0.710003    0.716037    0.000000   -0.000000   -0.000000
   30.806479    0.715824    0.710315    0.716343    0.000000   -0.000000   -0.000000
   30.821928    0.716129    0.710626    0.716648    0.000000   -0.000000   -0.000000
   30.837378    0.716433    0.710937    0.716953    0.000000   -0.000000   -0.000000
   30.852828    0.716737    0.711247    0.717257    0.000000   -0.000000   -0.000000
   30.868277    0.717041    0.711557    0.717560    0.000000   -0.000000   -0.000000
   30.883727    0.717344    0.711866    0.717863    0.000000   -0.000000   -0.000000
 
 The outermost node in the dielectric function lies at epsilon=  18.2


--------------------------------------------------------------------------------------------------------


    OPTICS:  cpu time     33.4062: real time     33.4984
    4ORBIT:  cpu time      0.0000: real time      0.0000



 total charge

# of ion       s       p       d       tot
------------------------------------------
    1        0.380   0.381   9.242  10.004
    2        0.380   0.381   9.242  10.004
    3        0.380   0.381   9.242  10.004
    4        0.380   0.381   9.242  10.004
    5        1.271   0.967   0.065   2.304
    6        1.271   0.967   0.065   2.304
    7        1.271   0.967   0.065   2.304
    8        1.271   0.967   0.065   2.304
    9        1.333   2.331   0.000   3.663
   10        1.333   2.331   0.000   3.663
   11        1.333   2.331   0.000   3.663
   12        1.333   2.331   0.000   3.663
   13        1.338   2.318   0.000   3.656
   14        1.338   2.318   0.000   3.656
   15        1.338   2.318   0.000   3.656
   16        1.338   2.318   0.000   3.656
--------------------------------------------------
tot         17.287  23.991  37.229  78.507
 
 BZINTS: Fermi energy:    5.821089;  112.000000 electrons
         Band energy: 0.107966E+03;  BLOECHL correction:    0.000000

 total amount of memory used by VASP MPI-rank0    53219. kBytes
=======================================================================

   base      :      30000. kBytes
   nonl-proj :      14406. kBytes
   fftplans  :       1662. kBytes
   grid      :       2844. kBytes
   one-center:         31. kBytes
   wavefun   :       4276. kBytes
 
  
  
 General timing and accounting informations for this job:
 ========================================================
  
                  Total CPU time used (sec):      105.457
                            User time (sec):       96.332
                          System time (sec):        9.124
                         Elapsed time (sec):      106.601
  
                   Maximum memory used (kb):      292916.
                   Average memory used (kb):          N/A
  
                          Minor page faults:        57063
                          Major page faults:            0
                 Voluntary context switches:         2407
