 vasp.6.4.2 20Jul23 (build Mar 15 2024 16:31:38) complex                        
  
 executed on             LinuxIFC date 2025.03.19  14:23:17
 running  120 mpi-ranks, on    3 nodes
 distrk:  each k-point on  120 cores,    1 groups
 distr:  one band on NCORE=  10 cores,   12 groups


--------------------------------------------------------------------------------------------------------


 INCAR:
   ALGO = Normal
   CSHIFT = 1e-05
   EDIFF = 1e-05
   ENAUG = 1360
   ENCUT = 680
   GGA = Pe
   HFSCREEN = 0.2
   ISMEAR = -5
   ISPIN = 1
   LAECHG = True
   LASPH = True
   LCHARG = True
   LDAU = False
   LELF = False
   LHFCALC = True
   LMAXMIX = 4
   LMIXTAU = True
   LOPTICS = True
   LORBIT = 11
   LREAL = False
   LVTOT = True
   LWAVE = True
   NBANDS = 29
   NCORE = 10
   NEDOS = 1688
   NELM = 200
   NELMIN = 5
   NSW = 0
   PREC = Accurate
   PRECFOCK = Fast
   SIGMA = 0.05

 POTCAR:    PAW_PBE Cd 06Sep2000                  
 POTCAR:    PAW_PBE Te 08Apr2002                  
 WARNING: For LVTOT=.TRUE., VASP.5.x writes the TOTAL local potential to the
     file LOCPOT. If you want only the Hartree contributions, use LVHAR=.TRUE.
     instead. 

 POTCAR:    PAW_PBE Cd 06Sep2000                  
   VRHFIN =Cd : s2 d10                                                                              
   LEXCH  = PE                                                                                      
   EATOM  =  1293.1815 eV,   95.0462 Ry                                                             
                                                                                                    
   TITEL  = PAW_PBE Cd 06Sep2000                                                                    
   LULTRA =        F    use ultrasoft PP ?                                                          
   IUNSCR =        1    unscreen: 0-lin 1-nonlin 2-no                                               
   RPACOR =    2.000    partial core radius                                                         
   POMASS =  112.411; ZVAL   =   12.000    mass and valenz                                          
   RCORE  =    2.300    outmost cutoff radius                                                       
   RWIGS  =    2.980; RWIGS  =    1.577    wigner-seitz radius (au A)                               
   ENMAX  =  274.336; ENMIN  =  205.752 eV                                                          
   RCLOC  =    2.054    cutoff for local pot                                                        
   LCOR   =        T    correct aug charges                                                         
   LPAW   =        T    paw PP                                                                      
   EAUG   =  456.106                                                                                
   DEXC   =    0.000                                                                                
   RMAX   =    2.358    core radius for proj-oper                                                   
   RAUG   =    1.300    factor for augmentation sphere                                              
   RDEP   =    2.450    radius for radial grids                                                     
   RDEPT  =    1.955    core radius for aug-charge                                                  
                                                                                                    
   Atomic configuration                                                                             
   12 entries                                                                                       
     n  l   j            E        occ.                                                              
     1  0  0.50    -26519.7817   2.0000                                                             
     2  0  0.50     -3936.9612   2.0000                                                             
     2  1  1.50     -3532.2230   6.0000                                                             
     3  0  0.50      -733.7908   2.0000                                                             
     3  1  1.50      -601.0792   6.0000                                                             
     3  2  2.50      -393.5307  10.0000                                                             
     4  0  0.50      -105.8977   2.0000                                                             
     4  1  1.50       -66.9488   6.0000                                                             
     4  2  2.50       -11.7331  10.0000                                                             
     5  0  0.50        -5.6592   2.0000                                                             
     5  1  0.50        -1.3606   0.0000                                                             
     4  3  2.50        -1.3606   0.0000                                                             
   Description                                                                                      
     l       E           TYP  RCUT    TYP  RCUT                                                     
     2    -11.7331479     23  2.300                                                                 
     2    -13.0937305     23  2.300                                                                 
     0     -5.6591502     23  2.300                                                                 
     0     -1.5561433     23  2.300                                                                 
     1     -2.7211652     23  2.300                                                                 
     1      8.3548275     23  2.300                                                                 
  local pseudopotential read in
  partial core-charges read in
  partial kinetic energy density read in
  atomic valenz-charges read in
  non local Contribution for L=           2  read in
    real space projection operators read in
  non local Contribution for L=           2  read in
    real space projection operators read in
  non local Contribution for L=           0  read in
    real space projection operators read in
  non local Contribution for L=           0  read in
    real space projection operators read in
  non local Contribution for L=           1  read in
    real space projection operators read in
  non local Contribution for L=           1  read in
    real space projection operators read in
    PAW grid and wavefunctions read in
 
   number of l-projection  operators is LMAX  =           6
   number of lm-projection operators is LMMAX =          18
 
 POTCAR:    PAW_PBE Te 08Apr2002                  
   VRHFIN =Te: s2p4                                                                                 
   LEXCH  = PE                                                                                      
   EATOM  =   223.2721 eV,   16.4100 Ry                                                             
                                                                                                    
   TITEL  = PAW_PBE Te 08Apr2002                                                                    
   LULTRA =        F    use ultrasoft PP ?                                                          
   IUNSCR =        1    unscreen: 0-lin 1-nonlin 2-no                                               
   RPACOR =    2.200    partial core radius                                                         
   POMASS =  127.600; ZVAL   =    6.000    mass and valenz                                          
   RCORE  =    2.300    outmost cutoff radius                                                       
   RWIGS  =    2.900; RWIGS  =    1.535    wigner-seitz radius (au A)                               
   ENMAX  =  174.982; ENMIN  =  131.236 eV                                                          
   ICORE  =        3    local potential                                                             
   LCOR   =        T    correct aug charges                                                         
   LPAW   =        T    paw PP                                                                      
   EAUG   =  368.792                                                                                
   DEXC   =    0.000                                                                                
   RMAX   =    2.345    core radius for proj-oper                                                   
   RAUG   =    1.300    factor for augmentation sphere                                              
   RDEP   =    2.397    radius for radial grids                                                     
   RDEPT  =    2.174    core radius for aug-charge                                                  
                                                                                                    
   Atomic configuration                                                                             
   13 entries                                                                                       
     n  l   j            E        occ.                                                              
     1  0  0.50    -31621.2075   2.0000                                                             
     2  0  0.50     -4848.7941   2.0000                                                             
     2  1  1.50     -4352.1960   6.0000                                                             
     3  0  0.50      -964.9612   2.0000                                                             
     3  1  1.50      -803.6179   6.0000                                                             
     3  2  2.50      -559.8710  10.0000                                                             
     4  0  0.50      -164.3522   2.0000                                                             
     4  1  1.50      -114.3756   6.0000                                                             
     4  2  2.50       -41.6483  10.0000                                                             
     5  0  0.50       -15.1072   2.0000                                                             
     5  1  0.50        -5.9526   4.0000                                                             
     5  2  1.50        -5.4423   0.0000                                                             
     4  3  2.50        -5.4423   0.0000                                                             
   Description                                                                                      
     l       E           TYP  RCUT    TYP  RCUT                                                     
     0    -15.1072389     23  2.300                                                                 
     0    -16.4678215     23  2.300                                                                 
     1     -5.9526306     23  2.300                                                                 
     1     -2.4873968     23  2.300                                                                 
     2     -5.4423304     23  2.300                                                                 
     3     -1.3605826     23  2.300                                                                 
  local pseudopotential read in
  partial core-charges read in
  partial kinetic energy density read in
  atomic valenz-charges read in
  non local Contribution for L=           0  read in
    real space projection operators read in
  non local Contribution for L=           0  read in
    real space projection operators read in
  non local Contribution for L=           1  read in
    real space projection operators read in
  non local Contribution for L=           1  read in
    real space projection operators read in
  non local Contribution for L=           2  read in
    real space projection operators read in
    PAW grid and wavefunctions read in
 
   number of l-projection  operators is LMAX  =           5
   number of lm-projection operators is LMMAX =          13
 
  PAW_PBE Cd 06Sep2000                  :
 energy of atom  1       EATOM=-1293.1815
 kinetic energy error for atom=    0.0016 (will be added to EATOM!!)
  PAW_PBE Te 08Apr2002                  :
 energy of atom  2       EATOM= -223.2721
 kinetic energy error for atom=    0.0003 (will be added to EATOM!!)
 
 
 POSCAR: Cd1 Te1
  positions in direct lattice
  No initial velocities read in
 exchange correlation table for  LEXCH =        8
   RHO(1)=    0.500       N(1)  =     2000
   RHO(2)=  100.500       N(2)  =     4000
 


--------------------------------------------------------------------------------------------------------


 ion  position               nearest neighbor table
   1  0.000  0.000  0.000-   2 2.84   2 2.84   2 2.84   2 2.84
   2  0.250  0.250  0.250-   1 2.84   1 2.84   1 2.84   1 2.84
 
  LATTYP: Found a face centered cubic cell.
 ALAT       =     6.5642266394
  
  Lattice vectors:
  
 A1 = (   4.0197509263,   0.0000000000,   2.3208040418)
 A2 = (   1.3399166303,   3.7898585364,   2.3208040385)
 A3 = (   0.0000000000,   0.0000000000,   4.6416101500)


Analysis of symmetry for initial positions (statically):
=====================================================================
 Subroutine PRICEL returns:
 Original cell was already a primitive cell.
 

 Routine SETGRP: Setting up the symmetry group for a 
 face centered cubic supercell.


 Subroutine GETGRP returns: Found 24 space group operations
 (whereof 24 operations were pure point group operations)
 out of a pool of 48 trial point group operations.


The static configuration has the point symmetry T_d .


Analysis of symmetry for dynamics (positions and initial velocities):
=====================================================================
 Subroutine PRICEL returns:
 Original cell was already a primitive cell.
 

 Routine SETGRP: Setting up the symmetry group for a 
 face centered cubic supercell.


 Subroutine GETGRP returns: Found 24 space group operations
 (whereof 24 operations were pure point group operations)
 out of a pool of 48 trial point group operations.


The dynamic configuration has the point symmetry T_d .


 Subroutine INISYM returns: Found 24 space group operations
 (whereof 24 operations are pure point group operations),
 and found     1 'primitive' translations


----------------------------------------------------------------------------------------

                                     Primitive cell                                     

  volume of cell :      70.7116

  direct lattice vectors                    reciprocal lattice vectors
     4.019750926  0.000000000  2.320804042     0.248771632 -0.087954008  0.000000000
     1.339916630  3.789858536  2.320804038     0.000000000  0.263862092  0.000000000
     0.000000000  0.000000000  4.641610150    -0.124385761 -0.087954002  0.215442480

  length of vectors
     4.641608440  4.641609170  4.641610150     0.263862147  0.263862092  0.263862059

  position of ions in fractional coordinates (direct lattice)
     0.000000000  0.000000000  0.000000000
     0.250000000  0.250000000  0.250000000

  ion indices of the primitive-cell ions
   primitive index   ion index
                 1           1
                 2           2

----------------------------------------------------------------------------------------

 
 
 KPOINTS: pymatgen with grid density = 449 / numbe

Automatic generation of k-mesh.
 Grid dimensions read from file:
 generate k-points for:    6    6    6

 Generating k-lattice:

  Cartesian coordinates                     Fractional coordinates (reciprocal lattice)
     0.041461939 -0.014659001  0.000000000     0.166666667 -0.000000000  0.000000000
     0.000000000  0.043977015  0.000000000     0.000000000  0.166666667  0.000000000
    -0.020730960 -0.014659000  0.035907080     0.000000000 -0.000000000  0.166666667

  Length of vectors
     0.043977024  0.043977015  0.043977010

  Shift w.r.t. Gamma in fractional coordinates (k-lattice)
     0.000000000  0.000000000  0.000000000

 TETIRR: Found     35 inequivalent tetrahedra from     1296
 
 Subroutine IBZKPT returns following result:
 ===========================================
 
 Found     16 irreducible k-points:
 
 Following reciprocal coordinates:
            Coordinates               Weight
  0.000000  0.000000  0.000000      1.000000
  0.166667  0.000000  0.000000      8.000000
  0.333333  0.000000  0.000000      8.000000
  0.500000  0.000000  0.000000      4.000000
  0.166667  0.166667  0.000000      6.000000
  0.333333  0.166667  0.000000     24.000000
  0.500000  0.166667  0.000000     24.000000
 -0.333333  0.166667  0.000000     24.000000
 -0.166667  0.166667  0.000000     12.000000
  0.333333  0.333333  0.000000      6.000000
  0.500000  0.333333  0.000000     24.000000
 -0.333333  0.333333  0.000000     12.000000
  0.500000  0.500000  0.000000      3.000000
  0.500000  0.333333  0.166667     24.000000
 -0.333333  0.333333  0.166667     24.000000
 -0.333333  0.500000  0.166667     12.000000
 
 Following cartesian coordinates:
            Coordinates               Weight
  0.000000  0.000000  0.000000      1.000000
  0.041462 -0.014659  0.000000      8.000000
  0.082924 -0.029318  0.000000      8.000000
  0.124386 -0.043977  0.000000      4.000000
  0.041462  0.029318  0.000000      6.000000
  0.082924  0.014659  0.000000     24.000000
  0.124386  0.000000  0.000000     24.000000
 -0.082924  0.073295  0.000000     24.000000
 -0.041462  0.058636  0.000000     12.000000
  0.082924  0.058636  0.000000      6.000000
  0.124386  0.043977  0.000000     24.000000
 -0.082924  0.117272  0.000000     12.000000
  0.124386  0.087954  0.000000      3.000000
  0.103655  0.029318  0.035907     24.000000
 -0.103655  0.102613  0.035907     24.000000
 -0.103655  0.146590  0.035907     12.000000
 
 
 Subroutine IBZKPT_HF returns following result:
 ==============================================
 
 Found    216 k-points in 1st BZ
 the following    216 k-points will be used (e.g. in the exchange kernel)
 Following reciprocal coordinates:   # in IRBZ
  0.000000  0.000000  0.000000    0.00462963   1 t-inv F
  0.166667  0.000000  0.000000    0.00462963   2 t-inv F
  0.333333  0.000000  0.000000    0.00462963   3 t-inv F
  0.500000  0.000000  0.000000    0.00462963   4 t-inv F
  0.166667  0.166667  0.000000    0.00462963   5 t-inv F
  0.333333  0.166667  0.000000    0.00462963   6 t-inv F
  0.500000  0.166667  0.000000    0.00462963   7 t-inv F
 -0.333333  0.166667  0.000000    0.00462963   8 t-inv F
 -0.166667  0.166667  0.000000    0.00462963   9 t-inv F
  0.333333  0.333333  0.000000    0.00462963  10 t-inv F
  0.500000  0.333333  0.000000    0.00462963  11 t-inv F
 -0.333333  0.333333  0.000000    0.00462963  12 t-inv F
  0.500000  0.500000  0.000000    0.00462963  13 t-inv F
  0.500000  0.333333  0.166667    0.00462963  14 t-inv F
 -0.333333  0.333333  0.166667    0.00462963  15 t-inv F
 -0.333333  0.500000  0.166667    0.00462963  16 t-inv F
  0.000000  0.166667  0.000000    0.00462963   2 t-inv F
  0.000000  0.000000  0.166667    0.00462963   2 t-inv F
 -0.166667 -0.166667 -0.166667    0.00462963   2 t-inv F
  0.000000  0.333333  0.000000    0.00462963   3 t-inv F
  0.000000  0.000000  0.333333    0.00462963   3 t-inv F
 -0.333333 -0.333333 -0.333333    0.00462963   3 t-inv F
  0.000000  0.500000  0.000000    0.00462963   4 t-inv F
  0.000000  0.000000  0.500000    0.00462963   4 t-inv F
 -0.500000 -0.500000 -0.500000    0.00462963   4 t-inv F
  0.000000  0.166667  0.166667    0.00462963   5 t-inv F
  0.166667  0.000000  0.166667    0.00462963   5 t-inv F
 -0.166667 -0.166667  0.000000    0.00462963   5 t-inv F
 -0.166667  0.000000 -0.166667    0.00462963   5 t-inv F
  0.000000 -0.166667 -0.166667    0.00462963   5 t-inv F
  0.000000  0.333333  0.166667    0.00462963   6 t-inv F
  0.166667  0.000000  0.333333    0.00462963   6 t-inv F
 -0.166667 -0.166667  0.166667    0.00462963   6 t-inv F
 -0.333333 -0.166667 -0.333333    0.00462963   6 t-inv F
  0.166667  0.333333  0.000000    0.00462963   6 t-inv F
  0.166667 -0.166667 -0.166667    0.00462963   6 t-inv F
 -0.333333 -0.333333 -0.166667    0.00462963   6 t-inv F
  0.000000  0.166667  0.333333    0.00462963   6 t-inv F
 -0.166667  0.166667 -0.166667    0.00462963   6 t-inv F
 -0.166667 -0.333333 -0.333333    0.00462963   6 t-inv F
  0.333333  0.000000  0.166667    0.00462963   6 t-inv F
  0.000000  0.500000  0.166667    0.00462963   7 t-inv F
  0.166667  0.000000  0.500000    0.00462963   7 t-inv F
 -0.166667 -0.166667  0.333333    0.00462963   7 t-inv F
 -0.500000 -0.333333 -0.500000    0.00462963   7 t-inv F
  0.166667  0.500000  0.000000    0.00462963   7 t-inv F
  0.333333 -0.166667 -0.166667    0.00462963   7 t-inv F
 -0.500000 -0.500000 -0.333333    0.00462963   7 t-inv F
  0.000000  0.166667  0.500000    0.00462963   7 t-inv F
 -0.166667  0.333333 -0.166667    0.00462963   7 t-inv F
 -0.333333 -0.500000 -0.500000    0.00462963   7 t-inv F
  0.500000  0.000000  0.166667    0.00462963   7 t-inv F
  0.000000 -0.333333  0.166667    0.00462963   8 t-inv F
  0.166667  0.000000 -0.333333    0.00462963   8 t-inv F
 -0.166667 -0.166667 -0.500000    0.00462963   8 t-inv F
  0.333333  0.500000  0.333333    0.00462963   8 t-inv F
  0.166667 -0.333333  0.000000    0.00462963   8 t-inv F
 -0.500000 -0.166667 -0.166667    0.00462963   8 t-inv F
  0.333333  0.333333  0.500000    0.00462963   8 t-inv F
  0.000000  0.166667 -0.333333    0.00462963   8 t-inv F
 -0.166667 -0.500000 -0.166667    0.00462963   8 t-inv F
  0.500000  0.333333  0.333333    0.00462963   8 t-inv F
 -0.333333  0.000000  0.166667    0.00462963   8 t-inv F
  0.000000 -0.166667  0.166667    0.00462963   9 t-inv F
  0.166667  0.000000 -0.166667    0.00462963   9 t-inv F
 -0.166667 -0.166667 -0.333333    0.00462963   9 t-inv F
  0.166667  0.333333  0.166667    0.00462963   9 t-inv F
  0.166667 -0.166667  0.000000    0.00462963   9 t-inv F
 -0.333333 -0.166667 -0.166667    0.00462963   9 t-inv F
  0.166667  0.166667  0.333333    0.00462963   9 t-inv F
  0.000000  0.166667 -0.166667    0.00462963   9 t-inv F
 -0.166667 -0.333333 -0.166667    0.00462963   9 t-inv F
  0.333333  0.166667  0.166667    0.00462963   9 t-inv F
 -0.166667  0.000000  0.166667    0.00462963   9 t-inv F
  0.000000  0.333333  0.333333    0.00462963  10 t-inv F
  0.333333  0.000000  0.333333    0.00462963  10 t-inv F
 -0.333333 -0.333333 -0.000000    0.00462963  10 t-inv F
 -0.333333  0.000000 -0.333333    0.00462963  10 t-inv F
 -0.000000 -0.333333 -0.333333    0.00462963  10 t-inv F
  0.000000  0.500000  0.333333    0.00462963  11 t-inv F
  0.333333  0.000000  0.500000    0.00462963  11 t-inv F
 -0.333333 -0.333333  0.166667    0.00462963  11 t-inv F
 -0.500000 -0.166667 -0.500000    0.00462963  11 t-inv F
  0.333333  0.500000  0.000000    0.00462963  11 t-inv F
  0.166667 -0.333333 -0.333333    0.00462963  11 t-inv F
 -0.500000 -0.500000 -0.166667    0.00462963  11 t-inv F
  0.000000  0.333333  0.500000    0.00462963  11 t-inv F
 -0.333333  0.166667 -0.333333    0.00462963  11 t-inv F
 -0.166667 -0.500000 -0.500000    0.00462963  11 t-inv F
  0.500000  0.000000  0.333333    0.00462963  11 t-inv F
  0.000000 -0.333333  0.333333    0.00462963  12 t-inv F
  0.333333  0.000000 -0.333333    0.00462963  12 t-inv F
 -0.333333 -0.333333 -0.666667    0.00462963  12 t-inv F
  0.333333  0.666667  0.333333    0.00462963  12 t-inv F
  0.333333 -0.333333  0.000000    0.00462963  12 t-inv F
 -0.666667 -0.333333 -0.333333    0.00462963  12 t-inv F
  0.333333  0.333333  0.666667    0.00462963  12 t-inv F
  0.000000  0.333333 -0.333333    0.00462963  12 t-inv F
 -0.333333 -0.666667 -0.333333    0.00462963  12 t-inv F
  0.666667  0.333333  0.333333    0.00462963  12 t-inv F
 -0.333333  0.000000  0.333333    0.00462963  12 t-inv F
  0.000000  0.500000  0.500000    0.00462963  13 t-inv F
  0.500000  0.000000  0.500000    0.00462963  13 t-inv F
  0.166667  0.500000  0.333333    0.00462963  14 t-inv F
  0.333333  0.166667  0.500000    0.00462963  14 t-inv F
 -0.333333 -0.166667  0.166667    0.00462963  14 t-inv F
 -0.500000 -0.166667 -0.333333    0.00462963  14 t-inv F
 -0.166667  0.333333  0.166667    0.00462963  14 t-inv F
  0.166667  0.333333 -0.166667    0.00462963  14 t-inv F
  0.166667 -0.166667 -0.333333    0.00462963  14 t-inv F
 -0.333333 -0.166667 -0.500000    0.00462963  14 t-inv F
 -0.333333 -0.500000 -0.166667    0.00462963  14 t-inv F
  0.166667 -0.166667  0.333333    0.00462963  14 t-inv F
  0.166667 -0.333333 -0.166667    0.00462963  14 t-inv F
 -0.166667  0.166667  0.333333    0.00462963  14 t-inv F
 -0.333333  0.166667 -0.166667    0.00462963  14 t-inv F
 -0.500000 -0.333333 -0.166667    0.00462963  14 t-inv F
 -0.166667 -0.333333 -0.500000    0.00462963  14 t-inv F
  0.333333  0.166667 -0.166667    0.00462963  14 t-inv F
 -0.166667  0.166667 -0.333333    0.00462963  14 t-inv F
  0.333333 -0.166667  0.166667    0.00462963  14 t-inv F
 -0.166667 -0.333333  0.166667    0.00462963  14 t-inv F
 -0.166667 -0.500000 -0.333333    0.00462963  14 t-inv F
  0.500000  0.166667  0.333333    0.00462963  14 t-inv F
  0.333333  0.500000  0.166667    0.00462963  14 t-inv F
  0.166667  0.333333  0.500000    0.00462963  14 t-inv F
  0.166667 -0.333333  0.333333    0.00462963  15 t-inv F
  0.333333  0.166667 -0.333333    0.00462963  15 t-inv F
 -0.333333 -0.166667 -0.666667    0.00462963  15 t-inv F
  0.333333  0.666667  0.500000    0.00462963  15 t-inv F
 -0.166667 -0.500000  0.166667    0.00462963  15 t-inv F
  0.166667 -0.500000 -0.166667    0.00462963  15 t-inv F
 -0.666667 -0.166667 -0.333333    0.00462963  15 t-inv F
  0.500000  0.666667  0.333333    0.00462963  15 t-inv F
  0.500000  0.333333  0.666667    0.00462963  15 t-inv F
  0.166667 -0.166667 -0.500000    0.00462963  15 t-inv F
 -0.666667 -0.333333 -0.166667    0.00462963  15 t-inv F
 -0.166667  0.166667 -0.500000    0.00462963  15 t-inv F
 -0.333333 -0.666667 -0.166667    0.00462963  15 t-inv F
  0.333333  0.500000  0.666667    0.00462963  15 t-inv F
  0.666667  0.500000  0.333333    0.00462963  15 t-inv F
 -0.500000  0.166667 -0.166667    0.00462963  15 t-inv F
 -0.166667 -0.666667 -0.333333    0.00462963  15 t-inv F
 -0.500000 -0.166667  0.166667    0.00462963  15 t-inv F
 -0.166667 -0.333333 -0.666667    0.00462963  15 t-inv F
  0.666667  0.333333  0.500000    0.00462963  15 t-inv F
 -0.333333  0.166667  0.333333    0.00462963  15 t-inv F
  0.333333 -0.333333  0.166667    0.00462963  15 t-inv F
  0.166667  0.333333 -0.333333    0.00462963  15 t-inv F
  0.166667 -0.333333  0.500000    0.00462963  16 t-inv F
  0.500000  0.166667 -0.333333    0.00462963  16 t-inv F
 -0.500000 -0.333333 -0.833333    0.00462963  16 t-inv F
  0.333333  0.833333  0.500000    0.00462963  16 t-inv F
 -0.166667 -0.500000  0.333333    0.00462963  16 t-inv F
  0.333333 -0.500000 -0.166667    0.00462963  16 t-inv F
  0.500000  0.833333  0.333333    0.00462963  16 t-inv F
  0.500000  0.333333  0.833333    0.00462963  16 t-inv F
 -0.833333 -0.500000 -0.333333    0.00462963  16 t-inv F
 -0.166667  0.333333 -0.500000    0.00462963  16 t-inv F
 -0.333333 -0.833333 -0.500000    0.00462963  16 t-inv F
 -0.166667 -0.000000  0.000000    0.00462963   2 t-inv T
  0.000000 -0.166667 -0.000000    0.00462963   2 t-inv T
 -0.000000  0.000000 -0.166667    0.00462963   2 t-inv T
  0.166667  0.166667  0.166667    0.00462963   2 t-inv T
 -0.333333 -0.000000  0.000000    0.00462963   3 t-inv T
  0.000000 -0.333333 -0.000000    0.00462963   3 t-inv T
 -0.000000  0.000000 -0.333333    0.00462963   3 t-inv T
  0.333333  0.333333  0.333333    0.00462963   3 t-inv T
 -0.333333 -0.166667  0.000000    0.00462963   6 t-inv T
  0.000000 -0.333333 -0.166667    0.00462963   6 t-inv T
 -0.166667  0.000000 -0.333333    0.00462963   6 t-inv T
  0.166667  0.166667 -0.166667    0.00462963   6 t-inv T
  0.333333  0.166667  0.333333    0.00462963   6 t-inv T
 -0.166667 -0.333333  0.000000    0.00462963   6 t-inv T
 -0.166667  0.166667  0.166667    0.00462963   6 t-inv T
  0.333333  0.333333  0.166667    0.00462963   6 t-inv T
  0.000000 -0.166667 -0.333333    0.00462963   6 t-inv T
  0.166667 -0.166667  0.166667    0.00462963   6 t-inv T
  0.166667  0.333333  0.333333    0.00462963   6 t-inv T
 -0.333333  0.000000 -0.166667    0.00462963   6 t-inv T
 -0.500000 -0.166667  0.000000    0.00462963   7 t-inv T
  0.000000 -0.500000 -0.166667    0.00462963   7 t-inv T
 -0.166667  0.000000 -0.500000    0.00462963   7 t-inv T
  0.166667  0.166667 -0.333333    0.00462963   7 t-inv T
  0.500000  0.333333  0.500000    0.00462963   7 t-inv T
 -0.166667 -0.500000  0.000000    0.00462963   7 t-inv T
 -0.333333  0.166667  0.166667    0.00462963   7 t-inv T
  0.500000  0.500000  0.333333    0.00462963   7 t-inv T
  0.000000 -0.166667 -0.500000    0.00462963   7 t-inv T
  0.166667 -0.333333  0.166667    0.00462963   7 t-inv T
  0.333333  0.500000  0.500000    0.00462963   7 t-inv T
 -0.500000  0.000000 -0.166667    0.00462963   7 t-inv T
  0.333333 -0.166667  0.000000    0.00462963   8 t-inv T
  0.000000  0.333333 -0.166667    0.00462963   8 t-inv T
 -0.166667  0.000000  0.333333    0.00462963   8 t-inv T
  0.166667  0.166667  0.500000    0.00462963   8 t-inv T
 -0.333333 -0.500000 -0.333333    0.00462963   8 t-inv T
 -0.166667  0.333333  0.000000    0.00462963   8 t-inv T
  0.500000  0.166667  0.166667    0.00462963   8 t-inv T
 -0.333333 -0.333333 -0.500000    0.00462963   8 t-inv T
  0.000000 -0.166667  0.333333    0.00462963   8 t-inv T
  0.166667  0.500000  0.166667    0.00462963   8 t-inv T
 -0.500000 -0.333333 -0.333333    0.00462963   8 t-inv T
  0.333333  0.000000 -0.166667    0.00462963   8 t-inv T
 -0.500000 -0.333333  0.000000    0.00462963  11 t-inv T
  0.000000 -0.500000 -0.333333    0.00462963  11 t-inv T
 -0.333333  0.000000 -0.500000    0.00462963  11 t-inv T
  0.333333  0.333333 -0.166667    0.00462963  11 t-inv T
  0.500000  0.166667  0.500000    0.00462963  11 t-inv T
 -0.333333 -0.500000  0.000000    0.00462963  11 t-inv T
 -0.166667  0.333333  0.333333    0.00462963  11 t-inv T
  0.500000  0.500000  0.166667    0.00462963  11 t-inv T
  0.000000 -0.333333 -0.500000    0.00462963  11 t-inv T
  0.333333 -0.166667  0.333333    0.00462963  11 t-inv T
  0.166667  0.500000  0.500000    0.00462963  11 t-inv T
 -0.500000  0.000000 -0.333333    0.00462963  11 t-inv T
 -----------------------------------------------------------------------------
|                                                                             |
|           W    W    AA    RRRRR   N    N  II  N    N   GGGG   !!!           |
|           W    W   A  A   R    R  NN   N  II  NN   N  G    G  !!!           |
|           W    W  A    A  R    R  N N  N  II  N N  N  G       !!!           |
|           W WW W  AAAAAA  RRRRR   N  N N  II  N  N N  G  GGG   !            |
|           WW  WW  A    A  R   R   N   NN  II  N   NN  G    G                |
|           W    W  A    A  R    R  N    N  II  N    N   GGGG   !!!           |
|                                                                             |
|     The number of bands has been changed from the values supplied in        |
|     the INCAR file. This is a result of running the parallel version.       |
|     The orbitals not found in the WAVECAR file will be initialized with     |
|     random numbers, which is usually adequate. For correlated               |
|     calculations, however, you should redo the groundstate calculation.     |
|     I found NBANDS = 29. Now, NBANDS = 36.                                  |
|                                                                             |
 -----------------------------------------------------------------------------



--------------------------------------------------------------------------------------------------------




 Dimension of arrays:
   k-points           NKPTS =     16   k-points in BZ     NKDIM =    216   number of bands    NBANDS=     36
   number of dos      NEDOS =   1688   number of ions     NIONS =      2
   non local maximal  LDIM  =      6   non local SUM 2l+1 LMDIM =     18
   total plane-waves  NPLWV =  64000
   max r-space proj   IRMAX =      1   max aug-charges    IRDMAX=  52836
   dimension x,y,z NGX =    40 NGY =   40 NGZ =   40
   dimension x,y,z NGXF=    80 NGYF=   80 NGZF=   80
   support grid    NGXF=    80 NGYF=   80 NGZF=   80
   ions per type =               1   1
   NGX,Y,Z   is equivalent  to a cutoff of  14.33, 14.33, 14.33 a.u.
   NGXF,Y,Z  is equivalent  to a cutoff of  28.65, 28.65, 28.65 a.u.

 SYSTEM =  unknown system                          
 POSCAR =  Cd1 Te1                                 

 Startparameter for this run:
   NWRITE =      2    write-flag & timer
   PREC   = accura    normal or accurate (medium, high low for compatibility)
   ISTART =      0    job   : 0-new  1-cont  2-samecut
   ICHARG =      2    charge: 1-file 2-atom 10-const
   ISPIN  =      1    spin polarized calculation?
   LNONCOLLINEAR =      F non collinear calculations
   LSORBIT =      F    spin-orbit coupling
   INIWAV =      1    electr: 0-lowe 1-rand  2-diag
   LASPH  =      T    aspherical Exc in radial PAW
 Electronic Relaxation 1
   ENCUT  =  680.0 eV  49.98 Ry    7.07 a.u.   9.87  9.87  9.87*2*pi/ulx,y,z
   ENINI  =  680.0     initial cutoff
   ENAUG  = 1360.0 eV  augmentation charge cutoff
   NELM   =    200;   NELMIN=  5; NELMDL= -5     # of ELM steps 
   EDIFF  = 0.1E-04   stopping-criterion for ELM
   LREAL  =      F    real-space projection
   NLSPLINE    = F    spline interpolate recip. space projectors
   LCOMPAT=      F    compatible to vasp.4.4
   GGA_COMPAT  = T    GGA compatible to vasp.4.4-vasp.4.6
   LMAXPAW     = -100 max onsite density
   LMAXMIX     =    4 max onsite mixed and CHGCAR
   VOSKOWN=      0    Vosko Wilk Nusair interpolation
   ROPT   =    0.00000   0.00000
 Ionic relaxation
   EDIFFG = 0.1E-03   stopping-criterion for IOM
   NSW    =      0    number of steps for IOM
   NBLOCK =      1;   KBLOCK =      1    inner block; outer block 
   IBRION =     -1    ionic relax: 0-MD 1-quasi-New 2-CG
   NFREE  =      0    steps in history (QN), initial steepest desc. (CG)
   ISIF   =      0    stress and relaxation
   IWAVPR =     10    prediction:  0-non 1-charg 2-wave 3-comb
   ISYM   =      3    0-nonsym 1-usesym 2-fastsym
   LCORR  =      T    Harris-Foulkes like correction to forces

   POTIM  = 0.5000    time-step for ionic-motion
   TEIN   =    0.0    initial temperature
   TEBEG  =    0.0;   TEEND  =   0.0 temperature during run
   SMASS  =  -3.00    Nose mass-parameter (am)
   estimated Nose-frequenzy (Omega)   =  0.10E-29 period in steps = 0.13E+47 mass=  -0.492E-27a.u.
   SCALEE = 1.0000    scale energy and forces
   NPACO  =    256;   APACO  = 10.0  distance and # of slots for P.C.
   PSTRESS=    0.0 pullay stress

  Mass of Ions in am
   POMASS = 112.41127.60
  Ionic Valenz
   ZVAL   =  12.00  6.00
  Atomic Wigner-Seitz radii
   RWIGS  =  -1.00 -1.00
  virtual crystal weights 
   VCA    =   1.00  1.00
   NELECT =      18.0000    total number of electrons
   NUPDOWN=      -1.0000    fix difference up-down

 DOS related values:
   EMIN   =  10.00;   EMAX   =-10.00  energy-range for DOS
   EFERMI =   0.00;   METHOD = LEGACY      
   ISMEAR =    -5;   SIGMA  =   0.05  broadening in eV -4-tet -1-fermi 0-gaus

 Electronic relaxation 2 (details)
   IALGO  =     38    algorithm
   LDIAG  =      T    sub-space diagonalisation (order eigenvalues)
   LSUBROT=      F    optimize rotation matrix (better conditioning)
   TURBO    =      0    0=normal 1=particle mesh
   IRESTART =      0    0=no restart 2=restart with 2 vectors
   NREBOOT  =      0    no. of reboots
   NMIN     =      0    reboot dimension
   EREF     =   0.00    reference energy to select bands
   IMIX   =      1    mixing-type and parameters
     AMIX     =   0.40;   BMIX     =  1.00
     AMIX_MAG =   1.60;   BMIX_MAG =  1.00
     AMIN     =   0.10
     WC   =   100.;   INIMIX=   1;  MIXPRE=   1;  MAXMIX= -45

 Intra band minimization:
   WEIMIN = 0.0000     energy-eigenvalue tresh-hold
   EBREAK =  0.69E-07  absolut break condition
   DEPER  =   0.30     relativ break condition  

   TIME   =   0.40     timestep for ELM

  volume/ion in A,a.u.               =      35.36       238.59
  Fermi-wavevector in a.u.,A,eV,Ry     =   1.037533  1.960654 14.646338  1.076475
  Thomas-Fermi vector in A             =   2.171976
 
 Write flags
   LWAVE        =      T    write WAVECAR
   LDOWNSAMPLE  =      F    k-point downsampling of WAVECAR
   LCHARG       =      T    write CHGCAR
   LVTOT        =      T    write LOCPOT, total local potential
   LVHAR        =      F    write LOCPOT, Hartree potential only
   LELF         =      F    write electronic localiz. function (ELF)
   LORBIT       =     11    0 simple, 1 ext, 2 COOP (PROOUT), +10 PAW based schemes


 Dipole corrections
   LMONO  =      F    monopole corrections only (constant potential shift)
   LDIPOL =      F    correct potential (dipole corrections)
   IDIPOL =      0    1-x, 2-y, 3-z, 4-all directions 
   EPSILON=  1.0000000 bulk dielectric constant

 Exchange correlation treatment:
   GGA     =    PE    GGA type
   LEXCH   =     8    internal setting for exchange type
   LIBXC   =     F    Libxc                    
   VOSKOWN =     0    Vosko Wilk Nusair interpolation
   EXXOEP  =     0    0=HF, 1=EXX-LHF (local Hartree Fock) 2=EXX OEP
   LHFCALC =     T    Hartree Fock is set to
   LSYMGRAD=     F    symmetrize gradient (conserves proper symmetry)
   PRECFOCK=fast      Normal, Fast or Accurate (Low or Medium for compatibility)
   LRHFCALC=     F    long range Hartree Fock
   LRSCOR  =     F    long range correlation only (use DFT for short range part)
   LTHOMAS =     F    Thomas Fermi screening in HF
   LMODELHF=     F    short range full HF, long range fraction AEXX
   FOCKCORR=     1    mode to apply convergence corrections
   LFOCKACE=     T    use Adeptively-Compressed-Exchange operator
   ENCUT4O =  -1.0   cutoff for four orbital integrals eV
   LMAXFOCK=     4    L truncation for augmentation on plane wave grid
   LMAXFOCKAE=  -1    L truncation for all-electron charge restoration on plane wave grid
   NMAXFOCKAE=   1    number of basis functions for all-electron charge restoration
   LFOCKAEDFT=     F  apply the AE augmentation even for DFT
   NKREDX  =     1    reduce k-point grid by
   NKREDY  =     1    reduce k-point grid by
   NKREDZ  =     1    reduce k-point grid by
   SHIFTRED=     F    shift reduced grid of Gamma
   HFKIDENT=     F    idential grid for each k-point
   ODDONLY =     F    use only odd q-grid points
   EVENONLY=     F    use only even q-grid points
   HFALPHA =   -1.0000 decay constant for conv. correction
   MCALPHA =    0.0000 extent of test-charge in conv. correction in multipole expansion
   AEXX    =    0.2500 exact exchange contribution
   HFSCREEN=    0.2000 screening length (either q_TF or 0.3 A-1)
   HFSCREENC=   0.2000 screening length for correlation (either q_TF or 0.3 A-1)
   HFRCUT  =    0.0000 spherical cutoff for potential kernel
   ALDAX   =    0.7500 LDA exchange part
   AGGAX   =    0.7500 GGA exchange part
   ALDAC   =    1.0000 LDA correlation
   AGGAC   =    1.0000 GGA correlation
   ENCUTFOCK=  -1.0 apply spherical cutoff to Coloumb kernel
   NBANDSGWLOW=     1    first orbital included in HF term
   NBLOCK_FOCK=    64    blocking factor in FOCK_ACC

 Linear response parameters
   LEPSILON=     F    determine dielectric tensor
   LRPA    =     F    only Hartree local field effects (RPA)
   LNABLA  =     F    use nabla operator in PAW spheres
   LVEL    =     F    velocity operator in full k-point grid
   CSHIFT  =0.0000    complex shift for real part using Kramers Kronig
   OMEGAMAX=  -1.0    maximum frequency
   DEG_THRESHOLD= 0.2000000E-02 threshold for treating states as degnerate
   RTIME   =   -0.100 relaxation time in fs
  (WPLASMAI=    0.000 imaginary part of plasma frequency in eV, 0.658/RTIME)
   DFIELD  = 0.0000000 0.0000000 0.0000000 field for delta impulse in time
 
  Optional k-point grid parameters
   LKPOINTS_OPT  =     F    use optional k-point grid
   KPOINTS_OPT_MODE=     1    mode for optional k-point grid
 
 Orbital magnetization related:
   ORBITALMAG=     F  switch on orbital magnetization
   LCHIMAG   =     F  perturbation theory with respect to B field
   DQ        =  0.001000  dq finite difference perturbation B field
   LLRAUG    =     F  two centre corrections for induced B field
   LBONE     =     F  B-component reconstruction in AE one-centre
   LVGVCALC  =     T  calculate vGv susceptibility
   LVGVAPPL  =     F  apply vGv susceptibility instead of pGv for G=0

 Random number generation:
   RANDOM_GENERATOR = DEFAULT
   PCG_SEED         = not used


--------------------------------------------------------------------------------------------------------


 Static calculation
 charge density and potential will be updated during run
 non-spin polarized calculation
 Variant of blocked Davidson
 Davidson routine will perform the subspace rotation
 perform sub-space diagonalisation
    after iterative eigenvector-optimisation
 Kerker-like  mixing scheme
 using additional bands           27
 reciprocal scheme for non local part
 use partial core corrections
 calculate Harris-corrections to forces 
   (improved forces if not selfconsistent)
 use gradient corrections 
 use of overlap-Matrix (Vanderbilt PP)
 Fermi weights with tetrahedron method with Bloechl corrections


--------------------------------------------------------------------------------------------------------


  energy-cutoff  :      680.00
  volume of cell :       70.71
      direct lattice vectors                 reciprocal lattice vectors
     4.019750926  0.000000000  2.320804042     0.248771632 -0.087954008  0.000000000
     1.339916630  3.789858536  2.320804038     0.000000000  0.263862092  0.000000000
     0.000000000  0.000000000  4.641610150    -0.124385761 -0.087954002  0.215442480

  length of vectors
     4.641608440  4.641609170  4.641610150     0.263862147  0.263862092  0.263862059


 
 k-points in units of 2pi/SCALE and weight: pymatgen with grid density = 449 / numbe
   0.00000000  0.00000000  0.00000000       0.005
   0.04146194 -0.01465900  0.00000000       0.037
   0.08292388 -0.02931800  0.00000000       0.037
   0.12438582 -0.04397700  0.00000000       0.019
   0.04146194  0.02931801  0.00000000       0.028
   0.08292388  0.01465901  0.00000000       0.111
   0.12438582  0.00000001  0.00000000       0.111
  -0.08292388  0.07329502  0.00000000       0.111
  -0.04146194  0.05863602  0.00000000       0.056
   0.08292388  0.05863603  0.00000000       0.028
   0.12438582  0.04397703  0.00000000       0.111
  -0.08292388  0.11727203  0.00000000       0.056
   0.12438582  0.08795404  0.00000000       0.014
   0.10365486  0.02931803  0.03590708       0.111
  -0.10365484  0.10261303  0.03590708       0.111
  -0.10365484  0.14659005  0.03590708       0.056
 
 k-points in reciprocal lattice and weights: pymatgen with grid density = 449 / numbe
   0.00000000  0.00000000  0.00000000       0.005
   0.16666667  0.00000000  0.00000000       0.037
   0.33333333  0.00000000  0.00000000       0.037
   0.50000000  0.00000000  0.00000000       0.019
   0.16666667  0.16666667  0.00000000       0.028
   0.33333333  0.16666667  0.00000000       0.111
   0.50000000  0.16666667  0.00000000       0.111
  -0.33333333  0.16666667  0.00000000       0.111
  -0.16666667  0.16666667  0.00000000       0.056
   0.33333333  0.33333333  0.00000000       0.028
   0.50000000  0.33333333  0.00000000       0.111
  -0.33333333  0.33333333  0.00000000       0.056
   0.50000000  0.50000000  0.00000000       0.014
   0.50000000  0.33333333  0.16666667       0.111
  -0.33333333  0.33333333  0.16666667       0.111
  -0.33333333  0.50000000  0.16666667       0.056
 
 position of ions in fractional coordinates (direct lattice) 
   0.00000000  0.00000000  0.00000000
   0.25000000  0.25000000  0.25000000
 
 position of ions in cartesian coordinates  (Angst):
   0.00000000  0.00000000  0.00000000
   1.33991689  0.94746463  2.32080456
 


--------------------------------------------------------------------------------------------------------


 k-point   1 :   0.0000 0.0000 0.0000  plane waves:    2741
 k-point   2 :   0.1667 0.0000 0.0000  plane waves:    2824
 k-point   3 :   0.3333 0.0000 0.0000  plane waves:    2836
 k-point   4 :   0.5000 0.0000 0.0000  plane waves:    2884
 k-point   5 :   0.1667 0.1667 0.0000  plane waves:    2842
 k-point   6 :   0.3333 0.1667 0.0000  plane waves:    2844
 k-point   7 :   0.5000 0.1667 0.0000  plane waves:    2859
 k-point   8 :  -0.3333 0.1667 0.0000  plane waves:    2850
 k-point   9 :  -0.1667 0.1667 0.0000  plane waves:    2838
 k-point  10 :   0.3333 0.3333 0.0000  plane waves:    2854
 k-point  11 :   0.5000 0.3333 0.0000  plane waves:    2856
 k-point  12 :  -0.3333 0.3333 0.0000  plane waves:    2858
 k-point  13 :   0.5000 0.5000 0.0000  plane waves:    2874
 k-point  14 :   0.5000 0.3333 0.1667  plane waves:    2834
 k-point  15 :  -0.3333 0.3333 0.1667  plane waves:    2846
 k-point  16 :  -0.3333 0.5000 0.1667  plane waves:    2860

 maximum and minimum number of plane-waves per node :       298      266

 maximum number of plane-waves:      2884
 maximum index in each direction: 
   IXMAX=   10   IYMAX=    9   IZMAX=    9
   IXMIN=  -10   IYMIN=  -10   IZMIN=  -10


 parallel 3D FFT for wavefunctions:
    minimum data exchange during FFTs selected (reduces bandwidth)
 parallel 3D FFT for charge:
    minimum data exchange during FFTs selected (reduces bandwidth)


 FFT grid for exact exchange (Hartree Fock) 
  NGX = 24; NGY = 24; NGZ = 24

 
 Radii for the augmentation spheres in the non-local exchange
 for species   1 augmentation radius   1.444 (default was   1.070)
       energy cutoff for augmentation   2720.0
 for species   2 augmentation radius   1.606 (default was   1.190)
       energy cutoff for augmentation   2720.0

 real space projection operators:
  total allocation   :       1144.14 KBytes
  max/ min on nodes  :        169.14         72.46

 Maximum index for augmentation-charges in exchange          382
  SETUP_FOCK is finished

 total amount of memory used by VASP MPI-rank0    33299. kBytes
=======================================================================

   base      :      30000. kBytes
   nonl-proj :       1503. kBytes
   fftplans  :        530. kBytes
   grid      :        623. kBytes
   one-center:         15. kBytes
   HF        :         64. kBytes
   nonlr-proj:        297. kBytes
   wavefun   :        267. kBytes
 
     INWAV:  cpu time      0.0000: real time      0.0001
 initial charge density was supplied:
 charge density of overlapping atoms calculated
 number of electron      18.0000000 magnetization 
 keeping initial charge density in first step


--------------------------------------------------------------------------------------------------------


 Maximum index for augmentation-charges         1237 (set IRDMAX)


--------------------------------------------------------------------------------------------------------


 First call to EWALD:  gamma=   0.429
 Maximum number of real-space cells 3x 3x 3
 Maximum number of reciprocal cells 3x 3x 3

    FEWALD:  cpu time      0.0015: real time      0.0017


--------------------------------------- Ionic step        1  -------------------------------------------




--------------------------------------- Iteration      1(   1)  ---------------------------------------


    POTLOK:  cpu time      0.0180: real time      0.0200
    SETDIJ:  cpu time      0.1265: real time      0.1269
     EDDAV:  cpu time      0.2278: real time      0.2320
 BZINTS: Fermi energy:    8.268473;   18.000000 electrons
         Band energy: 0.284284E+02;  BLOECHL correction:   -0.000595
       DOS:  cpu time      0.0056: real time      0.0059
    --------------------------------------------
      LOOP:  cpu time      0.3780: real time      0.3848

 eigenvalue-minimisations  :  1164
 total energy-change (2. order) :-0.1998356E+04  (-0.8921303E+03)
 number of electron      18.0000000 magnetization 
 augmentation part       18.0000000 magnetization 

 Free energy of the ion-electron system (eV)
  ---------------------------------------------------
  alpha Z        PSCENC =        48.32593859
  Ewald energy   TEWEN  =     -1031.85467228
  -Hartree energ DENC   =      -517.30053658
  -exchange      EXHF   =         0.00000000
  -V(xc)+E(xc)   XCENC  =       -22.76447943
  PAW double counting   =      1404.43023187    -3421.90686490
  entropy T*S    EENTRO =         0.00000000
  eigenvalues    EBANDS =        28.42838268
  atomic energy  EATOM  =      1514.28648168
  Solvation  Ediel_sol  =         0.00000000
  ---------------------------------------------------
  free energy    TOTEN  =     -1998.35551837 eV

  energy without entropy =    -1998.35551837  energy(sigma->0) =    -1998.35551837
  exchange ACFDT corr.  =         0.00000000  see jH, gK, PRB 81, 115126


--------------------------------------------------------------------------------------------------------




--------------------------------------- Iteration      1(   2)  ---------------------------------------


     EDDAV:  cpu time      0.2014: real time      0.2133
 BZINTS: Fermi energy:    0.942359;   18.000000 electrons
         Band energy:-0.108069E+03;  BLOECHL correction:    0.000000
       DOS:  cpu time      0.0022: real time      0.0022
    --------------------------------------------
      LOOP:  cpu time      0.2036: real time      0.2155

 eigenvalue-minimisations  :  1368
 total energy-change (2. order) :-0.1364972E+03  (-0.1270404E+03)
 number of electron      18.0000000 magnetization 
 augmentation part       18.0000000 magnetization 

 Free energy of the ion-electron system (eV)
  ---------------------------------------------------
  alpha Z        PSCENC =        48.32593859
  Ewald energy   TEWEN  =     -1031.85467228
  -Hartree energ DENC   =      -517.30053658
  -exchange      EXHF   =         0.00000000
  -V(xc)+E(xc)   XCENC  =       -22.76447943
  PAW double counting   =      1404.43023187    -3421.90686490
  entropy T*S    EENTRO =         0.00000000
  eigenvalues    EBANDS =      -108.06885016
  atomic energy  EATOM  =      1514.28648168
  Solvation  Ediel_sol  =         0.00000000
  ---------------------------------------------------
  free energy    TOTEN  =     -2134.85275121 eV

  energy without entropy =    -2134.85275121  energy(sigma->0) =    -2134.85275121
  exchange ACFDT corr.  =         0.00000000  see jH, gK, PRB 81, 115126


--------------------------------------------------------------------------------------------------------




--------------------------------------- Iteration      1(   3)  ---------------------------------------


     EDDAV:  cpu time      0.2121: real time      0.2259
 BZINTS: Fermi energy:    0.580050;   18.000000 electrons
         Band energy:-0.113589E+03;  BLOECHL correction:    0.000000
       DOS:  cpu time      0.0021: real time      0.0021
    --------------------------------------------
      LOOP:  cpu time      0.2142: real time      0.2280

 eigenvalue-minimisations  :  1512
 total energy-change (2. order) :-0.5520385E+01  (-0.5492508E+01)
 number of electron      18.0000000 magnetization 
 augmentation part       18.0000000 magnetization 

 Free energy of the ion-electron system (eV)
  ---------------------------------------------------
  alpha Z        PSCENC =        48.32593859
  Ewald energy   TEWEN  =     -1031.85467228
  -Hartree energ DENC   =      -517.30053658
  -exchange      EXHF   =         0.00000000
  -V(xc)+E(xc)   XCENC  =       -22.76447943
  PAW double counting   =      1404.43023187    -3421.90686490
  entropy T*S    EENTRO =         0.00000000
  eigenvalues    EBANDS =      -113.58923487
  atomic energy  EATOM  =      1514.28648168
  Solvation  Ediel_sol  =         0.00000000
  ---------------------------------------------------
  free energy    TOTEN  =     -2140.37313592 eV

  energy without entropy =    -2140.37313592  energy(sigma->0) =    -2140.37313592
  exchange ACFDT corr.  =         0.00000000  see jH, gK, PRB 81, 115126


--------------------------------------------------------------------------------------------------------




--------------------------------------- Iteration      1(   4)  ---------------------------------------


     EDDAV:  cpu time      0.1994: real time      0.2145
 BZINTS: Fermi energy:    0.579923;   18.000000 electrons
         Band energy:-0.113642E+03;  BLOECHL correction:    0.000000
       DOS:  cpu time      0.0021: real time      0.0023
    --------------------------------------------
      LOOP:  cpu time      0.2015: real time      0.2168

 eigenvalue-minimisations  :  1344
 total energy-change (2. order) :-0.5271608E-01  (-0.5270553E-01)
 number of electron      18.0000000 magnetization 
 augmentation part       18.0000000 magnetization 

 Free energy of the ion-electron system (eV)
  ---------------------------------------------------
  alpha Z        PSCENC =        48.32593859
  Ewald energy   TEWEN  =     -1031.85467228
  -Hartree energ DENC   =      -517.30053658
  -exchange      EXHF   =         0.00000000
  -V(xc)+E(xc)   XCENC  =       -22.76447943
  PAW double counting   =      1404.43023187    -3421.90686490
  entropy T*S    EENTRO =         0.00000000
  eigenvalues    EBANDS =      -113.64195095
  atomic energy  EATOM  =      1514.28648168
  Solvation  Ediel_sol  =         0.00000000
  ---------------------------------------------------
  free energy    TOTEN  =     -2140.42585200 eV

  energy without entropy =    -2140.42585200  energy(sigma->0) =    -2140.42585200
  exchange ACFDT corr.  =         0.00000000  see jH, gK, PRB 81, 115126


--------------------------------------------------------------------------------------------------------




--------------------------------------- Iteration      1(   5)  ---------------------------------------


    POTLOK:  cpu time      0.0141: real time      0.0261
    SETDIJ:  cpu time      0.3173: real time      0.3182
     EDDAV:  cpu time     13.0771: real time     13.1122
 BZINTS: Fermi energy:    0.966626;   18.000000 electrons
         Band energy:-0.982207E+02;  BLOECHL correction:    0.000000
       DOS:  cpu time      0.0022: real time      0.0023
    CHARGE:  cpu time      0.0346: real time      0.0352
    MIXING:  cpu time      0.0008: real time      0.0010
    --------------------------------------------
      LOOP:  cpu time     13.4461: real time     13.4951

 eigenvalue-minimisations  :  1344
 total energy-change (2. order) : 0.2134251E+04  (-0.8000502E+00)
 number of electron      18.0000000 magnetization 
 augmentation part        4.5730233 magnetization 

 Free energy of the ion-electron system (eV)
  ---------------------------------------------------
  alpha Z        PSCENC =        48.32593859
  Ewald energy   TEWEN  =     -1031.85467228
  -Hartree energ DENC   =      -517.30053658
  -exchange      EXHF   =        36.03821915
  -V(xc)+E(xc)   XCENC  =       -19.79159502
  PAW double counting   =      1400.99346481    -1338.65191530
  entropy T*S    EENTRO =         0.00000000
  eigenvalues    EBANDS =       -98.22072068
  atomic energy  EATOM  =      1514.28648168
  Solvation  Ediel_sol  =         0.00000000
  ---------------------------------------------------
  free energy    TOTEN  =        -6.17533564 eV

  energy without entropy =       -6.17533564  energy(sigma->0) =       -6.17533564
  exchange ACFDT corr.  =         0.00000000  see jH, gK, PRB 81, 115126


--------------------------------------------------------------------------------------------------------




--------------------------------------- Iteration      1(   6)  ---------------------------------------


    POTLOK:  cpu time      0.0136: real time      0.0269
    SETDIJ:  cpu time      0.3168: real time      0.3175
     EDDAV:  cpu time     12.9788: real time     13.0115
 BZINTS: Fermi energy:    1.296207;   18.000000 electrons
         Band energy:-0.997478E+02;  BLOECHL correction:    0.000000
       DOS:  cpu time      0.0022: real time      0.0025
    CHARGE:  cpu time      0.0267: real time      0.0268
    MIXING:  cpu time      0.0001: real time      0.0001
    --------------------------------------------
      LOOP:  cpu time     13.3382: real time     13.3852

 eigenvalue-minimisations  :  1512
 total energy-change (2. order) : 0.1082007E+00  (-0.6309646E-01)
 number of electron      18.0000000 magnetization 
 augmentation part        4.6119761 magnetization 

 Free energy of the ion-electron system (eV)
  ---------------------------------------------------
  alpha Z        PSCENC =        48.32593859
  Ewald energy   TEWEN  =     -1031.85467228
  -Hartree energ DENC   =      -515.38739603
  -exchange      EXHF   =        35.01246215
  -V(xc)+E(xc)   XCENC  =       -19.75492822
  PAW double counting   =      1894.76490820    -1831.71207908
  entropy T*S    EENTRO =         0.00000000
  eigenvalues    EBANDS =       -99.74784998
  atomic energy  EATOM  =      1514.28648168
  Solvation  Ediel_sol  =         0.00000000
  ---------------------------------------------------
  free energy    TOTEN  =        -6.06713497 eV

  energy without entropy =       -6.06713497  energy(sigma->0) =       -6.06713497
  exchange ACFDT corr.  =         0.00000000  see jH, gK, PRB 81, 115126


--------------------------------------------------------------------------------------------------------




--------------------------------------- Iteration      1(   7)  ---------------------------------------


    POTLOK:  cpu time      0.0264: real time      0.0271
    SETDIJ:  cpu time      0.3154: real time      0.3163
     EDDAV:  cpu time     13.3107: real time     13.3441
 BZINTS: Fermi energy:    1.451844;   18.000000 electrons
         Band energy:-0.101312E+03;  BLOECHL correction:    0.000000
       DOS:  cpu time      0.0025: real time      0.0027
    CHARGE:  cpu time      0.0372: real time      0.0373
    MIXING:  cpu time      0.0001: real time      0.0001
    --------------------------------------------
      LOOP:  cpu time     13.6924: real time     13.7276

 eigenvalue-minimisations  :  1560
 total energy-change (2. order) : 0.7572148E-02  (-0.1787664E-01)
 number of electron      17.9999999 magnetization 
 augmentation part        4.6531921 magnetization 

 Free energy of the ion-electron system (eV)
  ---------------------------------------------------
  alpha Z        PSCENC =        48.32593859
  Ewald energy   TEWEN  =     -1031.85467228
  -Hartree energ DENC   =      -513.94370885
  -exchange      EXHF   =        34.79817914
  -V(xc)+E(xc)   XCENC  =       -19.73671851
  PAW double counting   =      2329.12132277    -2265.74399490
  entropy T*S    EENTRO =         0.00000000
  eigenvalues    EBANDS =      -101.31239046
  atomic energy  EATOM  =      1514.28648168
  Solvation  Ediel_sol  =         0.00000000
  ---------------------------------------------------
  free energy    TOTEN  =        -6.05956283 eV

  energy without entropy =       -6.05956283  energy(sigma->0) =       -6.05956283
  exchange ACFDT corr.  =         0.00000000  see jH, gK, PRB 81, 115126


--------------------------------------------------------------------------------------------------------




--------------------------------------- Iteration      1(   8)  ---------------------------------------


    POTLOK:  cpu time      0.0158: real time      0.0285
    SETDIJ:  cpu time      0.3333: real time      0.3341
     EDDAV:  cpu time     13.1747: real time     13.2079
 BZINTS: Fermi energy:    1.503538;   18.000000 electrons
         Band energy:-0.101717E+03;  BLOECHL correction:    0.000000
       DOS:  cpu time      0.0023: real time      0.0023
    CHARGE:  cpu time      0.0313: real time      0.0313
    MIXING:  cpu time      0.0001: real time      0.0001
    --------------------------------------------
      LOOP:  cpu time     13.5575: real time     13.6043

 eigenvalue-minimisations  :  1560
 total energy-change (2. order) : 0.3438111E-03  (-0.1695525E-02)
 number of electron      17.9999999 magnetization 
 augmentation part        4.6578668 magnetization 

 Free energy of the ion-electron system (eV)
  ---------------------------------------------------
  alpha Z        PSCENC =        48.32593859
  Ewald energy   TEWEN  =     -1031.85467228
  -Hartree energ DENC   =      -513.61907298
  -exchange      EXHF   =        34.74802138
  -V(xc)+E(xc)   XCENC  =       -19.70875348
  PAW double counting   =      2662.42996978    -2598.95036350
  entropy T*S    EENTRO =         0.00000000
  eigenvalues    EBANDS =      -101.71676820
  atomic energy  EATOM  =      1514.28648168
  Solvation  Ediel_sol  =         0.00000000
  ---------------------------------------------------
  free energy    TOTEN  =        -6.05921901 eV

  energy without entropy =       -6.05921901  energy(sigma->0) =       -6.05921901
  exchange ACFDT corr.  =         0.00000000  see jH, gK, PRB 81, 115126


--------------------------------------------------------------------------------------------------------




--------------------------------------- Iteration      1(   9)  ---------------------------------------


    POTLOK:  cpu time      0.0126: real time      0.0272
    SETDIJ:  cpu time      0.3155: real time      0.3162
     EDDAV:  cpu time     12.8768: real time     12.9092
 BZINTS: Fermi energy:    1.489746;   18.000000 electrons
         Band energy:-0.101814E+03;  BLOECHL correction:    0.000000
       DOS:  cpu time      0.0022: real time      0.0022
    CHARGE:  cpu time      0.0270: real time      0.0271
    MIXING:  cpu time      0.0001: real time      0.0001
    --------------------------------------------
      LOOP:  cpu time     13.2341: real time     13.2820

 eigenvalue-minimisations  :  1488
 total energy-change (2. order) : 0.1572174E-02  (-0.1085848E-03)
 number of electron      17.9999999 magnetization 
 augmentation part        4.6569326 magnetization 

 Free energy of the ion-electron system (eV)
  ---------------------------------------------------
  alpha Z        PSCENC =        48.32593859
  Ewald energy   TEWEN  =     -1031.85467228
  -Hartree energ DENC   =      -513.56527287
  -exchange      EXHF   =        34.73493265
  -V(xc)+E(xc)   XCENC  =       -19.68882745
  PAW double counting   =      2889.95868673    -2826.44097911
  entropy T*S    EENTRO =         0.00000000
  eigenvalues    EBANDS =      -101.81393478
  atomic energy  EATOM  =      1514.28648168
  Solvation  Ediel_sol  =         0.00000000
  ---------------------------------------------------
  free energy    TOTEN  =        -6.05764684 eV

  energy without entropy =       -6.05764684  energy(sigma->0) =       -6.05764684
  exchange ACFDT corr.  =         0.00000000  see jH, gK, PRB 81, 115126


--------------------------------------------------------------------------------------------------------




--------------------------------------- Iteration      1(  10)  ---------------------------------------


    POTLOK:  cpu time      0.0116: real time      0.0267
    SETDIJ:  cpu time      0.3132: real time      0.3140
     EDDAV:  cpu time     13.3440: real time     13.3776
 BZINTS: Fermi energy:    1.510254;   18.000000 electrons
         Band energy:-0.101875E+03;  BLOECHL correction:    0.000000
       DOS:  cpu time      0.0024: real time      0.0025
    CHARGE:  cpu time      0.0317: real time      0.0318
    MIXING:  cpu time      0.0002: real time      0.0002
    --------------------------------------------
      LOOP:  cpu time     13.7031: real time     13.7527

 eigenvalue-minimisations  :  1500
 total energy-change (2. order) : 0.6436886E-03  (-0.3329982E-04)
 number of electron      17.9999999 magnetization 
 augmentation part        4.6550420 magnetization 

 Free energy of the ion-electron system (eV)
  ---------------------------------------------------
  alpha Z        PSCENC =        48.32593859
  Ewald energy   TEWEN  =     -1031.85467228
  -Hartree energ DENC   =      -513.53712734
  -exchange      EXHF   =        34.73340624
  -V(xc)+E(xc)   XCENC  =       -19.67614089
  PAW double counting   =      3039.56257223    -2976.02295975
  entropy T*S    EENTRO =         0.00000000
  eigenvalues    EBANDS =      -101.87450164
  atomic energy  EATOM  =      1514.28648168
  Solvation  Ediel_sol  =         0.00000000
  ---------------------------------------------------
  free energy    TOTEN  =        -6.05700315 eV

  energy without entropy =       -6.05700315  energy(sigma->0) =       -6.05700315
  exchange ACFDT corr.  =         0.00000000  see jH, gK, PRB 81, 115126


--------------------------------------------------------------------------------------------------------




--------------------------------------- Iteration      1(  11)  ---------------------------------------


    POTLOK:  cpu time      0.0138: real time      0.0289
    SETDIJ:  cpu time      0.3216: real time      0.3223
     EDDAV:  cpu time     13.3211: real time     13.3545
 BZINTS: Fermi energy:    1.509247;   18.000000 electrons
         Band energy:-0.101915E+03;  BLOECHL correction:    0.000000
       DOS:  cpu time      0.0023: real time      0.0023
    CHARGE:  cpu time      0.0316: real time      0.0317
    MIXING:  cpu time      0.0002: real time      0.0002
    --------------------------------------------
      LOOP:  cpu time     13.6905: real time     13.7399

 eigenvalue-minimisations  :  1632
 total energy-change (2. order) : 0.1583654E-03  (-0.1630888E-04)
 number of electron      17.9999999 magnetization 
 augmentation part        4.6538403 magnetization 

 Free energy of the ion-electron system (eV)
  ---------------------------------------------------
  alpha Z        PSCENC =        48.32593859
  Ewald energy   TEWEN  =     -1031.85467228
  -Hartree energ DENC   =      -513.52055820
  -exchange      EXHF   =        34.73562409
  -V(xc)+E(xc)   XCENC  =       -19.66834045
  PAW double counting   =      3131.43709094    -3067.88311004
  entropy T*S    EENTRO =         0.00000000
  eigenvalues    EBANDS =      -101.91529911
  atomic energy  EATOM  =      1514.28648168
  Solvation  Ediel_sol  =         0.00000000
  ---------------------------------------------------
  free energy    TOTEN  =        -6.05684479 eV

  energy without entropy =       -6.05684479  energy(sigma->0) =       -6.05684479
  exchange ACFDT corr.  =         0.00000000  see jH, gK, PRB 81, 115126


--------------------------------------------------------------------------------------------------------




--------------------------------------- Iteration      1(  12)  ---------------------------------------


    POTLOK:  cpu time      0.0120: real time      0.0269
    SETDIJ:  cpu time      0.3160: real time      0.3169
     EDDAV:  cpu time     13.0144: real time     13.0471
 BZINTS: Fermi energy:    1.510169;   18.000000 electrons
         Band energy:-0.101936E+03;  BLOECHL correction:    0.000000
       DOS:  cpu time      0.0023: real time      0.0023
    CHARGE:  cpu time      0.0279: real time      0.0280
    MIXING:  cpu time      0.0001: real time      0.0001
    --------------------------------------------
      LOOP:  cpu time     13.3726: real time     13.4212

 eigenvalue-minimisations  :  1524
 total energy-change (2. order) : 0.2637535E-04  (-0.4680116E-05)
 number of electron      17.9999999 magnetization 
 augmentation part        4.6533298 magnetization 

 Free energy of the ion-electron system (eV)
  ---------------------------------------------------
  alpha Z        PSCENC =        48.32593859
  Ewald energy   TEWEN  =     -1031.85467228
  -Hartree energ DENC   =      -513.51606412
  -exchange      EXHF   =        34.73738621
  -V(xc)+E(xc)   XCENC  =       -19.66353743
  PAW double counting   =      3185.92438782    -3122.36123200
  entropy T*S    EENTRO =         0.00000000
  eigenvalues    EBANDS =      -101.93550689
  atomic energy  EATOM  =      1514.28648168
  Solvation  Ediel_sol  =         0.00000000
  ---------------------------------------------------
  free energy    TOTEN  =        -6.05681841 eV

  energy without entropy =       -6.05681841  energy(sigma->0) =       -6.05681841
  exchange ACFDT corr.  =         0.00000000  see jH, gK, PRB 81, 115126


--------------------------------------------------------------------------------------------------------




--------------------------------------- Iteration      1(  13)  ---------------------------------------


    POTLOK:  cpu time      0.0114: real time      0.0274
    SETDIJ:  cpu time      0.3124: real time      0.3131
     EDDAV:  cpu time     13.4934: real time     13.5273
 BZINTS: Fermi energy:    1.511435;   18.000000 electrons
         Band energy:-0.101942E+03;  BLOECHL correction:    0.000000
       DOS:  cpu time      0.0024: real time      0.0025
    --------------------------------------------
      LOOP:  cpu time     13.8196: real time     13.8703

 eigenvalue-minimisations  :  1524
 total energy-change (2. order) :-0.5441157E-05  (-0.1837328E-05)
 number of electron      17.9999999 magnetization 
 augmentation part        4.6533298 magnetization 

 Free energy of the ion-electron system (eV)
  ---------------------------------------------------
  alpha Z        PSCENC =        48.32593859
  Ewald energy   TEWEN  =     -1031.85467228
  -Hartree energ DENC   =      -513.51891023
  -exchange      EXHF   =        34.73816940
  -V(xc)+E(xc)   XCENC  =       -19.66049690
  PAW double counting   =      3217.94648583    -3154.37778081
  entropy T*S    EENTRO =         0.00000000
  eigenvalues    EBANDS =      -101.94203914
  atomic energy  EATOM  =      1514.28648168
  Solvation  Ediel_sol  =         0.00000000
  ---------------------------------------------------
  free energy    TOTEN  =        -6.05682385 eV

  energy without entropy =       -6.05682385  energy(sigma->0) =       -6.05682385
  exchange ACFDT corr.  =         0.00000000  see jH, gK, PRB 81, 115126


--------------------------------------------------------------------------------------------------------




 average (electrostatic) potential at core
  the test charge radii are     1.0698  1.1897
  (the norm of the test charge is              1.0000)
       1 -32.9004       2 -87.7526
 
 
 
 E-fermi :   1.5114     XC(G=0):  -7.0271     alpha+bet : -7.1495

 Fermi energy:         1.5114350013

 k-point     1 :       0.0000    0.0000    0.0000
  band No.  band energies     occupation 
      1     -10.4356      2.00000
      2      -7.9881      2.00000
      3      -7.9881      2.00000
      4      -7.9881      2.00000
      5      -7.7511      2.00000
      6      -7.7511      2.00000
      7       1.4900      2.00000
      8       1.4900      2.00000
      9       1.4900      2.00000
     10       2.9264      0.00000
     11       7.0009      0.00000
     12       7.0009      0.00000
     13       7.0009      0.00000
     14       9.9331      0.00000
     15      11.7751      0.00000
     16      11.7751      0.00000
     17      12.5779      0.00000
     18      12.5779      0.00000
     19      12.5779      0.00000
     20      14.7494      0.00000
     21      22.5734      0.00000
     22      22.5734      0.00000
     23      22.5734      0.00000
     24      23.3338      0.00000
     25      23.3338      0.00000
     26      23.3338      0.00000
     27      24.3157      0.00000
     28      24.3157      0.00000
     29      24.3157      0.00000
     30      24.9819      0.00000
     31      24.9819      0.00000
     32      29.5006      0.00000
     33      31.1372      0.00000
     34      31.2704      0.00000
     35      31.2704      0.00000
     36      31.2705      0.00000

 k-point     2 :       0.1667    0.0000    0.0000
  band No.  band energies     occupation 
      1     -10.3422      2.00000
      2      -7.9718      2.00000
      3      -7.9718      2.00000
      4      -7.8907      2.00000
      5      -7.7521      2.00000
      6      -7.7521      2.00000
      7      -0.2182      2.00000
      8       1.2669      2.00000
      9       1.2669      2.00000
     10       4.0268      0.00000
     11       7.0560      0.00000
     12       7.3452      0.00000
     13       7.3452      0.00000
     14      10.8777      0.00000
     15      10.8777      0.00000
     16      10.9159      0.00000
     17      12.2174      0.00000
     18      14.3903      0.00000
     19      14.3903      0.00000
     20      16.5016      0.00000
     21      19.7847      0.00000
     22      19.7847      0.00000
     23      20.1654      0.00000
     24      22.7475      0.00000
     25      23.7101      0.00000
     26      23.7101      0.00000
     27      24.4478      0.00000
     28      24.4478      0.00000
     29      25.7330      0.00000
     30      27.4730      0.00000
     31      27.4730      0.00000
     32      28.6232      0.00000
     33      28.6232      0.00000
     34      28.9803      0.00000
     35      30.5877      0.00000
     36      31.2355      0.00000

 k-point     3 :       0.3333    0.0000    0.0000
  band No.  band energies     occupation 
      1     -10.1647      2.00000
      2      -7.9432      2.00000
      3      -7.9432      2.00000
      4      -7.7492      2.00000
      5      -7.7492      2.00000
      6      -7.5853      2.00000
      7      -2.1653      2.00000
      8       0.8853      2.00000
      9       0.8853      2.00000
     10       4.1821      0.00000
     11       7.6217      0.00000
     12       7.6217      0.00000
     13       8.5878      0.00000
     14      10.4973      0.00000
     15      11.3144      0.00000
     16      11.3144      0.00000
     17      14.7375      0.00000
     18      16.2921      0.00000
     19      16.2921      0.00000
     20      16.8196      0.00000
     21      17.3596      0.00000
     22      17.3596      0.00000
     23      19.7349      0.00000
     24      23.1625      0.00000
     25      24.0033      0.00000
     26      24.0033      0.00000
     27      24.0735      0.00000
     28      24.4811      0.00000
     29      24.4811      0.00000
     30      25.0188      0.00000
     31      25.0188      0.00000
     32      27.4267      0.00000
     33      27.9353      0.00000
     34      29.4830      0.00000
     35      29.4830      0.00000
     36      29.7417      0.00000

 k-point     4 :       0.5000    0.0000    0.0000
  band No.  band energies     occupation 
      1     -10.0834      2.00000
      2      -7.9317      2.00000
      3      -7.9317      2.00000
      4      -7.7446      2.00000
      5      -7.7446      2.00000
      6      -7.3384      2.00000
      7      -3.0274      2.00000
      8       0.7175      2.00000
      9       0.7175      2.00000
     10       4.0743      0.00000
     11       7.5724      0.00000
     12       7.5724      0.00000
     13       9.4360      0.00000
     14      11.0911      0.00000
     15      12.8199      0.00000
     16      12.8199      0.00000
     17      13.7570      0.00000
     18      14.1247      0.00000
     19      14.1247      0.00000
     20      18.5375      0.00000
     21      20.0709      0.00000
     22      20.0709      0.00000
     23      20.6612      0.00000
     24      20.9680      0.00000
     25      20.9680      0.00000
     26      23.4213      0.00000
     27      23.7010      0.00000
     28      24.0155      0.00000
     29      24.8758      0.00000
     30      24.8758      0.00000
     31      25.1430      0.00000
     32      25.1430      0.00000
     33      27.6716      0.00000
     34      28.7819      0.00000
     35      28.7819      0.00000
     36      28.8494      0.00000

 k-point     5 :       0.1667    0.1667    0.0000
  band No.  band energies     occupation 
      1     -10.3117      2.00000
      2      -7.9553      2.00000
      3      -7.9553      2.00000
      4      -7.8845      2.00000
      5      -7.7557      2.00000
      6      -7.7447      2.00000
      7      -0.2202      2.00000
      8       0.8976      2.00000
      9       0.8976      2.00000
     10       4.6513      0.00000
     11       6.0575      0.00000
     12       7.9569      0.00000
     13       7.9569      0.00000
     14       9.5390      0.00000
     15      11.7006      0.00000
     16      12.0318      0.00000
     17      13.3378      0.00000
     18      13.3378      0.00000
     19      13.8702      0.00000
     20      17.5398      0.00000
     21      19.5781      0.00000
     22      19.5781      0.00000
     23      20.1694      0.00000
     24      20.8261      0.00000
     25      23.4923      0.00000
     26      23.4923      0.00000
     27      23.7638      0.00000
     28      25.9166      0.00000
     29      27.4727      0.00000
     30      27.4727      0.00000
     31      27.5506      0.00000
     32      27.7625      0.00000
     33      28.4751      0.00000
     34      28.4751      0.00000
     35      29.1418      0.00000
     36      31.0773      0.00000

 k-point     6 :       0.3333    0.1667    0.0000
  band No.  band energies     occupation 
      1     -10.1651      2.00000
      2      -7.9320      2.00000
      3      -7.9234      2.00000
      4      -7.7849      2.00000
      5      -7.7401      2.00000
      6      -7.6188      2.00000
      7      -1.6934      2.00000
      8       0.3918      2.00000
      9       0.4853      2.00000
     10       5.1240      0.00000
     11       6.3690      0.00000
     12       8.0696      0.00000
     13       8.5338      0.00000
     14      10.2925      0.00000
     15      12.2121      0.00000
     16      12.2329      0.00000
     17      14.2085      0.00000
     18      15.3018      0.00000
     19      16.3891      0.00000
     20      16.4998      0.00000
     21      16.6578      0.00000
     22      19.7482      0.00000
     23      20.3669      0.00000
     24      20.4765      0.00000
     25      21.3171      0.00000
     26      23.3615      0.00000
     27      24.0007      0.00000
     28      25.1575      0.00000
     29      25.8190      0.00000
     30      25.9818      0.00000
     31      27.0615      0.00000
     32      27.3165      0.00000
     33      28.1507      0.00000
     34      28.7021      0.00000
     35      29.1340      0.00000
     36      29.5665      0.00000

 k-point     7 :       0.5000    0.1667    0.0000
  band No.  band energies     occupation 
      1     -10.0582      2.00000
      2      -7.9182      2.00000
      3      -7.9095      2.00000
      4      -7.7644      2.00000
      5      -7.7418      2.00000
      6      -7.3052      2.00000
      7      -2.8091      2.00000
      8      -0.1396      2.00000
      9       0.3985      2.00000
     10       5.0419      0.00000
     11       7.0495      0.00000
     12       8.3419      0.00000
     13       8.9430      0.00000
     14      11.2592      0.00000
     15      12.4754      0.00000
     16      12.8985      0.00000
     17      13.7155      0.00000
     18      14.4185      0.00000
     19      17.0347      0.00000
     20      17.7969      0.00000
     21      18.3695      0.00000
     22      19.5067      0.00000
     23      20.2985      0.00000
     24      20.8207      0.00000
     25      21.4605      0.00000
     26      22.4511      0.00000
     27      23.2893      0.00000
     28      23.8063      0.00000
     29      24.4692      0.00000
     30      25.0309      0.00000
     31      25.4239      0.00000
     32      25.8229      0.00000
     33      26.2069      0.00000
     34      28.3197      0.00000
     35      28.5035      0.00000
     36      29.2640      0.00000

 k-point     8 :      -0.3333    0.1667    0.0000
[...]
   43.728305    0.837732    0.837732    0.837732    0.000000    0.000000    0.000000
   43.757972    0.838052    0.838052    0.838052    0.000000    0.000000    0.000000
   43.787638    0.838371    0.838370    0.838370    0.000000    0.000000    0.000000
   43.817304    0.838688    0.838688    0.838688    0.000000    0.000000    0.000000
   43.846971    0.839004    0.839004    0.839004    0.000000    0.000000    0.000000
   43.876637    0.839318    0.839318    0.839318    0.000000    0.000000    0.000000
   43.906304    0.839631    0.839631    0.839631    0.000000    0.000000    0.000000
   43.935970    0.839943    0.839943    0.839943    0.000000    0.000000    0.000000
   43.965637    0.840254    0.840254    0.840254    0.000000    0.000000    0.000000
   43.995303    0.840563    0.840563    0.840563    0.000000    0.000000    0.000000
   44.024969    0.840871    0.840871    0.840871    0.000000    0.000000    0.000000
   44.054636    0.841178    0.841178    0.841178    0.000000    0.000000    0.000000
   44.084302    0.841484    0.841484    0.841484    0.000000    0.000000    0.000000
   44.113969    0.841788    0.841788    0.841788    0.000000    0.000000    0.000000
   44.143635    0.842091    0.842091    0.842091    0.000000    0.000000    0.000000
   44.173302    0.842393    0.842393    0.842393    0.000000    0.000000    0.000000
   44.202968    0.842693    0.842693    0.842693    0.000000    0.000000    0.000000
   44.232634    0.842993    0.842993    0.842993    0.000000    0.000000    0.000000
   44.262301    0.843291    0.843291    0.843291    0.000000    0.000000    0.000000
   44.291967    0.843588    0.843588    0.843588    0.000000    0.000000    0.000000
   44.321634    0.843884    0.843884    0.843884    0.000000    0.000000    0.000000
   44.351300    0.844179    0.844179    0.844178    0.000000    0.000000    0.000000
   44.380966    0.844472    0.844472    0.844472    0.000000    0.000000    0.000000
   44.410633    0.844764    0.844764    0.844764    0.000000    0.000000    0.000000
   44.440299    0.845056    0.845056    0.845056    0.000000    0.000000    0.000000
   44.469966    0.845346    0.845346    0.845346    0.000000    0.000000    0.000000
   44.499632    0.845635    0.845635    0.845635    0.000000    0.000000    0.000000
   44.529299    0.845923    0.845923    0.845923    0.000000    0.000000    0.000000
   44.558965    0.846209    0.846209    0.846209    0.000000    0.000000    0.000000
   44.588631    0.846495    0.846495    0.846495    0.000000    0.000000    0.000000
   44.618298    0.846780    0.846780    0.846780    0.000000    0.000000    0.000000
   44.647964    0.847063    0.847063    0.847063    0.000000    0.000000    0.000000
   44.677631    0.847346    0.847345    0.847345    0.000000    0.000000    0.000000
   44.707297    0.847627    0.847627    0.847627    0.000000    0.000000    0.000000
   44.736964    0.847907    0.847907    0.847907    0.000000    0.000000    0.000000
   44.766630    0.848186    0.848186    0.848186    0.000000    0.000000    0.000000
   44.796296    0.848465    0.848465    0.848465    0.000000    0.000000    0.000000
   44.825963    0.848742    0.848742    0.848742    0.000000    0.000000    0.000000
   44.855629    0.849018    0.849018    0.849018    0.000000    0.000000    0.000000
   44.885296    0.849293    0.849293    0.849293    0.000000    0.000000    0.000000
   44.914962    0.849567    0.849567    0.849567    0.000000    0.000000    0.000000
   44.944628    0.849840    0.849840    0.849840    0.000000    0.000000    0.000000
   44.974295    0.850112    0.850112    0.850112    0.000000    0.000000    0.000000
   45.003961    0.850383    0.850383    0.850383    0.000000    0.000000    0.000000
   45.033628    0.850654    0.850653    0.850653    0.000000    0.000000    0.000000
   45.063294    0.850923    0.850923    0.850923    0.000000    0.000000    0.000000
   45.092961    0.851191    0.851191    0.851191    0.000000    0.000000    0.000000
   45.122627    0.851458    0.851458    0.851458    0.000000    0.000000    0.000000
   45.152293    0.851724    0.851724    0.851724    0.000000    0.000000    0.000000
   45.181960    0.851990    0.851990    0.851989    0.000000    0.000000    0.000000
   45.211626    0.852254    0.852254    0.852254    0.000000    0.000000    0.000000
   45.241293    0.852517    0.852517    0.852517    0.000000    0.000000    0.000000
   45.270959    0.852780    0.852780    0.852780    0.000000    0.000000    0.000000
   45.300626    0.853041    0.853041    0.853041    0.000000    0.000000    0.000000
   45.330292    0.853302    0.853302    0.853302    0.000000    0.000000    0.000000
   45.359958    0.853562    0.853562    0.853562    0.000000    0.000000    0.000000
   45.389625    0.853821    0.853820    0.853820    0.000000    0.000000    0.000000
   45.419291    0.854078    0.854078    0.854078    0.000000    0.000000    0.000000
   45.448958    0.854335    0.854335    0.854335    0.000000    0.000000    0.000000
   45.478624    0.854592    0.854591    0.854591    0.000000    0.000000    0.000000
   45.508290    0.854847    0.854847    0.854847    0.000000    0.000000    0.000000
   45.537957    0.855101    0.855101    0.855101    0.000000    0.000000    0.000000
   45.567623    0.855355    0.855355    0.855354    0.000000    0.000000    0.000000
   45.597290    0.855607    0.855607    0.855607    0.000000    0.000000    0.000000
   45.626956    0.855859    0.855859    0.855859    0.000000    0.000000    0.000000
   45.656623    0.856110    0.856110    0.856110    0.000000    0.000000    0.000000
   45.686289    0.856360    0.856360    0.856360    0.000000    0.000000    0.000000
   45.715955    0.856609    0.856609    0.856609    0.000000    0.000000    0.000000
   45.745622    0.856857    0.856857    0.856857    0.000000    0.000000    0.000000
   45.775288    0.857105    0.857105    0.857105    0.000000    0.000000    0.000000
   45.804955    0.857352    0.857352    0.857352    0.000000    0.000000    0.000000
   45.834621    0.857597    0.857597    0.857597    0.000000    0.000000    0.000000
   45.864288    0.857843    0.857842    0.857842    0.000000    0.000000    0.000000
   45.893954    0.858087    0.858087    0.858087    0.000000    0.000000    0.000000
   45.923620    0.858330    0.858330    0.858330    0.000000    0.000000    0.000000
   45.953287    0.858573    0.858573    0.858573    0.000000    0.000000    0.000000
   45.982953    0.858815    0.858814    0.858814    0.000000    0.000000    0.000000
   46.012620    0.859056    0.859056    0.859055    0.000000    0.000000    0.000000
   46.042286    0.859296    0.859296    0.859296    0.000000    0.000000    0.000000
   46.071952    0.859535    0.859535    0.859535    0.000000    0.000000    0.000000
   46.101619    0.859774    0.859774    0.859774    0.000000    0.000000    0.000000
   46.131285    0.860012    0.860012    0.860012    0.000000    0.000000    0.000000
   46.160952    0.860249    0.860249    0.860249    0.000000    0.000000    0.000000
   46.190618    0.860485    0.860485    0.860485    0.000000    0.000000    0.000000
   46.220285    0.860721    0.860721    0.860721    0.000000    0.000000    0.000000
   46.249951    0.860956    0.860956    0.860956    0.000000    0.000000    0.000000
   46.279617    0.861190    0.861190    0.861190    0.000000    0.000000    0.000000
   46.309284    0.861423    0.861423    0.861423    0.000000    0.000000    0.000000
   46.338950    0.861656    0.861655    0.861655    0.000000    0.000000    0.000000
   46.368617    0.861887    0.861887    0.861887    0.000000    0.000000    0.000000
   46.398283    0.862118    0.862118    0.862118    0.000000    0.000000    0.000000
   46.427950    0.862349    0.862349    0.862349    0.000000    0.000000    0.000000
   46.457616    0.862578    0.862578    0.862578    0.000000    0.000000    0.000000
   46.487282    0.862807    0.862807    0.862807    0.000000    0.000000    0.000000
   46.516949    0.863036    0.863035    0.863035    0.000000    0.000000    0.000000
   46.546615    0.863263    0.863263    0.863263    0.000000    0.000000    0.000000
   46.576282    0.863490    0.863490    0.863490    0.000000    0.000000    0.000000
   46.605948    0.863716    0.863716    0.863716    0.000000    0.000000    0.000000
   46.635614    0.863941    0.863941    0.863941    0.000000    0.000000    0.000000
   46.665281    0.864166    0.864166    0.864166    0.000000    0.000000    0.000000
   46.694947    0.864390    0.864390    0.864390    0.000000    0.000000    0.000000
   46.724614    0.864613    0.864613    0.864613    0.000000    0.000000    0.000000
   46.754280    0.864836    0.864836    0.864835    0.000000    0.000000    0.000000
   46.783947    0.865057    0.865057    0.865057    0.000000    0.000000    0.000000
   46.813613    0.865279    0.865279    0.865279    0.000000    0.000000    0.000000
   46.843279    0.865499    0.865499    0.865499    0.000000    0.000000    0.000000
   46.872946    0.865719    0.865719    0.865719    0.000000    0.000000    0.000000
   46.902612    0.865938    0.865938    0.865938    0.000000    0.000000    0.000000
   46.932279    0.866157    0.866157    0.866157    0.000000    0.000000    0.000000
   46.961945    0.866375    0.866375    0.866374    0.000000    0.000000    0.000000
   46.991612    0.866592    0.866592    0.866592    0.000000    0.000000    0.000000
   47.021278    0.866808    0.866808    0.866808    0.000000    0.000000    0.000000
   47.050944    0.867024    0.867024    0.867024    0.000000    0.000000    0.000000
   47.080611    0.867239    0.867239    0.867239    0.000000    0.000000    0.000000
   47.110277    0.867454    0.867454    0.867454    0.000000    0.000000    0.000000
   47.139944    0.867668    0.867668    0.867668    0.000000    0.000000    0.000000
   47.169610    0.867881    0.867881    0.867881    0.000000    0.000000    0.000000
   47.199276    0.868094    0.868094    0.868094    0.000000    0.000000    0.000000
   47.228943    0.868306    0.868306    0.868306    0.000000    0.000000    0.000000
   47.258609    0.868517    0.868517    0.868517    0.000000    0.000000    0.000000
   47.288276    0.868728    0.868728    0.868728    0.000000    0.000000    0.000000
   47.317942    0.868938    0.868938    0.868938    0.000000    0.000000    0.000000
   47.347609    0.869148    0.869148    0.869148    0.000000    0.000000    0.000000
   47.377275    0.869357    0.869357    0.869357    0.000000    0.000000    0.000000
   47.406941    0.869565    0.869565    0.869565    0.000000    0.000000    0.000000
   47.436608    0.869773    0.869773    0.869773    0.000000    0.000000    0.000000
   47.466274    0.869980    0.869980    0.869980    0.000000    0.000000    0.000000
   47.495941    0.870186    0.870186    0.870186    0.000000    0.000000    0.000000
   47.525607    0.870392    0.870392    0.870392    0.000000    0.000000    0.000000
   47.555274    0.870598    0.870598    0.870598    0.000000    0.000000    0.000000
   47.584940    0.870802    0.870802    0.870802    0.000000    0.000000    0.000000
   47.614606    0.871006    0.871006    0.871006    0.000000    0.000000    0.000000
   47.644273    0.871210    0.871210    0.871210    0.000000    0.000000    0.000000
   47.673939    0.871413    0.871413    0.871413    0.000000    0.000000    0.000000
   47.703606    0.871615    0.871615    0.871615    0.000000    0.000000    0.000000
   47.733272    0.871817    0.871817    0.871817    0.000000    0.000000    0.000000
   47.762938    0.872018    0.872018    0.872018    0.000000    0.000000    0.000000
   47.792605    0.872219    0.872219    0.872219    0.000000    0.000000    0.000000
   47.822271    0.872419    0.872419    0.872419    0.000000    0.000000    0.000000
   47.851938    0.872618    0.872618    0.872618    0.000000    0.000000    0.000000
   47.881604    0.872817    0.872817    0.872817    0.000000    0.000000    0.000000
   47.911271    0.873016    0.873016    0.873016    0.000000    0.000000    0.000000
   47.940937    0.873214    0.873213    0.873213    0.000000    0.000000    0.000000
   47.970603    0.873411    0.873411    0.873411    0.000000    0.000000    0.000000
   48.000270    0.873607    0.873607    0.873607    0.000000    0.000000    0.000000
   48.029936    0.873804    0.873804    0.873803    0.000000    0.000000    0.000000
   48.059603    0.873999    0.873999    0.873999    0.000000    0.000000    0.000000
   48.089269    0.874194    0.874194    0.874194    0.000000    0.000000    0.000000
   48.118936    0.874389    0.874389    0.874389    0.000000    0.000000    0.000000
   48.148602    0.874583    0.874583    0.874583    0.000000    0.000000    0.000000
   48.178268    0.874776    0.874776    0.874776    0.000000    0.000000    0.000000
   48.207935    0.874969    0.874969    0.874969    0.000000    0.000000    0.000000
   48.237601    0.875161    0.875161    0.875161    0.000000    0.000000    0.000000
   48.267268    0.875353    0.875353    0.875353    0.000000    0.000000    0.000000
   48.296934    0.875544    0.875544    0.875544    0.000000    0.000000    0.000000
   48.326601    0.875735    0.875735    0.875735    0.000000    0.000000    0.000000
   48.356267    0.875925    0.875925    0.875925    0.000000    0.000000    0.000000
   48.385933    0.876115    0.876115    0.876115    0.000000    0.000000    0.000000
   48.415600    0.876304    0.876304    0.876304    0.000000    0.000000    0.000000
   48.445266    0.876493    0.876493    0.876493    0.000000    0.000000    0.000000
   48.474933    0.876681    0.876681    0.876681    0.000000    0.000000    0.000000
   48.504599    0.876869    0.876869    0.876869    0.000000    0.000000    0.000000
   48.534265    0.877056    0.877056    0.877056    0.000000    0.000000    0.000000
   48.563932    0.877243    0.877242    0.877242    0.000000    0.000000    0.000000
   48.593598    0.877429    0.877429    0.877429    0.000000    0.000000    0.000000
   48.623265    0.877614    0.877614    0.877614    0.000000    0.000000    0.000000
   48.652931    0.877799    0.877799    0.877799    0.000000    0.000000    0.000000
   48.682598    0.877984    0.877984    0.877984    0.000000    0.000000    0.000000
   48.712264    0.878168    0.878168    0.878168    0.000000    0.000000    0.000000
   48.741930    0.878352    0.878352    0.878352    0.000000    0.000000    0.000000
   48.771597    0.878535    0.878535    0.878535    0.000000    0.000000    0.000000
   48.801263    0.878718    0.878718    0.878718    0.000000    0.000000    0.000000
   48.830930    0.878900    0.878900    0.878900    0.000000    0.000000    0.000000
   48.860596    0.879081    0.879081    0.879081    0.000000    0.000000    0.000000
   48.890263    0.879263    0.879263    0.879263    0.000000    0.000000    0.000000
   48.919929    0.879443    0.879443    0.879443    0.000000    0.000000    0.000000
   48.949595    0.879624    0.879624    0.879624    0.000000    0.000000    0.000000
   48.979262    0.879803    0.879803    0.879803    0.000000    0.000000    0.000000
   49.008928    0.879983    0.879983    0.879983    0.000000    0.000000    0.000000
   49.038595    0.880162    0.880161    0.880161    0.000000    0.000000    0.000000
   49.068261    0.880340    0.880340    0.880340    0.000000    0.000000    0.000000
   49.097927    0.880518    0.880518    0.880518    0.000000    0.000000    0.000000
   49.127594    0.880695    0.880695    0.880695    0.000000    0.000000    0.000000
   49.157260    0.880872    0.880872    0.880872    0.000000    0.000000    0.000000
   49.186927    0.881049    0.881049    0.881049    0.000000    0.000000    0.000000
   49.216593    0.881225    0.881225    0.881225    0.000000    0.000000    0.000000
   49.246260    0.881400    0.881400    0.881400    0.000000    0.000000    0.000000
   49.275926    0.881575    0.881575    0.881575    0.000000    0.000000    0.000000
   49.305592    0.881750    0.881750    0.881750    0.000000    0.000000    0.000000
   49.335259    0.881924    0.881924    0.881924    0.000000    0.000000    0.000000
   49.364925    0.882098    0.882098    0.882098    0.000000    0.000000    0.000000
   49.394592    0.882271    0.882271    0.882271    0.000000    0.000000    0.000000
   49.424258    0.882444    0.882444    0.882444    0.000000    0.000000    0.000000
   49.453925    0.882617    0.882616    0.882616    0.000000    0.000000    0.000000
   49.483591    0.882789    0.882788    0.882788    0.000000    0.000000    0.000000
   49.513257    0.882960    0.882960    0.882960    0.000000    0.000000    0.000000
   49.542924    0.883131    0.883131    0.883131    0.000000    0.000000    0.000000
   49.572590    0.883302    0.883302    0.883302    0.000000    0.000000    0.000000
   49.602257    0.883472    0.883472    0.883472    0.000000    0.000000    0.000000
   49.631923    0.883642    0.883642    0.883642    0.000000    0.000000    0.000000
   49.661589    0.883811    0.883811    0.883811    0.000000    0.000000    0.000000
   49.691256    0.883980    0.883980    0.883980    0.000000    0.000000    0.000000
   49.720922    0.884149    0.884149    0.884149    0.000000    0.000000    0.000000
   49.750589    0.884317    0.884317    0.884317    0.000000    0.000000    0.000000
   49.780255    0.884484    0.884484    0.884484    0.000000    0.000000    0.000000
   49.809922    0.884652    0.884652    0.884651    0.000000    0.000000    0.000000
   49.839588    0.884818    0.884818    0.884818    0.000000    0.000000    0.000000
   49.869254    0.884985    0.884985    0.884985    0.000000    0.000000    0.000000
   49.898921    0.885151    0.885151    0.885151    0.000000    0.000000    0.000000
   49.928587    0.885316    0.885316    0.885316    0.000000    0.000000    0.000000
   49.958254    0.885481    0.885481    0.885481    0.000000    0.000000    0.000000
   49.987920    0.885646    0.885646    0.885646    0.000000    0.000000    0.000000
   50.017587    0.885810    0.885810    0.885810    0.000000    0.000000    0.000000
   50.047253    0.885974    0.885974    0.885974    0.000000    0.000000    0.000000
 
 The outermost node in the dielectric function lies at epsilon=  14.7


--------------------------------------------------------------------------------------------------------


    OPTICS:  cpu time      0.8342: real time      0.8395
    4ORBIT:  cpu time      0.0000: real time      0.0000



 total charge

# of ion       s       p       d       tot
------------------------------------------
    1        0.434   0.292   9.577  10.303
    2        1.309   2.211   0.018   3.539
--------------------------------------------------
tot          1.744   2.503   9.595  13.842
 
 BZINTS: Fermi energy:    1.511435;   18.000000 electrons
         Band energy:-0.101942E+03;  BLOECHL correction:    0.000000

 total amount of memory used by VASP MPI-rank0    36045. kBytes
=======================================================================

   base      :      30000. kBytes
   nonl-proj :       1503. kBytes
   fftplans  :        530. kBytes
   grid      :        623. kBytes
   one-center:         15. kBytes
   HF        :         64. kBytes
   nonlr-proj:        651. kBytes
   wavefun   :        267. kBytes
   fock_wrk  :       2392. kBytes
 
  
  
 General timing and accounting informations for this job:
 ========================================================
  
                  Total CPU time used (sec):      190.582
                            User time (sec):      189.379
                          System time (sec):        1.203
                         Elapsed time (sec):      192.085
  
                   Maximum memory used (kb):      297656.
                   Average memory used (kb):          N/A
  
                          Minor page faults:        49663
                          Major page faults:            0
                 Voluntary context switches:         3858
