<?xml version="1.0" encoding="ISO-8859-1"?>
<modeling>
 <generator>
  <i name="program" type="string">vasp </i>
  <i name="version" type="string">6.4.2  </i>
  <i name="subversion" type="string">20Jul23 (build Mar 15 2024 16:31:38) complex                          parallel </i>
  <i name="platform" type="string">LinuxIFC </i>
  <i name="date" type="string">2025 03 19 </i>
  <i name="time" type="string">14:55:20 </i>
 </generator>
 <incar>
  <i type="string" name="PREC">Accurate</i>
  <i type="string" name="ALGO">Fast</i>
  <i type="int" name="ISPIN">     1</i>
  <i type="int" name="ICHARG">    11</i>
  <i type="int" name="NELM">   200</i>
  <i name="EDIFF">      0.00001000</i>
  <i type="int" name="NSW">     0</i>
  <i type="int" name="ISYM">     2</i>
  <i name="ENCUT">    680.00000000</i>
  <i name="ENAUG">   1360.00000000</i>
  <i type="int" name="NBANDS">    58</i>
  <i type="int" name="NEDOS">  1182</i>
  <i type="logical" name="LREAL"> F  </i>
  <i type="int" name="ISMEAR">    -5</i>
  <i name="SIGMA">      0.05000000</i>
  <i type="int" name="LMAXMIX">     4</i>
  <i type="logical" name="LWAVE"> T  </i>
  <i type="logical" name="LCHARG"> F  </i>
  <i type="logical" name="LVTOT"> T  </i>
  <i type="int" name="LORBIT">    11</i>
  <i type="logical" name="LELF"> F  </i>
  <i type="logical" name="LASPH"> T  </i>
  <i type="logical" name="LAECHG"> T  </i>
  <i type="string" name="GGA">Ps</i>
  <i type="logical" name="LMIXTAU"> T  </i>
 </incar>
 <primitive_cell>
  <structure name="primitive_cell" >
   <crystal>
    <varray name="basis" >
     <v>       5.10874036       0.00000000      -2.30030869 </v>
     <v>      -1.03575852       5.00264257      -2.30030916 </v>
     <v>       0.00000000       0.00000000       6.82313837 </v>
    </varray>
    <i name="volume">    174.38032574 </i>
    <varray name="rec_basis" >
     <v>       0.19574297       0.04052707       0.00000000 </v>
     <v>       0.00000000       0.19989435       0.00000000 </v>
     <v>       0.06599152       0.08105414       0.14656012 </v>
    </varray>
   </crystal>
   <varray name="positions" >
    <v>       0.50000000       0.50000000       1.00000000 </v>
    <v>       0.75000000       0.25000000       0.50000000 </v>
    <v>       0.00000000       0.00000000       0.00000000 </v>
    <v>       0.25000000       0.75000000       0.50000000 </v>
    <v>       0.37121578       0.37500000       0.25000000 </v>
    <v>       0.12500000       0.62878422       0.75000000 </v>
    <v>       0.62500000       0.12121578       0.75000000 </v>
    <v>       0.87878422       0.87500000       0.25000000 </v>
   </varray>
  </structure>
  <varray name="primitive_index" >
   <v type="int" >        1 </v>
   <v type="int" >        2 </v>
   <v type="int" >        3 </v>
   <v type="int" >        4 </v>
   <v type="int" >        5 </v>
   <v type="int" >        6 </v>
   <v type="int" >        7 </v>
   <v type="int" >        8 </v>
  </varray>
 </primitive_cell>
 <kpoints>
  <generation param="Gamma">
   <v type="int" name="divisions">       5        5        4 </v>
   <v name="usershift">      0.00000000       0.00000000       0.00000000 </v>
   <v name="genvec1">      0.20000000       0.00000000       0.00000000 </v>
   <v name="genvec2">      0.00000000       0.20000000       0.00000000 </v>
   <v name="genvec3">     -0.00000000      -0.00000000       0.25000000 </v>
   <v name="shift">      0.00000000       0.00000000       0.00000000 </v>
  </generation>
  <varray name="kpointlist" >
   <v>       0.00000000       0.00000000       0.00000000 </v>
   <v>       0.20000000       0.00000000       0.00000000 </v>
   <v>       0.40000000       0.00000000       0.00000000 </v>
   <v>       0.20000000       0.20000000       0.00000000 </v>
   <v>       0.40000000       0.20000000       0.00000000 </v>
   <v>      -0.40000000       0.20000000       0.00000000 </v>
   <v>      -0.20000000       0.20000000       0.00000000 </v>
   <v>       0.40000000       0.40000000       0.00000000 </v>
   <v>      -0.40000000       0.40000000       0.00000000 </v>
   <v>       0.00000000      -0.00000000       0.25000000 </v>
   <v>       0.20000000       0.00000000       0.25000000 </v>
   <v>       0.40000000       0.00000000       0.25000000 </v>
   <v>      -0.40000000      -0.00000000       0.25000000 </v>
   <v>      -0.20000000      -0.00000000       0.25000000 </v>
   <v>       0.20000000       0.20000000       0.25000000 </v>
   <v>       0.40000000       0.20000000       0.25000000 </v>
   <v>      -0.40000000       0.20000000       0.25000000 </v>
   <v>      -0.20000000       0.20000000       0.25000000 </v>
   <v>       0.40000000       0.40000000       0.25000000 </v>
   <v>      -0.40000000       0.40000000       0.25000000 </v>
   <v>      -0.20000000       0.40000000       0.25000000 </v>
   <v>      -0.40000000      -0.40000000       0.25000000 </v>
   <v>      -0.20000000      -0.40000000       0.25000000 </v>
   <v>      -0.20000000      -0.20000000       0.25000000 </v>
   <v>       0.00000000      -0.00000000       0.50000000 </v>
   <v>       0.20000000       0.00000000       0.50000000 </v>
   <v>       0.40000000       0.00000000       0.50000000 </v>
   <v>       0.20000000       0.20000000       0.50000000 </v>
   <v>       0.40000000       0.20000000       0.50000000 </v>
   <v>      -0.40000000       0.20000000       0.50000000 </v>
   <v>      -0.20000000       0.20000000       0.50000000 </v>
   <v>       0.40000000       0.40000000       0.50000000 </v>
   <v>      -0.40000000       0.40000000       0.50000000 </v>
  </varray>
  <varray name="weights" >
   <v>       0.01000000 </v>
   <v>       0.04000000 </v>
   <v>       0.04000000 </v>
   <v>       0.02000000 </v>
   <v>       0.04000000 </v>
   <v>       0.04000000 </v>
   <v>       0.02000000 </v>
   <v>       0.02000000 </v>
   <v>       0.02000000 </v>
   <v>       0.02000000 </v>
   <v>       0.04000000 </v>
   <v>       0.04000000 </v>
   <v>       0.04000000 </v>
   <v>       0.04000000 </v>
   <v>       0.02000000 </v>
   <v>       0.04000000 </v>
   <v>       0.04000000 </v>
   <v>       0.04000000 </v>
   <v>       0.02000000 </v>
   <v>       0.04000000 </v>
   <v>       0.04000000 </v>
   <v>       0.02000000 </v>
   <v>       0.04000000 </v>
   <v>       0.02000000 </v>
   <v>       0.01000000 </v>
   <v>       0.04000000 </v>
   <v>       0.04000000 </v>
   <v>       0.02000000 </v>
   <v>       0.04000000 </v>
   <v>       0.04000000 </v>
   <v>       0.02000000 </v>
   <v>       0.02000000 </v>
   <v>       0.02000000 </v>
  </varray>
  <varray name="tetrahedronlist"  type="int" >
   <v type="int" >        4       11       12       18       31 </v>
   <v type="int" >        4       12       18       21       31 </v>
   <v type="int" >        4       12       21       30       31 </v>
   <v type="int" >        4       11       12       26       31 </v>
   <v type="int" >        4       12       26       27       31 </v>
   <v type="int" >        4       12       27       30       31 </v>
   <v type="int" >        4       12       13       21       30 </v>
   <v type="int" >        4       13       21       23       30 </v>
   <v type="int" >        4       13       23       29       30 </v>
   <v type="int" >        4       12       13       27       30 </v>
   <v type="int" >        4       13       27       27       30 </v>
   <v type="int" >        4       13       27       29       30 </v>
   <v type="int" >        4       13       14       23       29 </v>
   <v type="int" >        4       14       23       24       29 </v>
   <v type="int" >        4       14       24       28       29 </v>
   <v type="int" >        4       13       14       27       29 </v>
   <v type="int" >        4       14       26       27       29 </v>
   <v type="int" >        4       14       26       28       29 </v>
   <v type="int" >        4       10       14       24       28 </v>
   <v type="int" >        4       10       14       26       28 </v>
   <v type="int" >        4       10       25       26       28 </v>
   <v type="int" >        4       10       11       14       26 </v>
   <v type="int" >        4       11       14       18       26 </v>
   <v type="int" >        4       11       18       26       31 </v>
   <v type="int" >        4       10       11       25       26 </v>
   <v type="int" >        4       11       25       26       26 </v>
   <v type="int" >        4       11       26       26       31 </v>
   <v type="int" >        4       21       30       30       31 </v>
   <v type="int" >        4       21       30       30       33 </v>
   <v type="int" >        4       20       21       30       33 </v>
   <v type="int" >        4       18       21       30       31 </v>
   <v type="int" >        4       17       18       21       30 </v>
   <v type="int" >        4       17       20       21       30 </v>
   <v type="int" >        4       20       29       30       33 </v>
   <v type="int" >        4       20       29       32       33 </v>
   <v type="int" >        4       19       20       29       32 </v>
   <v type="int" >        4       17       20       29       30 </v>
   <v type="int" >        4       16       17       20       29 </v>
   <v type="int" >        4       16       19       20       29 </v>
   <v type="int" >        4       19       28       29       32 </v>
   <v type="int" >        4       16       19       28       29 </v>
   <v type="int" >        4       15       16       19       28 </v>
   <v type="int" >        4       16       26       28       29 </v>
   <v type="int" >        4       16       26       27       29 </v>
   <v type="int" >        4       12       16       26       27 </v>
   <v type="int" >        4       15       16       26       28 </v>
   <v type="int" >        4       11       15       16       26 </v>
   <v type="int" >        4       11       12       16       26 </v>
   <v type="int" >        4        5       20       21       23 </v>
   <v type="int" >        4        5       20       22       23 </v>
   <v type="int" >        4        5        8       20       22 </v>
   <v type="int" >        4        5        6       20       21 </v>
   <v type="int" >        4        5        6        9       20 </v>
   <v type="int" >        4        5        8        9       20 </v>
   <v type="int" >        4        8       19       20       22 </v>
   <v type="int" >        4        8        9       19       20 </v>
   <v type="int" >        4        8        8        9       19 </v>
   <v type="int" >        4        9       16       19       20 </v>
   <v type="int" >        4        9       16       17       20 </v>
   <v type="int" >        4        6        9       16       17 </v>
   <v type="int" >        4        8        9       16       19 </v>
   <v type="int" >        4        5        8        9       16 </v>
   <v type="int" >        4        5        6        9       16 </v>
   <v type="int" >        4        6       12       16       17 </v>
   <v type="int" >        4        6       12       13       17 </v>
   <v type="int" >        4        3        6       12       13 </v>
   <v type="int" >        4        5        6       12       16 </v>
   <v type="int" >        4        3        5        6       12 </v>
   <v type="int" >        4        3        3        6       12 </v>
   <v type="int" >        4        3       12       13       21 </v>
   <v type="int" >        4        3       13       21       23 </v>
   <v type="int" >        4        3        5       21       23 </v>
   <v type="int" >        4        3        3       12       21 </v>
   <v type="int" >        4        3        3        6       21 </v>
   <v type="int" >        4        3        5        6       21 </v>
   <v type="int" >        4        4        5        8       15 </v>
   <v type="int" >        4        5        8       15       16 </v>
   <v type="int" >        4        8       15       16       19 </v>
   <v type="int" >        4        6        6        9       17 </v>
   <v type="int" >        4        6        6        7       17 </v>
   <v type="int" >        4        6        7       17       18 </v>
   <v type="int" >        4        6        9       17       20 </v>
   <v type="int" >        4        6       17       20       21 </v>
   <v type="int" >        4        6       17       18       21 </v>
   <v type="int" >        4        3        6        7       18 </v>
   <v type="int" >        4        2        3        7       18 </v>
   <v type="int" >        4        2        3       11       18 </v>
   <v type="int" >        4        3        6       18       21 </v>
   <v type="int" >        4        3       12       18       21 </v>
   <v type="int" >        4        3       11       12       18 </v>
   <v type="int" >        4        2        3        5       11 </v>
   <v type="int" >        4        2        4        5       11 </v>
   <v type="int" >        4        4        5       11       15 </v>
   <v type="int" >        4        3        5       11       12 </v>
   <v type="int" >        4        5       11       12       16 </v>
   <v type="int" >        4        5       11       15       16 </v>
   <v type="int" >        4       12       16       17       27 </v>
   <v type="int" >        4       12       13       17       27 </v>
   <v type="int" >        4       13       17       27       27 </v>
   <v type="int" >        4       16       17       27       29 </v>
   <v type="int" >        4       17       27       29       30 </v>
   <v type="int" >        4       17       27       27       30 </v>
   <v type="int" >        4       13       17       18       27 </v>
   <v type="int" >        4       13       14       18       27 </v>
   <v type="int" >        4       14       18       26       27 </v>
   <v type="int" >        4       17       18       27       30 </v>
   <v type="int" >        4       18       27       30       31 </v>
   <v type="int" >        4       18       26       27       31 </v>
   <v type="int" >        4       10       11       15       25 </v>
   <v type="int" >        4       11       15       25       26 </v>
   <v type="int" >        4       15       25       26       28 </v>
   <v type="int" >        4        7       13       14       18 </v>
   <v type="int" >        4        7       13       17       18 </v>
   <v type="int" >        4        6        7       13       17 </v>
   <v type="int" >        4        2        7       13       14 </v>
   <v type="int" >        4        2        3        7       13 </v>
   <v type="int" >        4        3        6        7       13 </v>
   <v type="int" >        4        4       10       11       15 </v>
   <v type="int" >        4        2        4       10       11 </v>
   <v type="int" >        4        1        2        4       10 </v>
   <v type="int" >        4        2       10       11       14 </v>
   <v type="int" >        4        2       11       14       18 </v>
   <v type="int" >        4        2        7       14       18 </v>
   <v type="int" >        4        1        2       10       14 </v>
   <v type="int" >        4        1        2        2       14 </v>
   <v type="int" >        4        2        2        7       14 </v>
   <v type="int" >        4        4        5        8       22 </v>
   <v type="int" >        4        4        5       22       23 </v>
   <v type="int" >        4        4       22       23       24 </v>
   <v type="int" >        4        2        4        5       23 </v>
   <v type="int" >        4        2        3        5       23 </v>
   <v type="int" >        4        2        3       13       23 </v>
   <v type="int" >        4        2        4       23       24 </v>
   <v type="int" >        4        2       14       23       24 </v>
   <v type="int" >        4        2       13       14       23 </v>
   <v type="int" >        4       19       20       22       32 </v>
   <v type="int" >        4       20       22       32       33 </v>
   <v type="int" >        4       22       32       32       33 </v>
   <v type="int" >        4       20       22       23       33 </v>
   <v type="int" >        4       20       21       23       33 </v>
   <v type="int" >        4       21       23       30       33 </v>
   <v type="int" >        4       22       23       32       33 </v>
   <v type="int" >        4       23       29       32       33 </v>
   <v type="int" >        4       23       29       30       33 </v>
   <v type="int" >        4       24       28       29       32 </v>
   <v type="int" >        4       23       24       29       32 </v>
   <v type="int" >        4       22       23       24       32 </v>
   <v type="int" >        4        1       10       14       24 </v>
   <v type="int" >        4        1        2       14       24 </v>
   <v type="int" >        4        1        2        4       24 </v>
  </varray>
  <i name="volumeweight">      0.00166667 </i>
 </kpoints>
 <parameters>
  <separator name="general" >
   <i type="string" name="SYSTEM">unknown system</i>
   <i type="logical" name="LCOMPAT"> F  </i>
  </separator>
  <separator name="electronic" >
   <i type="string" name="PREC">accura</i>
   <i name="ENMAX">    680.00000000</i>
   <i name="ENAUG">   1360.00000000</i>
   <i name="EDIFF">      0.00001000</i>
   <i type="int" name="IALGO">    68</i>
   <i type="int" name="IWAVPR">    10</i>
   <i type="int" name="NBANDS">    60</i>
   <i type="int" name="NBANDSLOW">    -1</i>
   <i type="int" name="NBANDSHIGH">    -1</i>
   <i name="NELECT">     72.00000000</i>
   <i type="int" name="TURBO">     0</i>
   <i type="int" name="IRESTART">     0</i>
   <i type="int" name="NREBOOT">     0</i>
   <i type="int" name="NMIN">     0</i>
   <i name="EREF">      0.00000000</i>
   <separator name="electronic smearing" >
    <i type="int" name="ISMEAR">    -5</i>
    <i name="SIGMA">      0.05000000</i>
    <i name="KSPACING">      0.50000000</i>
    <i type="logical" name="KGAMMA"> T  </i>
    <i type="logical" name="KBLOWUP"> F  </i>
   </separator>
   <separator name="electronic projectors" >
    <i type="logical" name="LREAL"> F  </i>
    <v name="ROPT">      0.00000000      0.00000000      0.00000000</v>
    <i type="int" name="LMAXPAW">  -100</i>
    <i type="int" name="LMAXMIX">     4</i>
    <i type="logical" name="NLSPLINE"> F  </i>
   </separator>
   <separator name="electronic startup" >
    <i type="int" name="ISTART">     0</i>
    <i type="int" name="ICHARG">    11</i>
    <i type="int" name="INIWAV">     1</i>
   </separator>
   <separator name="electronic spin" >
    <i type="int" name="ISPIN">     1</i>
    <i type="logical" name="LNONCOLLINEAR"> F  </i>
    <v name="MAGMOM">      1.00000000      1.00000000      1.00000000      1.00000000      1.00000000      1.00000000      1.00000000      1.00000000</v>
    <i name="NUPDOWN">     -1.00000000</i>
    <i type="logical" name="LSORBIT"> F  </i>
    <v name="SAXIS">      0.00000000      0.00000000      1.00000000</v>
    <i type="logical" name="LSPIRAL"> F  </i>
    <v name="QSPIRAL">      0.00000000      0.00000000      0.00000000</v>
    <i type="logical" name="LZEROZ"> F  </i>
   </separator>
   <separator name="electronic exchange-correlation" >
    <i type="logical" name="LASPH"> T  </i>
    <i type="logical" name="LMETAGGA"> F  </i>
   </separator>
   <separator name="electronic convergence" >
    <i type="int" name="NELM">   200</i>
    <i type="int" name="NELMDL">    -5</i>
    <i type="int" name="NELMIN">     2</i>
    <i name="ENINI">    680.00000000</i>
    <separator name="electronic convergence detail" >
     <i type="logical" name="LDIAG"> T  </i>
     <i type="logical" name="LSUBROT"> F  </i>
     <i name="WEIMIN">      0.00000000</i>
     <i name="EBREAK">      0.00000004</i>
     <i name="DEPER">      0.30000000</i>
     <i type="int" name="NRMM">     4</i>
     <i name="TIME">      0.40000000</i>
    </separator>
   </separator>
   <separator name="electronic mixer" >
    <i name="AMIX">      0.40000000</i>
    <i name="BMIX">      1.00000000</i>
    <i name="AMIN">      0.10000000</i>
    <i name="AMIX_MAG">      1.60000000</i>
    <i name="BMIX_MAG">      1.00000000</i>
    <separator name="electronic mixer details" >
     <i type="int" name="IMIX">     4</i>
     <i type="logical" name="MIXFIRST"> F  </i>
     <i type="int" name="MAXMIX">   -45</i>
     <i name="WC">    100.00000000</i>
     <i type="int" name="INIMIX">     1</i>
     <i type="int" name="MIXPRE">     1</i>
     <i type="int" name="MREMOVE">     5</i>
    </separator>
   </separator>
   <separator name="electronic dipolcorrection" >
    <i type="logical" name="LDIPOL"> F  </i>
    <i type="logical" name="LMONO"> F  </i>
    <i type="int" name="IDIPOL">     0</i>
    <i name="EPSILON">      1.00000000</i>
    <v name="DIPOL">   -100.00000000   -100.00000000   -100.00000000</v>
    <i name="EFIELD">      0.00000000</i>
   </separator>
  </separator>
  <separator name="grids" >
   <i type="int" name="NGX">    48</i>
   <i type="int" name="NGY">    48</i>
   <i type="int" name="NGZ">    60</i>
   <i type="int" name="NGXF">    96</i>
   <i type="int" name="NGYF">    96</i>
   <i type="int" name="NGZF">   120</i>
   <i type="logical" name="ADDGRID"> F  </i>
  </separator>
  <separator name="ionic" >
   <i type="int" name="NSW">     0</i>
   <i type="int" name="IBRION">    -1</i>
   <i type="int" name="MDALGO">     0</i>
   <i type="int" name="ISIF">     2</i>
   <i name="PSTRESS">      0.00000000</i>
   <i name="EDIFFG">      0.00010000</i>
   <i type="int" name="NFREE">     0</i>
   <i name="POTIM">      0.50000000</i>
   <i name="SMASS">     -3.00000000</i>
   <i name="SCALEE">      1.00000000</i>
  </separator>
  <separator name="ionic md" >
   <i name="TEBEG">      0.00010000</i>
   <i name="TEEND">      0.00010000</i>
   <i type="int" name="NBLOCK">     1</i>
   <i type="int" name="KBLOCK">     1</i>
   <i type="int" name="NPACO">   256</i>
   <i name="APACO">     10.00000000</i>
  </separator>
  <separator name="symmetry" >
   <i type="int" name="ISYM">     2</i>
   <i name="SYMPREC">      0.00001000</i>
  </separator>
  <separator name="dos" >
   <i type="int" name="LORBIT">    11</i>
   <v name="RWIGS">     -1.00000000     -1.00000000     -1.00000000</v>
   <i type="int" name="NEDOS">  1182</i>
   <i name="EMIN">     10.00000000</i>
   <i name="EMAX">    -10.00000000</i>
   <i name="EFERMI">      0.00000000</i>
  </separator>
  <separator name="writing" >
   <i type="int" name="NWRITE">     2</i>
   <i type="logical" name="LWAVE"> T  </i>
   <i type="logical" name="LDOWNSAMPLE"> F  </i>
   <i type="logical" name="LCHARG"> F  </i>
   <i type="logical" name="LPARD"> F  </i>
   <i type="logical" name="LVTOT"> T  </i>
   <i type="logical" name="LVHAR"> F  </i>
   <i type="logical" name="LELF"> F  </i>
   <i type="logical" name="LOPTICS"> F  </i>
   <v name="STM">      0.00000000      0.00000000      0.00000000      0.00000000      0.00000000      0.00000000      0.00000000</v>
  </separator>
  <separator name="performance" >
   <i type="int" name="NPAR">    12</i>
   <i type="int" name="NSIM">     4</i>
   <i type="int" name="NBLK">    -1</i>
   <i type="logical" name="LPLANE"> T  </i>
   <i type="logical" name="LSCALAPACK"> T  </i>
   <i type="logical" name="LSCAAWARE"> F  </i>
   <i type="logical" name="LSCALU"> F  </i>
   <i type="logical" name="LASYNC"> F  </i>
   <i type="logical" name="LORBITALREAL"> F  </i>
  </separator>
  <separator name="miscellaneous" >
   <i type="int" name="IDIOT">     3</i>
   <i type="int" name="PHON_NSTRUCT">    -1</i>
   <i type="logical" name="LMUSIC"> F  </i>
   <v name="POMASS">     69.72300000     63.54600000     78.96000000</v>
   <v name="DARWINR">      0.00000000      0.00000000      0.00000000</v>
   <v name="DARWINV">      1.00000000      1.00000000      1.00000000</v>
   <i type="logical" name="LCORR"> T  </i>
  </separator>
  <i type="logical" name="GGA_COMPAT"> T  </i>
  <i type="logical" name="LBERRY"> F  </i>
  <i type="int" name="ICORELEVEL">     0</i>
  <i type="logical" name="LDAU"> F  </i>
  <i type="int" name="I_CONSTRAINED_M">     0</i>
  <separator name="electronic exchange-correlation" >
   <i type="string" name="GGA">PS</i>
   <i type="int" name="VOSKOWN">     0</i>
   <i type="logical" name="LHFCALC"> F  </i>
   <i type="string" name="PRECFOCK"></i>
   <i type="logical" name="LSYMGRAD"> F  </i>
   <i type="logical" name="LHFONE"> F  </i>
   <i type="logical" name="LRHFCALC"> F  </i>
   <i type="logical" name="LTHOMAS"> F  </i>
   <i type="logical" name="LMODELHF"> F  </i>
   <i type="logical" name="LFOCKACE"> F  </i>
   <i name="ENCUT4O">     -1.00000000</i>
   <i type="int" name="EXXOEP">     0</i>
   <i type="int" name="FOURORBIT">     0</i>
   <i name="AEXX">      0.00000000</i>
   <i name="HFALPHA">      0.00000000</i>
   <i name="MCALPHA">      0.00000000</i>
   <i name="ALDAX">      1.00000000</i>
   <i name="AGGAX">      1.00000000</i>
   <i name="ALDAC">      1.00000000</i>
   <i name="AGGAC">      1.00000000</i>
   <i type="int" name="NKREDX">     1</i>
   <i type="int" name="NKREDY">     1</i>
   <i type="int" name="NKREDZ">     1</i>
   <i type="logical" name="SHIFTRED"> F  </i>
   <i type="logical" name="ODDONLY"> F  </i>
   <i type="logical" name="EVENONLY"> F  </i>
   <i type="int" name="LMAXFOCK">     0</i>
   <i type="int" name="NMAXFOCKAE">     0</i>
   <i type="logical" name="LFOCKAEDFT"> F  </i>
   <i name="HFSCREEN">      0.00000000</i>
   <i name="HFSCREENC">      0.00000000</i>
   <i type="int" name="NBANDSGWLOW">     0</i>
  </separator>
  <separator name="vdW DFT" >
   <i type="logical" name="LUSE_VDW"> F  </i>
   <i type="int" name="IVDW_NL">     1</i>
   <i type="logical" name="LSPIN_VDW"> F  </i>
   <i name="Zab_VDW">     -0.84910000</i>
   <i name="PARAM1">      0.12340000</i>
   <i name="PARAM2">      1.00000000</i>
   <i name="PARAM3">      0.00000000</i>
  </separator>
  <separator name="model GW" >
   <i type="int" name="MODEL_GW">     0</i>
   <i name="MODEL_EPS0">     13.07852443</i>
   <i name="MODEL_ALPHA">      1.00000000</i>
  </separator>
  <separator name="linear response parameters" >
   <i type="logical" name="LEPSILON"> F  </i>
   <i type="logical" name="LRPA"> F  </i>
   <i type="logical" name="LNABLA"> F  </i>
   <i type="logical" name="LVEL"> F  </i>
   <i name="CSHIFT">      0.10000000</i>
   <i name="OMEGAMAX">     -1.00000000</i>
   <i name="DEG_THRESHOLD">      0.00200000</i>
   <i name="RTIME">     -0.10000000</i>
   <i name="WPLASMAI">      0.00000000</i>
   <v name="DFIELD">      0.00000000      0.00000000      0.00000000</v>
   <v name="WPLASMA">      0.00000000      0.00000000      0.00000000      0.00000000      0.00000000      0.00000000      0.00000000      0.00000000      0.00000000</v>
  </separator>
  <separator name="orbital magnetization" >
   <i type="logical" name="NUCIND"> F  </i>
   <v name="MAGPOS">      0.00000000      0.00000000      0.00000000</v>
   <i type="logical" name="LNICSALL"> T  </i>
   <i type="logical" name="ORBITALMAG"> F  </i>
   <i type="logical" name="LMAGBLOCH"> F  </i>
   <i type="logical" name="LCHIMAG"> F  </i>
   <i type="logical" name="LGAUGE"> T  </i>
   <i type="int" name="MAGATOM">     0</i>
   <v name="MAGDIPOL">      0.00000000      0.00000000      0.00000000</v>
   <v name="AVECCONST">      0.00000000      0.00000000      0.00000000</v>
  </separator>
  <separator name="response functions" >
   <i type="logical" name="LALL_IN_ONE"> F  </i>
   <i type="int" name="IALL_IN_ONE">    -1</i>
   <i type="int" name="NBANDS_WAVE">    -1</i>
   <i type="logical" name="LFINITE_TEMPERATURE"> F  </i>
   <i type="logical" name="LADDER"> F  </i>
   <i type="logical" name="LRPAFORCE"> F  </i>
   <i type="logical" name="LFXC"> F  </i>
   <i type="logical" name="LHARTREE"> T  </i>
   <i type="int" name="IBSE">     0</i>
   <v type="int" name="KPOINT">    -1     0     0     0</v>
   <i type="logical" name="LTCTC"> F  </i>
   <i type="logical" name="LTCTE"> F  </i>
   <i type="logical" name="LTETE"> F  </i>
   <i type="logical" name="LTRIPLET"> F  </i>
   <i type="logical" name="LFXCEPS"> F  </i>
   <i type="logical" name="LFXHEG"> F  </i>
   <i type="int" name="NATURALO">     2</i>
   <i type="logical" name="LHOLEGF"> F  </i>
   <i type="logical" name="L2ORDER"> F  </i>
   <i type="logical" name="LDMP1"> F  </i>
   <i type="logical" name="LMP2LT"> F  </i>
   <i type="logical" name="LSMP2LT"> F  </i>
   <i type="logical" name="LGWLF"> F  </i>
   <i name="ENCUTGW">     -1.60000002</i>
   <i name="ENCUTGWSOFT">     -1.60000002</i>
   <i name="ENCUTLF">     -1.00000000</i>
   <i type="logical" name="LESF_SPLINES"> F  </i>
   <i type="int" name="LMAXMP2">    -1</i>
   <i name="SCISSOR">      0.00000000</i>
   <i type="int" name="NOMEGA">     0</i>
   <i type="int" name="NOMEGAR">     0</i>
   <i type="int" name="NBANDSGW">    -1</i>
   <i type="int" name="NBANDSO">    -1</i>
   <i type="int" name="NBANDSV">    -1</i>
   <i type="int" name="NELMGW">     1</i>
   <i type="int" name="NELMHF">     1</i>
   <i type="int" name="DIM">     3</i>
   <i type="int" name="IESPILON">     4</i>
   <i type="int" name="ANTIRES">     0</i>
   <i name="OMEGAMAX">    -30.00000000</i>
   <i name="OMEGAMIN">    -30.00000000</i>
   <i name="OMEGATL">   -200.00000000</i>
   <i type="int" name="OMEGAGRID">     0</i>
   <i name="CSHIFT">     -0.10000000</i>
   <i type="logical" name="LSELFENERGY"> F  </i>
   <i type="logical" name="LSPECTRAL"> F  </i>
   <i type="logical" name="LSPECTRALGW"> F  </i>
   <i type="logical" name="LSINGLES"> F  </i>
   <i type="logical" name="LFERMIGW"> F  </i>
   <i type="logical" name="ODDONLYGW"> F  </i>
   <i type="logical" name="EVENONLYGW"> F  </i>
   <i type="int" name="NKREDLFX">     1</i>
   <i type="int" name="NKREDLFY">     1</i>
   <i type="int" name="NKREDLFZ">     1</i>
   <i type="int" name="MAXMEM">  2800</i>
   <i type="int" name="TELESCOPE">     0</i>
   <i type="int" name="NTAUPAR">    -1</i>
   <i type="int" name="NOMEGAPAR">    -1</i>
   <i name="DAMP_NEWTON">      0.80000001</i>
   <i name="LAMBDA">      1.00000000</i>
  </separator>
  <separator name="External order field" >
   <i name="OFIELD_KAPPA">      0.00000000</i>
   <v name="OFIELD_K">      0.00000000      0.00000000      0.00000000</v>
   <i name="OFIELD_Q6_NEAR">      0.00000000</i>
   <i name="OFIELD_Q6_FAR">      0.00000000</i>
   <i name="OFIELD_A">      0.00000000</i>
  </separator>
  <separator name="optional k-points parameters" >
   <i type="int" name="KPOINTS_OPT_MODE">     1</i>
   <i type="logical" name="LKPOINTS_OPT"> F  </i>
  </separator>
 </parameters>
 <atominfo>
  <atoms>       8 </atoms>
  <types>       3 </types>
  <array name="atoms" >
   <dimension dim="1">ion</dimension>
   <field type="string">element</field>
   <field type="int">atomtype</field>
   <set>
    <rc><c>Ga</c><c>   1</c></rc>
    <rc><c>Ga</c><c>   1</c></rc>
    <rc><c>Cu</c><c>   2</c></rc>
    <rc><c>Cu</c><c>   2</c></rc>
    <rc><c>Se</c><c>   3</c></rc>
    <rc><c>Se</c><c>   3</c></rc>
    <rc><c>Se</c><c>   3</c></rc>
    <rc><c>Se</c><c>   3</c></rc>
   </set>
  </array>
  <array name="atomtypes" >
   <dimension dim="1">type</dimension>
   <field type="int">atomspertype</field>
   <field type="string">element</field>
   <field>mass</field>
   <field>valence</field>
   <field type="string">pseudopotential</field>
   <set>
    <rc><c>   2</c><c>Ga</c><c>     69.72300000</c><c>     13.00000000</c><c>  PAW_PBE Ga_d 06Jul2010                </c></rc>
    <rc><c>   2</c><c>Cu</c><c>     63.54600000</c><c>     11.00000000</c><c>  PAW_PBE Cu 22Jun2005                  </c></rc>
    <rc><c>   4</c><c>Se</c><c>     78.96000000</c><c>      6.00000000</c><c>  PAW_PBE Se 06Sep2000                  </c></rc>
   </set>
  </array>
 </atominfo>
 <structure name="initialpos" >
  <crystal>
   <varray name="basis" >
    <v>       5.10874036       0.00000000      -2.30030869 </v>
    <v>      -1.03575852       5.00264257      -2.30030916 </v>
    <v>       0.00000000       0.00000000       6.82313837 </v>
   </varray>
   <i name="volume">    174.38032574 </i>
   <varray name="rec_basis" >
    <v>       0.19574297       0.04052707       0.00000000 </v>
    <v>       0.00000000       0.19989435       0.00000000 </v>
    <v>       0.06599152       0.08105414       0.14656012 </v>
   </varray>
  </crystal>
  <varray name="positions" >
   <v>       0.50000000       0.50000000       0.00000000 </v>
   <v>       0.75000000       0.25000000       0.50000000 </v>
   <v>       0.00000000       0.00000000       0.00000000 </v>
   <v>       0.25000000       0.75000000       0.50000000 </v>
   <v>       0.37121578       0.37500000       0.25000000 </v>
   <v>       0.12500000       0.62878422       0.75000000 </v>
   <v>       0.62500000       0.12121578       0.75000000 </v>
   <v>       0.87878422       0.87500000       0.25000000 </v>
  </varray>
 </structure>
 <calculation>
  <scstep>
   <time name="dav">    0.83    0.84</time>
   <time name="total">    1.03    1.04</time>
   <energy>
    <i name="alphaZ">    236.66789905 </i>
    <i name="ewald">  -4863.29910036 </i>
    <i name="hartreedc">  -2591.85111713 </i>
    <i name="XCdc">    181.04870358 </i>
    <i name="pawpsdc">   7586.99673414 </i>
    <i name="pawaedc">  -8416.56917974 </i>
    <i name="eentropy">      0.00000000 </i>
    <i name="bandstr">    476.99540059 </i>
    <i name="atom">   8103.91845111 </i>
    <i name="e_fr_energy">    713.90779123 </i>
    <i name="e_wo_entrp">    713.90779123 </i>
    <i name="e_0_energy">    713.90779123 </i>
   </energy>
  </scstep>
  <scstep>
   <time name="dav">    0.71    0.71</time>
   <time name="total">    0.72    0.73</time>
   <energy>
    <i name="e_fr_energy">     90.88948211 </i>
    <i name="e_wo_entrp">     90.88948211 </i>
    <i name="e_0_energy">     90.88948211 </i>
   </energy>
  </scstep>
  <scstep>
   <time name="dav">    0.80    0.81</time>
   <time name="total">    0.81    0.82</time>
   <energy>
    <i name="e_fr_energy">    -27.80558868 </i>
    <i name="e_wo_entrp">    -27.80558868 </i>
    <i name="e_0_energy">    -27.80558868 </i>
   </energy>
  </scstep>
  <scstep>
   <time name="dav">    0.81    0.82</time>
   <time name="total">    0.82    0.83</time>
   <energy>
    <i name="e_fr_energy">    -34.21082467 </i>
    <i name="e_wo_entrp">    -34.21082467 </i>
    <i name="e_0_energy">    -34.21082467 </i>
   </energy>
  </scstep>
  <scstep>
   <time name="dav">    0.77    0.79</time>
   <time name="total">    0.78    0.80</time>
   <energy>
    <i name="e_fr_energy">    -34.38109022 </i>
    <i name="e_wo_entrp">    -34.38109022 </i>
    <i name="e_0_energy">    -34.38109022 </i>
   </energy>
  </scstep>
  <scstep>
   <time name="diag">    0.24    0.25</time>
   <time name="diis">    0.39    0.39</time>
   <time name="orth">    0.03    0.03</time>
   <time name="total">    0.67    0.68</time>
   <energy>
    <i name="e_fr_energy">    -34.38823370 </i>
    <i name="e_wo_entrp">    -34.38823370 </i>
    <i name="e_0_energy">    -34.38823370 </i>
   </energy>
  </scstep>
  <scstep>
   <time name="diag">    0.23    0.25</time>
   <time name="diis">    0.37    0.37</time>
   <time name="orth">    0.03    0.03</time>
   <time name="total">    0.64    0.66</time>
   <energy>
    <i name="e_fr_energy">    -34.38943793 </i>
    <i name="e_wo_entrp">    -34.38943793 </i>
    <i name="e_0_energy">    -34.38943793 </i>
   </energy>
  </scstep>
  <scstep>
   <time name="diag">    0.23    0.25</time>
   <time name="diis">    0.37    0.37</time>
   <time name="orth">    0.03    0.03</time>
   <time name="total">    0.64    0.66</time>
   <energy>
    <i name="e_fr_energy">    -34.38958419 </i>
    <i name="e_wo_entrp">    -34.38958419 </i>
    <i name="e_0_energy">    -34.38958419 </i>
   </energy>
  </scstep>
  <scstep>
   <time name="diag">    0.23    0.25</time>
   <time name="diis">    0.35    0.35</time>
   <time name="orth">    0.03    0.03</time>
   <time name="total">    0.62    0.64</time>
   <energy>
    <i name="e_fr_energy">    -34.38960527 </i>
    <i name="e_wo_entrp">    -34.38960527 </i>
    <i name="e_0_energy">    -34.38960527 </i>
   </energy>
  </scstep>
  <scstep>
   <time name="diag">    0.25    0.26</time>
   <time name="diis">    0.32    0.32</time>
   <time name="orth">    0.03    0.03</time>
   <time name="total">    0.60    0.62</time>
   <energy>
    <i name="alphaZ">    236.66789905 </i>
    <i name="ewald">  -4863.29910036 </i>
    <i name="hartreedc">  -2591.85111713 </i>
    <i name="XCdc">    181.04870358 </i>
    <i name="pawpsdc">   7586.99673414 </i>
    <i name="pawaedc">  -8416.56917974 </i>
    <i name="eentropy">      0.00000000 </i>
    <i name="bandstr">   -271.30199907 </i>
    <i name="atom">   8103.91845111 </i>
    <i name="e_fr_energy">    -34.38960843 </i>
    <i name="e_wo_entrp">    -34.38960843 </i>
    <i name="e_0_energy">    -34.38960843 </i>
   </energy>
  </scstep>
  <structure>
   <crystal>
    <varray name="basis" >
     <v>       5.10874036       0.00000000      -2.30030869 </v>
     <v>      -1.03575852       5.00264257      -2.30030916 </v>
     <v>       0.00000000       0.00000000       6.82313837 </v>
    </varray>
    <i name="volume">    174.38032574 </i>
    <varray name="rec_basis" >
     <v>       0.19574297       0.04052707       0.00000000 </v>
     <v>       0.00000000       0.19989435       0.00000000 </v>
     <v>       0.06599152       0.08105414       0.14656012 </v>
    </varray>
   </crystal>
   <varray name="positions" >
    <v>       0.50000000       0.50000000       0.00000000 </v>
    <v>       0.75000000       0.25000000       0.50000000 </v>
    <v>       0.00000000       0.00000000       0.00000000 </v>
    <v>       0.25000000       0.75000000       0.50000000 </v>
    <v>       0.37121578       0.37500000       0.25000000 </v>
    <v>       0.12500000       0.62878422       0.75000000 </v>
    <v>       0.62500000       0.12121578       0.75000000 </v>
    <v>       0.87878422       0.87500000       0.25000000 </v>
   </varray>
  </structure>
  <varray name="forces" >
   <v>      -0.00000000       0.00000000      -0.00000000 </v>
   <v>      -0.00000000       0.00000000      -0.00000000 </v>
   <v>      -0.00000000       0.00000000      -0.00000000 </v>
   <v>      -0.00000000       0.00000000      -0.00000000 </v>
   <v>      -0.17061771       0.00000000       0.07682391 </v>
   <v>      -0.03459145       0.16707433      -0.07682392 </v>
   <v>       0.03459145      -0.16707433       0.07682392 </v>
   <v>       0.17061771       0.00000000      -0.07682391 </v>
  </varray>
  <varray name="stress" >
   <v>     -10.81676753      -0.03710876      -0.06710028 </v>
   <v>      -0.03710876     -10.83213386      -0.08241494 </v>
   <v>      -0.06710028      -0.08241494     -10.93557725 </v>
  </varray>
  <energy>
   <i name="e_fr_energy">    -34.38960843 </i>
   <i name="e_wo_entrp">    -34.38960843 </i>
   <i name="e_0_energy">    -34.38960843 </i>
  </energy>
  <time name="totalsc">    8.97    9.14</time>
  <eigenvalues>
   <array>
    <dimension dim="1">band</dimension>
    <dimension dim="2">kpoint</dimension>
    <dimension dim="3">spin</dimension>
    <field>eigene</field>
    <field>occ</field>
    <set>
     <set comment="spin 1">
      <set comment="kpoint 1">
       <r>  -11.6222    1.0000 </r>
       <r>  -11.6218    1.0000 </r>
       <r>  -11.6218    1.0000 </r>
       <r>  -11.4695    1.0000 </r>
       <r>  -11.4547    1.0000 </r>
       <r>  -11.4547    1.0000 </r>
       <r>  -11.4109    1.0000 </r>
       <r>  -11.4046    1.0000 </r>
       <r>  -11.4022    1.0000 </r>
       <r>  -11.3898    1.0000 </r>
       <r>  -10.7087    1.0000 </r>
       <r>   -9.0939    1.0000 </r>
       <r>   -9.0939    1.0000 </r>
       <r>   -9.0934    1.0000 </r>
       <r>   -3.8096    1.0000 </r>
       <r>   -2.4712    1.0000 </r>
       <r>   -1.1514    1.0000 </r>
       <r>   -0.7680    1.0000 </r>
       <r>   -0.7316    1.0000 </r>
       <r>   -0.3664    1.0000 </r>
       <r>   -0.3664    1.0000 </r>
       <r>    0.3289    1.0000 </r>
       <r>    0.3289    1.0000 </r>
       <r>    0.6383    1.0000 </r>
       <r>    0.6383    1.0000 </r>
       <r>    0.6952    1.0000 </r>
       <r>    1.6968    1.0000 </r>
       <r>    1.7389    1.0000 </r>
       <r>    1.8320    1.0000 </r>
       <r>    2.1251    1.0000 </r>
       <r>    2.1704    1.0000 </r>
       <r>    2.1704    1.0000 </r>
       <r>    2.2664    1.0000 </r>
       <r>    3.7822    1.0000 </r>
       <r>    3.7822    1.0000 </r>
       <r>    3.8839    1.0000 </r>
       <r>    4.0091    0.0000 </r>
       <r>    5.7081    0.0000 </r>
       <r>    6.0613    0.0000 </r>
       <r>    7.7952    0.0000 </r>
       <r>    7.7952    0.0000 </r>
       <r>    8.1538    0.0000 </r>
       <r>    8.6014    0.0000 </r>
       <r>    8.6014    0.0000 </r>
       <r>    8.6407    0.0000 </r>
       <r>    8.9491    0.0000 </r>
       <r>   10.2575    0.0000 </r>
       <r>   10.2575    0.0000 </r>
       <r>   10.4766    0.0000 </r>
       <r>   10.8396    0.0000 </r>
       <r>   13.1347    0.0000 </r>
       <r>   14.1022    0.0000 </r>
       <r>   14.2679    0.0000 </r>
       <r>   14.2683    0.0000 </r>
       <r>   14.4278    0.0000 </r>
       <r>   14.4850    0.0000 </r>
       <r>   14.6245    0.0000 </r>
       <r>   14.7209    0.0000 </r>
       <r>   15.9410    0.0000 </r>
       <r>   15.9528    0.0000 </r>
      </set>
      <set comment="kpoint 2">
       <r>  -11.6291    1.0000 </r>
       <r>  -11.6235    1.0000 </r>
       <r>  -11.6150    1.0000 </r>
       <r>  -11.4819    1.0000 </r>
       <r>  -11.4636    1.0000 </r>
       <r>  -11.4531    1.0000 </r>
       <r>  -11.4108    1.0000 </r>
       <r>  -11.4038    1.0000 </r>
       <r>  -11.4017    1.0000 </r>
       <r>  -11.3900    1.0000 </r>
       <r>  -10.5555    1.0000 </r>
       <r>   -9.2152    1.0000 </r>
       <r>   -9.1528    1.0000 </r>
       <r>   -9.1223    1.0000 </r>
       <r>   -3.6699    1.0000 </r>
       <r>   -2.5364    1.0000 </r>
       <r>   -1.2282    1.0000 </r>
       <r>   -0.9107    1.0000 </r>
       <r>   -0.6051    1.0000 </r>
       <r>   -0.2020    1.0000 </r>
       <r>   -0.1280    1.0000 </r>
       <r>    0.1706    1.0000 </r>
       <r>    0.3562    1.0000 </r>
       <r>    0.4475    1.0000 </r>
       <r>    0.6302    1.0000 </r>
       <r>    0.7603    1.0000 </r>
       <r>    1.7480    1.0000 </r>
       <r>    1.8284    1.0000 </r>
       <r>    1.8716    1.0000 </r>
       <r>    1.9976    1.0000 </r>
       <r>    2.0969    1.0000 </r>
       <r>    2.3119    1.0000 </r>
       <r>    2.3483    1.0000 </r>
       <r>    2.8715    1.0000 </r>
       <r>    3.4324    1.0000 </r>
       <r>    3.7074    1.0000 </r>
       <r>    5.1837    0.0000 </r>
       <r>    6.2953    0.0000 </r>
       <r>    6.3852    0.0000 </r>
       <r>    7.1718    0.0000 </r>
       <r>    7.4402    0.0000 </r>
       <r>    8.1087    0.0000 </r>
       <r>    8.5438    0.0000 </r>
       <r>    8.6950    0.0000 </r>
       <r>    8.8563    0.0000 </r>
       <r>    9.3671    0.0000 </r>
       <r>    9.9341    0.0000 </r>
       <r>   10.5705    0.0000 </r>
       <r>   11.4974    0.0000 </r>
       <r>   12.0724    0.0000 </r>
       <r>   12.4409    0.0000 </r>
       <r>   12.9536    0.0000 </r>
       <r>   13.1238    0.0000 </r>
       <r>   13.3469    0.0000 </r>
       <r>   13.5435    0.0000 </r>
       <r>   14.0926    0.0000 </r>
       <r>   14.2134    0.0000 </r>
       <r>   14.3456    0.0000 </r>
       <r>   15.2419    0.0000 </r>
       <r>   15.6497    0.0000 </r>
      </set>
      <set comment="kpoint 3">
       <r>  -11.6383    1.0000 </r>
       <r>  -11.6274    1.0000 </r>
       <r>  -11.6011    1.0000 </r>
       <r>  -11.5099    1.0000 </r>
       <r>  -11.4664    1.0000 </r>
       <r>  -11.4510    1.0000 </r>
       <r>  -11.4097    1.0000 </r>
       <r>  -11.4061    1.0000 </r>
       <r>  -11.3976    1.0000 </r>
       <r>  -11.3912    1.0000 </r>
       <r>  -10.1863    1.0000 </r>
       <r>   -9.5666    1.0000 </r>
       <r>   -9.2287    1.0000 </r>
       <r>   -9.1678    1.0000 </r>
       <r>   -3.4041    1.0000 </r>
       <r>   -2.5402    1.0000 </r>
       <r>   -1.2195    1.0000 </r>
       <r>   -0.9442    1.0000 </r>
       <r>   -0.5879    1.0000 </r>
       <r>   -0.4024    1.0000 </r>
       <r>   -0.1553    1.0000 </r>
       <r>    0.1461    1.0000 </r>
       <r>    0.3856    1.0000 </r>
       <r>    0.4290    1.0000 </r>
       <r>    0.6084    1.0000 </r>
       <r>    0.8284    1.0000 </r>
       <r>    1.8389    1.0000 </r>
       <r>    1.8889    1.0000 </r>
       <r>    1.9291    1.0000 </r>
       <r>    1.9795    1.0000 </r>
       <r>    2.1243    1.0000 </r>
       <r>    2.3722    1.0000 </r>
       <r>    2.4899    1.0000 </r>
       <r>    2.6757    1.0000 </r>
       <r>    2.8337    1.0000 </r>
       <r>    3.3846    1.0000 </r>
       <r>    5.8924    0.0000 </r>
       <r>    6.3160    0.0000 </r>
       <r>    7.0443    0.0000 </r>
       <r>    7.5723    0.0000 </r>
       <r>    7.8835    0.0000 </r>
       <r>    8.1011    0.0000 </r>
       <r>    8.7437    0.0000 </r>
       <r>    8.9602    0.0000 </r>
       <r>    9.4152    0.0000 </r>
       <r>    9.5440    0.0000 </r>
       <r>    9.8369    0.0000 </r>
       <r>   10.1272    0.0000 </r>
       <r>   10.8476    0.0000 </r>
       <r>   11.5641    0.0000 </r>
       <r>   11.6838    0.0000 </r>
       <r>   12.0843    0.0000 </r>
       <r>   12.4564    0.0000 </r>
       <r>   12.6161    0.0000 </r>
       <r>   13.0239    0.0000 </r>
       <r>   13.6553    0.0000 </r>
       <r>   14.1258    0.0000 </r>
       <r>   14.5693    0.0000 </r>
       <r>   15.5906    0.0000 </r>
       <r>   15.7146    0.0000 </r>
      </set>
      <set comment="kpoint 4">
       <r>  -11.6329    1.0000 </r>
       <r>  -11.6279    1.0000 </r>
       <r>  -11.6043    1.0000 </r>
       <r>  -11.5046    1.0000 </r>
       <r>  -11.4614    1.0000 </r>
       <r>  -11.4546    1.0000 </r>
       <r>  -11.4104    1.0000 </r>
       <r>  -11.4046    1.0000 </r>
       <r>  -11.3995    1.0000 </r>
       <r>  -11.3904    1.0000 </r>
       <r>  -10.3607    1.0000 </r>
       <r>   -9.3248    1.0000 </r>
       <r>   -9.2313    1.0000 </r>
       <r>   -9.1891    1.0000 </r>
       <r>   -3.5195    1.0000 </r>
       <r>   -2.6873    1.0000 </r>
       <r>   -1.3979    1.0000 </r>
       <r>   -0.6821    1.0000 </r>
       <r>   -0.4457    1.0000 </r>
       <r>   -0.2872    1.0000 </r>
       <r>   -0.2634    1.0000 </r>
       <r>    0.2918    1.0000 </r>
       <r>    0.3839    1.0000 </r>
       <r>    0.4838    1.0000 </r>
       <r>    0.6620    1.0000 </r>
       <r>    0.7480    1.0000 </r>
       <r>    1.7780    1.0000 </r>
       <r>    1.8939    1.0000 </r>
       <r>    1.9348    1.0000 </r>
       <r>    1.9745    1.0000 </r>
       <r>    2.1342    1.0000 </r>
       <r>    2.2824    1.0000 </r>
       <r>    2.4163    1.0000 </r>
       <r>    2.7106    1.0000 </r>
       <r>    3.5055    1.0000 </r>
       <r>    3.5575    1.0000 </r>
       <r>    5.1501    0.0000 </r>
       <r>    5.9597    0.0000 </r>
       <r>    6.6979    0.0000 </r>
       <r>    6.7108    0.0000 </r>
       <r>    7.5944    0.0000 </r>
       <r>    8.2908    0.0000 </r>
       <r>    8.7709    0.0000 </r>
       <r>    8.9188    0.0000 </r>
       <r>    9.1074    0.0000 </r>
       <r>    9.3386    0.0000 </r>
       <r>   10.5609    0.0000 </r>
       <r>   10.6528    0.0000 </r>
       <r>   10.9806    0.0000 </r>
       <r>   11.6170    0.0000 </r>
       <r>   11.9616    0.0000 </r>
       <r>   12.2055    0.0000 </r>
       <r>   13.1611    0.0000 </r>
       <r>   13.3232    0.0000 </r>
       <r>   13.6599    0.0000 </r>
       <r>   13.8474    0.0000 </r>
       <r>   14.1937    0.0000 </r>
       <r>   14.3276    0.0000 </r>
       <r>   15.6646    0.0000 </r>
       <r>   16.0946    0.0000 </r>
      </set>
      <set comment="kpoint 5">
       <r>  -11.6402    1.0000 </r>
       <r>  -11.6312    1.0000 </r>
       <r>  -11.5893    1.0000 </r>
       <r>  -11.5261    1.0000 </r>
       <r>  -11.4643    1.0000 </r>
       <r>  -11.4546    1.0000 </r>
       <r>  -11.4080    1.0000 </r>
       <r>  -11.4056    1.0000 </r>
       <r>  -11.3968    1.0000 </r>
       <r>  -11.3922    1.0000 </r>
       <r>  -10.0163    1.0000 </r>
       <r>   -9.6027    1.0000 </r>
       <r>   -9.3300    1.0000 </r>
       <r>   -9.2081    1.0000 </r>
       <r>   -3.3624    1.0000 </r>
       <r>   -2.7650    1.0000 </r>
       <r>   -1.5189    1.0000 </r>
       <r>   -1.1247    1.0000 </r>
       <r>   -0.5245    1.0000 </r>
       <r>   -0.1955    1.0000 </r>
       <r>    0.1657    1.0000 </r>
       <r>    0.3202    1.0000 </r>
       <r>    0.3822    1.0000 </r>
       <r>    0.4808    1.0000 </r>
       <r>    0.6783    1.0000 </r>
       <r>    0.7603    1.0000 </r>
       <r>    1.8107    1.0000 </r>
       <r>    1.8691    1.0000 </r>
       <r>    1.9417    1.0000 </r>
       <r>    2.0017    1.0000 </r>
       <r>    2.2904    1.0000 </r>
       <r>    2.3671    1.0000 </r>
       <r>    2.6106    1.0000 </r>
       <r>    2.7355    1.0000 </r>
       <r>    3.0354    1.0000 </r>
       <r>    3.3225    1.0000 </r>
       <r>    5.4676    0.0000 </r>
       <r>    6.0486    0.0000 </r>
       <r>    6.8636    0.0000 </r>
       <r>    7.4445    0.0000 </r>
       <r>    7.9717    0.0000 </r>
       <r>    8.3753    0.0000 </r>
       <r>    8.7690    0.0000 </r>
       <r>    8.8376    0.0000 </r>
       <r>    9.3031    0.0000 </r>
       <r>    9.8789    0.0000 </r>
       <r>   10.1199    0.0000 </r>
       <r>   10.3679    0.0000 </r>
       <r>   10.4642    0.0000 </r>
       <r>   10.8824    0.0000 </r>
       <r>   11.3560    0.0000 </r>
       <r>   12.0277    0.0000 </r>
       <r>   12.8204    0.0000 </r>
       <r>   13.2168    0.0000 </r>
       <r>   13.5361    0.0000 </r>
       <r>   13.7911    0.0000 </r>
       <r>   14.0589    0.0000 </r>
       <r>   14.7036    0.0000 </r>
       <r>   15.8101    0.0000 </r>
       <r>   15.8771    0.0000 </r>
      </set>
      <set comment="kpoint 6">
       <r>  -11.6403    1.0000 </r>
       <r>  -11.6294    1.0000 </r>
       <r>  -11.5972    1.0000 </r>
       <r>  -11.5123    1.0000 </r>
       <r>  -11.4666    1.0000 </r>
       <r>  -11.4558    1.0000 </r>
       <r>  -11.4075    1.0000 </r>
       <r>  -11.4041    1.0000 </r>
       <r>  -11.3987    1.0000 </r>
       <r>  -11.3920    1.0000 </r>
       <r>  -10.1627    1.0000 </r>
       <r>   -9.4786    1.0000 </r>
       <r>   -9.3242    1.0000 </r>
       <r>   -9.1512    1.0000 </r>
       <r>   -3.4718    1.0000 </r>
       <r>   -2.7771    1.0000 </r>
       <r>   -1.4738    1.0000 </r>
       <r>   -0.9764    1.0000 </r>
       <r>   -0.7806    1.0000 </r>
       <r>   -0.1731    1.0000 </r>
       <r>    0.1231    1.0000 </r>
       <r>    0.2709    1.0000 </r>
       <r>    0.3819    1.0000 </r>
       <r>    0.5584    1.0000 </r>
       <r>    0.6805    1.0000 </r>
       <r>    0.8073    1.0000 </r>
       <r>    1.8241    1.0000 </r>
       <r>    1.8811    1.0000 </r>
       <r>    1.9373    1.0000 </r>
       <r>    2.0049    1.0000 </r>
       <r>    2.2586    1.0000 </r>
       <r>    2.3276    1.0000 </r>
       <r>    2.5575    1.0000 </r>
       <r>    2.7337    1.0000 </r>
       <r>    3.1431    1.0000 </r>
       <r>    3.3072    1.0000 </r>
       <r>    5.6853    0.0000 </r>
       <r>    6.0500    0.0000 </r>
       <r>    7.0948    0.0000 </r>
       <r>    7.3046    0.0000 </r>
       <r>    7.9325    0.0000 </r>
       <r>    8.4037    0.0000 </r>
       <r>    8.5534    0.0000 </r>
       <r>    9.0443    0.0000 </r>
       <r>    9.4673    0.0000 </r>
       <r>    9.8478    0.0000 </r>
       <r>   10.1606    0.0000 </r>
       <r>   10.4012    0.0000 </r>
       <r>   10.8089    0.0000 </r>
       <r>   10.9112    0.0000 </r>
       <r>   11.4709    0.0000 </r>
       <r>   11.9439    0.0000 </r>
       <r>   12.2527    0.0000 </r>
       <r>   12.9792    0.0000 </r>
       <r>   13.6329    0.0000 </r>
       <r>   13.7603    0.0000 </r>
       <r>   14.3896    0.0000 </r>
       <r>   14.6038    0.0000 </r>
       <r>   15.2179    0.0000 </r>
       <r>   15.5111    0.0000 </r>
      </set>
      <set comment="kpoint 7">
       <r>  -11.6321    1.0000 </r>
       <r>  -11.6267    1.0000 </r>
       <r>  -11.6116    1.0000 </r>
       <r>  -11.4831    1.0000 </r>
       <r>  -11.4675    1.0000 </r>
       <r>  -11.4568    1.0000 </r>
       <r>  -11.4088    1.0000 </r>
       <r>  -11.4028    1.0000 </r>
       <r>  -11.4021    1.0000 </r>
       <r>  -11.3908    1.0000 </r>
       <r>  -10.4755    1.0000 </r>
       <r>   -9.2520    1.0000 </r>
       <r>   -9.2208    1.0000 </r>
       <r>   -9.0991    1.0000 </r>
       <r>   -3.6551    1.0000 </r>
       <r>   -2.6391    1.0000 </r>
       <r>   -1.3856    1.0000 </r>
       <r>   -0.7780    1.0000 </r>
       <r>   -0.6707    1.0000 </r>
       <r>   -0.4303    1.0000 </r>
       <r>    0.1344    1.0000 </r>
       <r>    0.2359    1.0000 </r>
       <r>    0.3528    1.0000 </r>
       <r>    0.4000    1.0000 </r>
       <r>    0.6742    1.0000 </r>
       <r>    0.8056    1.0000 </r>
       <r>    1.7832    1.0000 </r>
       <r>    1.8827    1.0000 </r>
       <r>    1.9192    1.0000 </r>
       <r>    1.9353    1.0000 </r>
       <r>    2.0820    1.0000 </r>
       <r>    2.4323    1.0000 </r>
       <r>    2.4453    1.0000 </r>
       <r>    2.6138    1.0000 </r>
       <r>    3.3804    1.0000 </r>
       <r>    3.6804    1.0000 </r>
       <r>    5.3330    0.0000 </r>
       <r>    6.0082    0.0000 </r>
       <r>    7.0122    0.0000 </r>
       <r>    7.4550    0.0000 </r>
       <r>    7.8823    0.0000 </r>
       <r>    8.0146    0.0000 </r>
       <r>    8.2637    0.0000 </r>
       <r>    8.7879    0.0000 </r>
       <r>    9.0147    0.0000 </r>
       <r>    9.2485    0.0000 </r>
       <r>   10.2564    0.0000 </r>
       <r>   10.5973    0.0000 </r>
       <r>   11.9858    0.0000 </r>
       <r>   11.9957    0.0000 </r>
       <r>   12.2262    0.0000 </r>
       <r>   12.3811    0.0000 </r>
       <r>   12.5943    0.0000 </r>
       <r>   13.0013    0.0000 </r>
       <r>   13.0583    0.0000 </r>
       <r>   13.3261    0.0000 </r>
       <r>   13.8468    0.0000 </r>
       <r>   14.6288    0.0000 </r>
       <r>   15.2983    0.0000 </r>
       <r>   15.6713    0.0000 </r>
      </set>
      <set comment="kpoint 8">
       <r>  -11.6406    1.0000 </r>
       <r>  -11.6382    1.0000 </r>
       <r>  -11.5665    1.0000 </r>
       <r>  -11.5501    1.0000 </r>
       <r>  -11.4630    1.0000 </r>
       <r>  -11.4606    1.0000 </r>
       <r>  -11.4048    1.0000 </r>
       <r>  -11.4041    1.0000 </r>
       <r>  -11.3961    1.0000 </r>
       <r>  -11.3947    1.0000 </r>
       <r>   -9.7746    1.0000 </r>
       <r>   -9.6522    1.0000 </r>
       <r>   -9.3778    1.0000 </r>
       <r>   -9.3290    1.0000 </r>
       <r>   -3.3095    1.0000 </r>
       <r>   -3.1445    1.0000 </r>
       <r>   -1.6507    1.0000 </r>
       <r>   -1.5559    1.0000 </r>
       <r>   -0.2688    1.0000 </r>
       <r>   -0.1761    1.0000 </r>
       <r>    0.3703    1.0000 </r>
       <r>    0.4599    1.0000 </r>
       <r>    0.4668    1.0000 </r>
       <r>    0.6365    1.0000 </r>
       <r>    0.7201    1.0000 </r>
       <r>    0.7492    1.0000 </r>
       <r>    1.8375    1.0000 </r>
       <r>    1.8500    1.0000 </r>
       <r>    1.9911    1.0000 </r>
       <r>    2.0054    1.0000 </r>
       <r>    2.3566    1.0000 </r>
       <r>    2.5479    1.0000 </r>
       <r>    2.9400    1.0000 </r>
       <r>    2.9913    1.0000 </r>
       <r>    3.2071    1.0000 </r>
       <r>    3.2645    1.0000 </r>
       <r>    5.0236    0.0000 </r>
       <r>    5.4518    0.0000 </r>
       <r>    7.3924    0.0000 </r>
       <r>    7.4171    0.0000 </r>
       <r>    7.9935    0.0000 </r>
       <r>    8.1533    0.0000 </r>
       <r>    8.7248    0.0000 </r>
       <r>    9.0350    0.0000 </r>
       <r>    9.2127    0.0000 </r>
       <r>    9.6904    0.0000 </r>
       <r>    9.7878    0.0000 </r>
       <r>    9.8924    0.0000 </r>
       <r>   10.8721    0.0000 </r>
       <r>   11.1043    0.0000 </r>
       <r>   11.6549    0.0000 </r>
       <r>   11.8435    0.0000 </r>
       <r>   13.1165    0.0000 </r>
       <r>   13.1991    0.0000 </r>
       <r>   13.5371    0.0000 </r>
       <r>   13.9813    0.0000 </r>
       <r>   14.5877    0.0000 </r>
       <r>   14.8874    0.0000 </r>
       <r>   15.0559    0.0000 </r>
       <r>   15.4714    0.0000 </r>
      </set>
      <set comment="kpoint 9">
       <r>  -11.6415    1.0000 </r>
       <r>  -11.6361    1.0000 </r>
       <r>  -11.5807    1.0000 </r>
       <r>  -11.5325    1.0000 </r>
       <r>  -11.4651    1.0000 </r>
       <r>  -11.4611    1.0000 </r>
       <r>  -11.4048    1.0000 </r>
       <r>  -11.4025    1.0000 </r>
       <r>  -11.3985    1.0000 </r>
       <r>  -11.3939    1.0000 </r>
       <r>   -9.9482    1.0000 </r>
       <r>   -9.5354    1.0000 </r>
       <r>   -9.3771    1.0000 </r>
       <r>   -9.2438    1.0000 </r>
       <r>   -3.4562    1.0000 </r>
       <r>   -3.1133    1.0000 </r>
       <r>   -1.6148    1.0000 </r>
       <r>   -1.3306    1.0000 </r>
       <r>   -0.7977    1.0000 </r>
       <r>    0.0693    1.0000 </r>
       <r>    0.4186    1.0000 </r>
       <r>    0.4208    1.0000 </r>
       <r>    0.5314    1.0000 </r>
       <r>    0.6348    1.0000 </r>
       <r>    0.7326    1.0000 </r>
       <r>    0.7504    1.0000 </r>
       <r>    1.8648    1.0000 </r>
       <r>    1.8723    1.0000 </r>
       <r>    1.9534    1.0000 </r>
       <r>    2.0162    1.0000 </r>
       <r>    2.3888    1.0000 </r>
       <r>    2.5740    1.0000 </r>
       <r>    2.7543    1.0000 </r>
       <r>    2.8187    1.0000 </r>
       <r>    3.2482    1.0000 </r>
       <r>    3.4605    1.0000 </r>
       <r>    5.3227    0.0000 </r>
       <r>    5.3356    0.0000 </r>
       <r>    7.0352    0.0000 </r>
       <r>    7.2546    0.0000 </r>
       <r>    8.2631    0.0000 </r>
       <r>    8.5316    0.0000 </r>
       <r>    8.6737    0.0000 </r>
       <r>    8.9431    0.0000 </r>
       <r>    9.4679    0.0000 </r>
       <r>    9.6678    0.0000 </r>
       <r>    9.8532    0.0000 </r>
       <r>   10.1691    0.0000 </r>
       <r>   10.8197    0.0000 </r>
       <r>   10.9456    0.0000 </r>
       <r>   11.7516    0.0000 </r>
       <r>   11.9472    0.0000 </r>
       <r>   12.4293    0.0000 </r>
       <r>   13.2332    0.0000 </r>
       <r>   13.4013    0.0000 </r>
       <r>   13.9674    0.0000 </r>
       <r>   14.1030    0.0000 </r>
       <r>   14.7627    0.0000 </r>
       <r>   15.4675    0.0000 </r>
       <r>   15.5321    0.0000 </r>
      </set>
      <set comment="kpoint 10">
       <r>  -11.6238    1.0000 </r>
       <r>  -11.6238    1.0000 </r>
       <r>  -11.6090    1.0000 </r>
       <r>  -11.5094    1.0000 </r>
       <r>  -11.4504    1.0000 </r>
       <r>  -11.4504    1.0000 </r>
       <r>  -11.4137    1.0000 </r>
       <r>  -11.4071    1.0000 </r>
       <r>  -11.3988    1.0000 </r>
       <r>  -11.3892    1.0000 </r>
       <r>  -10.5000    1.0000 </r>
       <r>   -9.3861    1.0000 </r>
       <r>   -9.1058    1.0000 </r>
       <r>   -9.1058    1.0000 </r>
       <r>   -3.5604    1.0000 </r>
       <r>   -2.7456    1.0000 </r>
       <r>   -1.2059    1.0000 </r>
       <r>   -0.3274    1.0000 </r>
       <r>   -0.3042    1.0000 </r>
       <r>   -0.1831    1.0000 </r>
       <r>   -0.1831    1.0000 </r>
       <r>    0.3280    1.0000 </r>
       <r>    0.3359    1.0000 </r>
       <r>    0.3359    1.0000 </r>
       <r>    0.6197    1.0000 </r>
       <r>    0.6197    1.0000 </r>
       <r>    1.6150    1.0000 </r>
       <r>    1.7969    1.0000 </r>
       <r>    1.9357    1.0000 </r>
       <r>    1.9540    1.0000 </r>
       <r>    2.2829    1.0000 </r>
       <r>    2.3573    1.0000 </r>
       <r>    2.3573    1.0000 </r>
       <r>    2.9278    1.0000 </r>
       <r>    3.3761    1.0000 </r>
       <r>    3.3761    1.0000 </r>
       <r>    5.4361    0.0000 </r>
       <r>    5.7934    0.0000 </r>
       <r>    6.1950    0.0000 </r>
       <r>    6.5986    0.0000 </r>
       <r>    6.5986    0.0000 </r>
       <r>    7.0443    0.0000 </r>
       <r>    7.7971    0.0000 </r>
       <r>    8.2786    0.0000 </r>
       <r>    9.1227    0.0000 </r>
       <r>    9.1227    0.0000 </r>
       <r>   11.9354    0.0000 </r>
       <r>   11.9354    0.0000 </r>
       <r>   12.0141    0.0000 </r>
       <r>   12.1956    0.0000 </r>
       <r>   12.3931    0.0000 </r>
       <r>   12.8917    0.0000 </r>
       <r>   13.3435    0.0000 </r>
       <r>   13.3436    0.0000 </r>
       <r>   14.3784    0.0000 </r>
       <r>   14.5128    0.0000 </r>
       <r>   14.7058    0.0000 </r>
       <r>   15.0577    0.0000 </r>
       <r>   16.3268    0.0000 </r>
       <r>   16.5190    0.0000 </r>
      </set>
      <set comment="kpoint 11">
       <r>  -11.6322    1.0000 </r>
       <r>  -11.6252    1.0000 </r>
       <r>  -11.5934    1.0000 </r>
       <r>  -11.5332    1.0000 </r>
       <r>  -11.4537    1.0000 </r>
       <r>  -11.4484    1.0000 </r>
       <r>  -11.4126    1.0000 </r>
       <r>  -11.4087    1.0000 </r>
       <r>  -11.3957    1.0000 </r>
       <r>  -11.3903    1.0000 </r>
       <r>  -10.2294    1.0000 </r>
       <r>   -9.5805    1.0000 </r>
       <r>   -9.2561    1.0000 </r>
       <r>   -9.1122    1.0000 </r>
       <r>   -3.3229    1.0000 </r>
       <r>   -2.8085    1.0000 </r>
       <r>   -1.1247    1.0000 </r>
       <r>   -0.5675    1.0000 </r>
       <r>   -0.4640    1.0000 </r>
       <r>   -0.0246    1.0000 </r>
       <r>    0.0947    1.0000 </r>
       <r>    0.1421    1.0000 </r>
       <r>    0.2911    1.0000 </r>
       <r>    0.4358    1.0000 </r>
       <r>    0.5941    1.0000 </r>
       <r>    0.6326    1.0000 </r>
       <r>    1.7197    1.0000 </r>
       <r>    1.8459    1.0000 </r>
       <r>    1.8882    1.0000 </r>
       <r>    1.9545    1.0000 </r>
       <r>    2.2110    1.0000 </r>
       <r>    2.3405    1.0000 </r>
       <r>    2.5348    1.0000 </r>
       <r>    2.7047    1.0000 </r>
       <r>    2.9270    1.0000 </r>
       <r>    3.4289    1.0000 </r>
       <r>    5.6733    0.0000 </r>
       <r>    5.8577    0.0000 </r>
       <r>    6.2004    0.0000 </r>
       <r>    6.5573    0.0000 </r>
       <r>    6.8483    0.0000 </r>
       <r>    7.3887    0.0000 </r>
       <r>    8.0495    0.0000 </r>
       <r>    8.4154    0.0000 </r>
       <r>    9.4062    0.0000 </r>
       <r>    9.5780    0.0000 </r>
       <r>   10.2336    0.0000 </r>
       <r>   11.5574    0.0000 </r>
       <r>   11.9584    0.0000 </r>
       <r>   12.2085    0.0000 </r>
       <r>   12.5952    0.0000 </r>
       <r>   12.9340    0.0000 </r>
       <r>   13.0105    0.0000 </r>
       <r>   13.3880    0.0000 </r>
       <r>   13.6703    0.0000 </r>
       <r>   13.9571    0.0000 </r>
       <r>   14.4046    0.0000 </r>
       <r>   15.2752    0.0000 </r>
       <r>   16.0533    0.0000 </r>
       <r>   16.4078    0.0000 </r>
      </set>
      <set comment="kpoint 12">
       <r>  -11.6424    1.0000 </r>
       <r>  -11.6242    1.0000 </r>
       <r>  -11.5906    1.0000 </r>
       <r>  -11.5321    1.0000 </r>
       <r>  -11.4614    1.0000 </r>
       <r>  -11.4487    1.0000 </r>
       <r>  -11.4099    1.0000 </r>
       <r>  -11.4078    1.0000 </r>
       <r>  -11.3950    1.0000 </r>
       <r>  -11.3920    1.0000 </r>
       <r>   -9.9522    1.0000 </r>
       <r>   -9.6836    1.0000 </r>
       <r>   -9.4710    1.0000 </r>
       <r>   -9.0943    1.0000 </r>
       <r>   -3.2281    1.0000 </r>
       <r>   -2.6447    1.0000 </r>
       <r>   -1.0718    1.0000 </r>
       <r>   -0.8607    1.0000 </r>
       <r>   -0.8312    1.0000 </r>
       <r>   -0.1796    1.0000 </r>
       <r>   -0.1485    1.0000 </r>
       <r>    0.0325    1.0000 </r>
       <r>    0.4039    1.0000 </r>
       <r>    0.5621    1.0000 </r>
       <r>    0.6237    1.0000 </r>
       <r>    0.7312    1.0000 </r>
       <r>    1.8251    1.0000 </r>
       <r>    1.8738    1.0000 </r>
       <r>    1.9137    1.0000 </r>
       <r>    2.0662    1.0000 </r>
       <r>    2.1387    1.0000 </r>
       <r>    2.1925    1.0000 </r>
       <r>    2.4134    1.0000 </r>
       <r>    2.6624    1.0000 </r>
       <r>    3.0472    1.0000 </r>
       <r>    3.3449    1.0000 </r>
       <r>    5.8010    0.0000 </r>
       <r>    6.2384    0.0000 </r>
       <r>    6.3894    0.0000 </r>
       <r>    7.3864    0.0000 </r>
       <r>    8.3249    0.0000 </r>
       <r>    8.4185    0.0000 </r>
       <r>    8.5697    0.0000 </r>
       <r>    8.9335    0.0000 </r>
       <r>    9.4260    0.0000 </r>
       <r>    9.4909    0.0000 </r>
       <r>    9.6683    0.0000 </r>
       <r>   10.4043    0.0000 </r>
       <r>   11.0840    0.0000 </r>
       <r>   11.2214    0.0000 </r>
       <r>   11.3401    0.0000 </r>
       <r>   11.9153    0.0000 </r>
       <r>   12.0741    0.0000 </r>
       <r>   12.4885    0.0000 </r>
       <r>   12.7735    0.0000 </r>
       <r>   14.6351    0.0000 </r>
       <r>   15.1570    0.0000 </r>
       <r>   15.6596    0.0000 </r>
       <r>   15.7704    0.0000 </r>
       <r>   16.2754    0.0000 </r>
      </set>
      <set comment="kpoint 13">
       <r>  -11.6404    1.0000 </r>
       <r>  -11.6232    1.0000 </r>
       <r>  -11.6056    1.0000 </r>
       <r>  -11.5032    1.0000 </r>
       <r>  -11.4673    1.0000 </r>
       <r>  -11.4511    1.0000 </r>
       <r>  -11.4093    1.0000 </r>
       <r>  -11.4053    1.0000 </r>
       <r>  -11.3985    1.0000 </r>
       <r>  -11.3913    1.0000 </r>
       <r>  -10.2688    1.0000 </r>
       <r>   -9.4376    1.0000 </r>
       <r>   -9.3271    1.0000 </r>
       <r>   -9.0902    1.0000 </r>
       <r>   -3.4573    1.0000 </r>
       <r>   -2.5449    1.0000 </r>
       <r>   -1.2645    1.0000 </r>
       <r>   -0.7782    1.0000 </r>
       <r>   -0.6359    1.0000 </r>
       <r>   -0.4026    1.0000 </r>
       <r>   -0.2796    1.0000 </r>
       <r>   -0.0397    1.0000 </r>
       <r>    0.3622    1.0000 </r>
       <r>    0.5575    1.0000 </r>
       <r>    0.6333    1.0000 </r>
       <r>    0.8787    1.0000 </r>
       <r>    1.8434    1.0000 </r>
       <r>    1.8794    1.0000 </r>
       <r>    1.9378    1.0000 </r>
       <r>    2.0265    1.0000 </r>
       <r>    2.0715    1.0000 </r>
       <r>    2.2794    1.0000 </r>
       <r>    2.4302    1.0000 </r>
       <r>    2.8379    1.0000 </r>
       <r>    2.9679    1.0000 </r>
       <r>    3.3400    1.0000 </r>
       <r>    5.8885    0.0000 </r>
       <r>    6.4444    0.0000 </r>
       <r>    6.7668    0.0000 </r>
       <r>    7.6728    0.0000 </r>
       <r>    7.7210    0.0000 </r>
       <r>    8.2446    0.0000 </r>
       <r>    9.0007    0.0000 </r>
       <r>    9.3789    0.0000 </r>
       <r>    9.5473    0.0000 </r>
       <r>    9.7437    0.0000 </r>
       <r>   10.0930    0.0000 </r>
       <r>   10.4183    0.0000 </r>
       <r>   10.5601    0.0000 </r>
       <r>   11.0832    0.0000 </r>
       <r>   11.2094    0.0000 </r>
       <r>   11.5072    0.0000 </r>
       <r>   11.7096    0.0000 </r>
       <r>   12.9646    0.0000 </r>
       <r>   13.2882    0.0000 </r>
       <r>   13.6080    0.0000 </r>
       <r>   14.3133    0.0000 </r>
       <r>   15.0601    0.0000 </r>
       <r>   15.2656    0.0000 </r>
       <r>   15.9604    0.0000 </r>
      </set>
      <set comment="kpoint 14">
       <r>  -11.6289    1.0000 </r>
       <r>  -11.6246    1.0000 </r>
       <r>  -11.6125    1.0000 </r>
       <r>  -11.4903    1.0000 </r>
       <r>  -11.4611    1.0000 </r>
       <r>  -11.4524    1.0000 </r>
       <r>  -11.4114    1.0000 </r>
       <r>  -11.4044    1.0000 </r>
       <r>  -11.4009    1.0000 </r>
       <r>  -11.3898    1.0000 </r>
       <r>  -10.5162    1.0000 </r>
       <r>   -9.2472    1.0000 </r>
       <r>   -9.1722    1.0000 </r>
       <r>   -9.1314    1.0000 </r>
       <r>   -3.6218    1.0000 </r>
       <r>   -2.5745    1.0000 </r>
       <r>   -1.2199    1.0000 </r>
       <r>   -0.9038    1.0000 </r>
       <r>   -0.4932    1.0000 </r>
       <r>   -0.1750    1.0000 </r>
       <r>   -0.0815    1.0000 </r>
       <r>    0.1039    1.0000 </r>
       <r>    0.3630    1.0000 </r>
       <r>    0.4422    1.0000 </r>
       <r>    0.6260    1.0000 </r>
       <r>    0.7370    1.0000 </r>
       <r>    1.7383    1.0000 </r>
       <r>    1.8587    1.0000 </r>
       <r>    1.8685    1.0000 </r>
       <r>    1.9879    1.0000 </r>
       <r>    2.1273    1.0000 </r>
       <r>    2.2873    1.0000 </r>
       <r>    2.3573    1.0000 </r>
       <r>    2.8245    1.0000 </r>
       <r>    3.3480    1.0000 </r>
       <r>    3.7400    1.0000 </r>
       <r>    5.2344    0.0000 </r>
       <r>    6.2307    0.0000 </r>
       <r>    6.4150    0.0000 </r>
       <r>    6.9998    0.0000 </r>
       <r>    7.2821    0.0000 </r>
       <r>    7.9217    0.0000 </r>
       <r>    8.5762    0.0000 </r>
       <r>    8.6797    0.0000 </r>
       <r>    8.8372    0.0000 </r>
       <r>    9.2736    0.0000 </r>
       <r>   10.1545    0.0000 </r>
       <r>   10.9928    0.0000 </r>
       <r>   11.4893    0.0000 </r>
       <r>   11.9790    0.0000 </r>
       <r>   12.6151    0.0000 </r>
       <r>   12.9656    0.0000 </r>
       <r>   13.1479    0.0000 </r>
       <r>   13.3854    0.0000 </r>
       <r>   13.6406    0.0000 </r>
       <r>   13.9091    0.0000 </r>
       <r>   14.0950    0.0000 </r>
       <r>   14.3307    0.0000 </r>
       <r>   15.2077    0.0000 </r>
       <r>   15.7614    0.0000 </r>
      </set>
      <set comment="kpoint 15">
       <r>  -11.6333    1.0000 </r>
       <r>  -11.6322    1.0000 </r>
       <r>  -11.5730    1.0000 </r>
       <r>  -11.5547    1.0000 </r>
       <r>  -11.4530    1.0000 </r>
       <r>  -11.4518    1.0000 </r>
       <r>  -11.4104    1.0000 </r>
       <r>  -11.4092    1.0000 </r>
       <r>  -11.3937    1.0000 </r>
       <r>  -11.3920    1.0000 </r>
       <r>   -9.9602    1.0000 </r>
       <r>   -9.7579    1.0000 </r>
       <r>   -9.2481    1.0000 </r>
       <r>   -9.2452    1.0000 </r>
       <r>   -3.1113    1.0000 </r>
       <r>   -2.9474    1.0000 </r>
       <r>   -1.2050    1.0000 </r>
       <r>   -1.0230    1.0000 </r>
       <r>   -0.1310    1.0000 </r>
       <r>   -0.0980    1.0000 </r>
       <r>    0.1636    1.0000 </r>
       <r>    0.1797    1.0000 </r>
       <r>    0.3098    1.0000 </r>
       <r>    0.4514    1.0000 </r>
       <r>    0.6063    1.0000 </r>
       <r>    0.6180    1.0000 </r>
       <r>    1.8475    1.0000 </r>
       <r>    1.8528    1.0000 </r>
       <r>    1.8890    1.0000 </r>
       <r>    1.9047    1.0000 </r>
       <r>    2.2274    1.0000 </r>
       <r>    2.3070    1.0000 </r>
       <r>    2.7345    1.0000 </r>
       <r>    2.8115    1.0000 </r>
       <r>    3.0164    1.0000 </r>
       <r>    3.0182    1.0000 </r>
       <r>    5.7079    0.0000 </r>
       <r>    5.8356    0.0000 </r>
       <r>    6.3928    0.0000 </r>
       <r>    6.5361    0.0000 </r>
       <r>    7.3058    0.0000 </r>
       <r>    7.4154    0.0000 </r>
       <r>    8.5085    0.0000 </r>
       <r>    8.5640    0.0000 </r>
       <r>    9.7006    0.0000 </r>
       <r>    9.7398    0.0000 </r>
       <r>   10.0200    0.0000 </r>
       <r>   10.4234    0.0000 </r>
       <r>   11.3476    0.0000 </r>
       <r>   11.3986    0.0000 </r>
       <r>   12.6014    0.0000 </r>
       <r>   12.7866    0.0000 </r>
       <r>   13.1283    0.0000 </r>
       <r>   13.6648    0.0000 </r>
       <r>   13.8640    0.0000 </r>
       <r>   14.0928    0.0000 </r>
       <r>   14.8121    0.0000 </r>
       <r>   14.8657    0.0000 </r>
       <r>   15.4994    0.0000 </r>
       <r>   15.5881    0.0000 </r>
      </set>
      <set comment="kpoint 16">
       <r>  -11.6416    1.0000 </r>
       <r>  -11.6310    1.0000 </r>
       <r>  -11.5809    1.0000 </r>
       <r>  -11.5389    1.0000 </r>
       <r>  -11.4615    1.0000 </r>
       <r>  -11.4538    1.0000 </r>
       <r>  -11.4079    1.0000 </r>
       <r>  -11.4065    1.0000 </r>
       <r>  -11.3953    1.0000 </r>
       <r>  -11.3928    1.0000 </r>
       <r>   -9.8871    1.0000 </r>
       <r>   -9.6633    1.0000 </r>
       <r>   -9.4399    1.0000 </r>
       <r>   -9.1907    1.0000 </r>
       <r>   -3.2431    1.0000 </r>
       <r>   -2.8491    1.0000 </r>
       <r>   -1.3927    1.0000 </r>
       <r>   -1.2195    1.0000 </r>
       <r>   -0.6350    1.0000 </r>
       <r>    0.0925    1.0000 </r>
       <r>    0.1519    1.0000 </r>
       <r>    0.2194    1.0000 </r>
       <r>    0.3399    1.0000 </r>
       <r>    0.5631    1.0000 </r>
       <r>    0.6538    1.0000 </r>
       <r>    0.6971    1.0000 </r>
       <r>    1.8346    1.0000 </r>
       <r>    1.8575    1.0000 </r>
       <r>    1.8900    1.0000 </r>
       <r>    2.0414    1.0000 </r>
       <r>    2.2170    1.0000 </r>
       <r>    2.3566    1.0000 </r>
       <r>    2.6109    1.0000 </r>
       <r>    2.8212    1.0000 </r>
       <r>    3.0450    1.0000 </r>
       <r>    3.2717    1.0000 </r>
       <r>    5.6252    0.0000 </r>
       <r>    5.8716    0.0000 </r>
       <r>    6.8319    0.0000 </r>
       <r>    7.5734    0.0000 </r>
       <r>    7.8657    0.0000 </r>
       <r>    8.2145    0.0000 </r>
       <r>    8.7250    0.0000 </r>
       <r>    8.8544    0.0000 </r>
       <r>    9.3569    0.0000 </r>
       <r>    9.6051    0.0000 </r>
       <r>    9.9694    0.0000 </r>
       <r>   10.2659    0.0000 </r>
       <r>   10.5786    0.0000 </r>
       <r>   10.7483    0.0000 </r>
       <r>   11.6871    0.0000 </r>
       <r>   12.3813    0.0000 </r>
       <r>   12.8385    0.0000 </r>
       <r>   13.1789    0.0000 </r>
       <r>   13.3724    0.0000 </r>
       <r>   13.8215    0.0000 </r>
       <r>   14.2591    0.0000 </r>
       <r>   14.7579    0.0000 </r>
       <r>   15.4960    0.0000 </r>
       <r>   15.8499    0.0000 </r>
      </set>
      <set comment="kpoint 17">
       <r>  -11.6400    1.0000 </r>
       <r>  -11.6301    1.0000 </r>
       <r>  -11.5960    1.0000 </r>
       <r>  -11.5144    1.0000 </r>
       <r>  -11.4665    1.0000 </r>
       <r>  -11.4556    1.0000 </r>
       <r>  -11.4077    1.0000 </r>
       <r>  -11.4044    1.0000 </r>
       <r>  -11.3983    1.0000 </r>
       <r>  -11.3920    1.0000 </r>
       <r>  -10.1375    1.0000 </r>
       <r>   -9.5110    1.0000 </r>
       <r>   -9.3036    1.0000 </r>
       <r>   -9.1724    1.0000 </r>
       <r>   -3.4555    1.0000 </r>
       <r>   -2.7644    1.0000 </r>
       <r>   -1.5123    1.0000 </r>
       <r>   -1.0045    1.0000 </r>
       <r>   -0.6633    1.0000 </r>
       <r>   -0.2539    1.0000 </r>
       <r>    0.1330    1.0000 </r>
       <r>    0.2887    1.0000 </r>
       <r>    0.4154    1.0000 </r>
       <r>    0.5321    1.0000 </r>
       <r>    0.6822    1.0000 </r>
       <r>    0.7950    1.0000 </r>
       <r>    1.8154    1.0000 </r>
       <r>    1.8970    1.0000 </r>
       <r>    1.9311    1.0000 </r>
       <r>    1.9921    1.0000 </r>
       <r>    2.2686    1.0000 </r>
       <r>    2.3727    1.0000 </r>
       <r>    2.5532    1.0000 </r>
       <r>    2.7296    1.0000 </r>
       <r>    3.1510    1.0000 </r>
       <r>    3.2674    1.0000 </r>
       <r>    5.6246    0.0000 </r>
       <r>    6.0508    0.0000 </r>
       <r>    7.0142    0.0000 </r>
       <r>    7.3266    0.0000 </r>
       <r>    8.0180    0.0000 </r>
       <r>    8.4135    0.0000 </r>
       <r>    8.5654    0.0000 </r>
       <r>    8.9988    0.0000 </r>
       <r>    9.5278    0.0000 </r>
       <r>    9.7743    0.0000 </r>
       <r>   10.1894    0.0000 </r>
       <r>   10.4351    0.0000 </r>
       <r>   10.6883    0.0000 </r>
       <r>   10.7830    0.0000 </r>
       <r>   11.4877    0.0000 </r>
       <r>   12.0370    0.0000 </r>
       <r>   12.3959    0.0000 </r>
       <r>   12.9286    0.0000 </r>
       <r>   13.5624    0.0000 </r>
       <r>   13.7472    0.0000 </r>
       <r>   14.4452    0.0000 </r>
       <r>   14.7625    0.0000 </r>
       <r>   14.9213    0.0000 </r>
       <r>   15.4442    0.0000 </r>
      </set>
      <set comment="kpoint 18">
       <r>  -11.6332    1.0000 </r>
       <r>  -11.6287    1.0000 </r>
       <r>  -11.6000    1.0000 </r>
       <r>  -11.5140    1.0000 </r>
       <r>  -11.4594    1.0000 </r>
       <r>  -11.4537    1.0000 </r>
       <r>  -11.4107    1.0000 </r>
       <r>  -11.4056    1.0000 </r>
       <r>  -11.3983    1.0000 </r>
       <r>  -11.3904    1.0000 </r>
       <r>  -10.2994    1.0000 </r>
       <r>   -9.3865    1.0000 </r>
       <r>   -9.2359    1.0000 </r>
       <r>   -9.2101    1.0000 </r>
       <r>   -3.4502    1.0000 </r>
       <r>   -2.7191    1.0000 </r>
       <r>   -1.3862    1.0000 </r>
       <r>   -0.6560    1.0000 </r>
       <r>   -0.3766    1.0000 </r>
       <r>   -0.3619    1.0000 </r>
       <r>   -0.1791    1.0000 </r>
       <r>    0.2885    1.0000 </r>
       <r>    0.3678    1.0000 </r>
       <r>    0.5037    1.0000 </r>
       <r>    0.6529    1.0000 </r>
       <r>    0.7223    1.0000 </r>
       <r>    1.7830    1.0000 </r>
       <r>    1.8803    1.0000 </r>
       <r>    1.9533    1.0000 </r>
       <r>    1.9769    1.0000 </r>
       <r>    2.1368    1.0000 </r>
       <r>    2.2846    1.0000 </r>
       <r>    2.4343    1.0000 </r>
       <r>    2.7085    1.0000 </r>
       <r>    3.4224    1.0000 </r>
       <r>    3.5338    1.0000 </r>
       <r>    5.1860    0.0000 </r>
       <r>    5.9119    0.0000 </r>
       <r>    6.5355    0.0000 </r>
       <r>    6.6876    0.0000 </r>
       <r>    7.5186    0.0000 </r>
       <r>    8.1115    0.0000 </r>
       <r>    8.7916    0.0000 </r>
       <r>    9.0141    0.0000 </r>
       <r>    9.1211    0.0000 </r>
       <r>    9.3260    0.0000 </r>
       <r>   10.6093    0.0000 </r>
       <r>   10.8474    0.0000 </r>
       <r>   10.9264    0.0000 </r>
       <r>   11.4866    0.0000 </r>
       <r>   11.9980    0.0000 </r>
       <r>   12.0838    0.0000 </r>
       <r>   13.1075    0.0000 </r>
       <r>   13.3771    0.0000 </r>
       <r>   13.8397    0.0000 </r>
       <r>   14.0687    0.0000 </r>
       <r>   14.2315    0.0000 </r>
       <r>   14.4529    0.0000 </r>
       <r>   15.8548    0.0000 </r>
       <r>   16.2022    0.0000 </r>
      </set>
      <set comment="kpoint 19">
       <r>  -11.6410    1.0000 </r>
       <r>  -11.6376    1.0000 </r>
       <r>  -11.5700    1.0000 </r>
       <r>  -11.5461    1.0000 </r>
       <r>  -11.4638    1.0000 </r>
       <r>  -11.4604    1.0000 </r>
       <r>  -11.4048    1.0000 </r>
       <r>  -11.4039    1.0000 </r>
       <r>  -11.3965    1.0000 </r>
       <r>  -11.3945    1.0000 </r>
       <r>   -9.8078    1.0000 </r>
       <r>   -9.6271    1.0000 </r>
       <r>   -9.3827    1.0000 </r>
       <r>   -9.3125    1.0000 </r>
       <r>   -3.3393    1.0000 </r>
       <r>   -3.1064    1.0000 </r>
       <r>   -1.7116    1.0000 </r>
       <r>   -1.5776    1.0000 </r>
       <r>   -0.1818    1.0000 </r>
       <r>   -0.0615    1.0000 </r>
       <r>    0.2523    1.0000 </r>
       <r>    0.4541    1.0000 </r>
[...]
        <r>  0.0027  0.0021  0.0080  0.0049  0.0657  0.0087  0.0072  0.1701  0.0071 </r>
        <r>  0.0037  0.0009  0.0001  0.0172  0.0031  0.0114  0.0018  0.0925  0.1305 </r>
        <r>  0.0000  0.0204  0.0174  0.0002  0.0010  0.0004  0.0002  0.0005  0.0000 </r>
        <r>  0.0012  0.0073  0.0040  0.0064  0.0003  0.0000  0.0007  0.0003  0.0000 </r>
        <r>  0.0027  0.0020  0.0057  0.0639  0.0002  0.0002  0.0000  0.0000  0.0004 </r>
        <r>  0.0015  0.0123  0.0346  0.0451  0.0002  0.0000  0.0008  0.0001  0.0005 </r>
       </set>
       <set comment="band 37">
        <r>  0.1156  0.0051  0.0011  0.0075  0.0003  0.0009  0.0001  0.0010  0.0006 </r>
        <r>  0.1110  0.0073  0.0005  0.0055  0.0000  0.0014  0.0001  0.0005  0.0012 </r>
        <r>  0.0197  0.0055  0.0023  0.0006  0.0049  0.0079  0.0048  0.0001  0.0031 </r>
        <r>  0.0188  0.0022  0.0048  0.0009  0.0135  0.0043  0.0003  0.0033  0.0006 </r>
        <r>  0.0321  0.0011  0.0034  0.0351  0.0004  0.0029  0.0003  0.0013  0.0006 </r>
        <r>  0.0312  0.0150  0.0168  0.0094  0.0013  0.0014  0.0000  0.0010  0.0019 </r>
        <r>  0.0106  0.0049  0.0383  0.0016  0.0031  0.0035  0.0008  0.0004  0.0004 </r>
        <r>  0.0116  0.0287  0.0104  0.0041  0.0045  0.0024  0.0002  0.0003  0.0007 </r>
       </set>
       <set comment="band 38">
        <r>  0.1110  0.0032  0.0005  0.0096  0.0002  0.0003  0.0001  0.0017  0.0010 </r>
        <r>  0.1156  0.0051  0.0011  0.0076  0.0001  0.0007  0.0001  0.0012  0.0009 </r>
        <r>  0.0188  0.0005  0.0048  0.0026  0.0094  0.0025  0.0003  0.0052  0.0046 </r>
        <r>  0.0197  0.0008  0.0023  0.0053  0.0033  0.0002  0.0048  0.0078  0.0047 </r>
        <r>  0.0106  0.0013  0.0383  0.0052  0.0019  0.0001  0.0008  0.0038  0.0016 </r>
        <r>  0.0116  0.0094  0.0104  0.0234  0.0026  0.0001  0.0002  0.0026  0.0026 </r>
        <r>  0.0321  0.0354  0.0034  0.0008  0.0001  0.0006  0.0003  0.0037  0.0009 </r>
        <r>  0.0312  0.0070  0.0168  0.0174  0.0003  0.0006  0.0000  0.0019  0.0030 </r>
       </set>
       <set comment="band 39">
        <r>  0.0083  0.0108  0.0352  0.0075  0.0039  0.0001  0.0005  0.0010  0.0006 </r>
        <r>  0.0196  0.0181  0.0574  0.0116  0.0057  0.0005  0.0009  0.0011  0.0002 </r>
        <r>  0.0476  0.0006  0.0008  0.0007  0.0016  0.0022  0.0014  0.0007  0.0016 </r>
        <r>  0.0835  0.0015  0.0019  0.0026  0.0017  0.0041  0.0026  0.0032  0.0004 </r>
        <r>  0.0269  0.0040  0.0079  0.0155  0.0055  0.0000  0.0033  0.0017  0.0000 </r>
        <r>  0.0229  0.0017  0.0038  0.0125  0.0036  0.0020  0.0005  0.0016  0.0002 </r>
        <r>  0.0050  0.0097  0.0030  0.0099  0.0098  0.0007  0.0014  0.0020  0.0007 </r>
        <r>  0.0090  0.0093  0.0125  0.0101  0.0097  0.0013  0.0037  0.0017  0.0009 </r>
       </set>
       <set comment="band 40">
        <r>  0.0196  0.0175  0.0574  0.0122  0.0052  0.0013  0.0009  0.0002  0.0007 </r>
        <r>  0.0083  0.0111  0.0352  0.0072  0.0030  0.0011  0.0005  0.0000  0.0014 </r>
        <r>  0.0835  0.0022  0.0019  0.0018  0.0012  0.0033  0.0026  0.0039  0.0009 </r>
        <r>  0.0476  0.0006  0.0008  0.0008  0.0009  0.0011  0.0014  0.0018  0.0023 </r>
        <r>  0.0050  0.0099  0.0030  0.0097  0.0101  0.0024  0.0014  0.0003  0.0004 </r>
        <r>  0.0090  0.0071  0.0125  0.0123  0.0101  0.0020  0.0037  0.0010  0.0005 </r>
        <r>  0.0269  0.0123  0.0079  0.0072  0.0046  0.0017  0.0033  0.0000  0.0010 </r>
        <r>  0.0229  0.0112  0.0038  0.0030  0.0026  0.0023  0.0005  0.0013  0.0013 </r>
       </set>
       <set comment="band 41">
        <r>  0.0012  0.0128  0.0356  0.0562  0.0043  0.0035  0.0057  0.0008  0.0020 </r>
        <r>  0.0049  0.0224  0.0118  0.0767  0.0012  0.0035  0.0045  0.0021  0.0046 </r>
        <r>  0.0006  0.0009  0.0035  0.0014  0.0020  0.0004  0.0026  0.0012  0.0010 </r>
        <r>  0.0026  0.0013  0.0002  0.0044  0.0072  0.0016  0.0010  0.0055  0.0014 </r>
        <r>  0.0084  0.0107  0.0225  0.0033  0.0003  0.0008  0.0064  0.0079  0.0013 </r>
        <r>  0.0026  0.0053  0.0128  0.0003  0.0034  0.0004  0.0024  0.0043  0.0045 </r>
        <r>  0.0027  0.0151  0.0047  0.0015  0.0002  0.0023  0.0011  0.0049  0.0048 </r>
        <r>  0.0086  0.0288  0.0017  0.0088  0.0014  0.0057  0.0002  0.0008  0.0070 </r>
       </set>
       <set comment="band 42">
        <r>  0.0049  0.0656  0.0118  0.0335  0.0033  0.0012  0.0045  0.0044  0.0025 </r>
        <r>  0.0012  0.0630  0.0356  0.0060  0.0043  0.0008  0.0057  0.0035  0.0020 </r>
        <r>  0.0026  0.0034  0.0002  0.0024  0.0049  0.0058  0.0010  0.0013  0.0037 </r>
        <r>  0.0006  0.0016  0.0035  0.0007  0.0028  0.0013  0.0026  0.0003  0.0001 </r>
        <r>  0.0027  0.0038  0.0047  0.0128  0.0003  0.0047  0.0011  0.0025  0.0047 </r>
        <r>  0.0086  0.0124  0.0017  0.0252  0.0022  0.0016  0.0002  0.0049  0.0062 </r>
        <r>  0.0084  0.0017  0.0225  0.0123  0.0005  0.0071  0.0064  0.0016  0.0011 </r>
        <r>  0.0026  0.0000  0.0128  0.0056  0.0019  0.0039  0.0024  0.0008  0.0059 </r>
       </set>
       <set comment="band 43">
        <r>  0.0035  0.0409  0.0360  0.0200  0.0001  0.0011  0.0048  0.0040  0.0002 </r>
        <r>  0.0103  0.0417  0.0097  0.0401  0.0032  0.0011  0.0004  0.0020  0.0039 </r>
        <r>  0.0096  0.0032  0.0094  0.0028  0.0015  0.0040  0.0000  0.0041  0.0058 </r>
        <r>  0.0181  0.0008  0.0017  0.0022  0.0016  0.0047  0.0040  0.0044  0.0021 </r>
        <r>  0.0003  0.0101  0.0059  0.0044  0.0003  0.0020  0.0103  0.0139  0.0031 </r>
        <r>  0.0009  0.0191  0.0048  0.0127  0.0032  0.0000  0.0050  0.0053  0.0081 </r>
        <r>  0.0041  0.0045  0.0256  0.0007  0.0018  0.0041  0.0010  0.0018  0.0023 </r>
        <r>  0.0034  0.0081  0.0030  0.0034  0.0046  0.0071  0.0007  0.0066  0.0000 </r>
       </set>
       <set comment="band 44">
        <r>  0.0103  0.0343  0.0097  0.0476  0.0049  0.0022  0.0004  0.0009  0.0022 </r>
        <r>  0.0035  0.0224  0.0360  0.0385  0.0002  0.0045  0.0048  0.0005  0.0001 </r>
        <r>  0.0181  0.0025  0.0017  0.0005  0.0004  0.0051  0.0040  0.0040  0.0034 </r>
        <r>  0.0096  0.0039  0.0094  0.0021  0.0037  0.0046  0.0000  0.0035  0.0037 </r>
        <r>  0.0041  0.0013  0.0256  0.0039  0.0012  0.0025  0.0010  0.0034  0.0029 </r>
        <r>  0.0034  0.0042  0.0030  0.0072  0.0041  0.0075  0.0007  0.0062  0.0005 </r>
        <r>  0.0003  0.0061  0.0059  0.0083  0.0004  0.0141  0.0102  0.0018  0.0030 </r>
        <r>  0.0009  0.0190  0.0048  0.0129  0.0059  0.0051  0.0050  0.0002  0.0054 </r>
       </set>
       <set comment="band 45">
        <r>  0.0050  0.0028  0.0223  0.0066  0.0002  0.0043  0.0021  0.0038  0.0014 </r>
        <r>  0.0010  0.0045  0.0051  0.0224  0.0025  0.0016  0.0004  0.0029  0.0079 </r>
        <r>  0.0295  0.0040  0.0127  0.0193  0.0031  0.0029  0.0031  0.0015  0.0007 </r>
        <r>  0.0064  0.0135  0.0082  0.0005  0.0002  0.0011  0.0016  0.0012  0.0017 </r>
        <r>  0.0022  0.0020  0.0167  0.0084  0.0106  0.0110  0.0085  0.0009  0.0000 </r>
        <r>  0.0006  0.0181  0.0082  0.0145  0.0021  0.0018  0.0145  0.0015  0.0068 </r>
        <r>  0.0007  0.0040  0.0172  0.0105  0.0051  0.0024  0.0006  0.0051  0.0023 </r>
        <r>  0.0023  0.0012  0.0102  0.0066  0.0007  0.0013  0.0082  0.0031  0.0066 </r>
       </set>
       <set comment="band 46">
        <r>  0.0010  0.0240  0.0051  0.0030  0.0007  0.0026  0.0004  0.0019  0.0097 </r>
        <r>  0.0050  0.0081  0.0223  0.0012  0.0007  0.0033  0.0022  0.0048  0.0009 </r>
        <r>  0.0064  0.0008  0.0082  0.0132  0.0006  0.0011  0.0016  0.0012  0.0013 </r>
        <r>  0.0295  0.0216  0.0127  0.0018  0.0017  0.0015  0.0031  0.0028  0.0021 </r>
        <r>  0.0007  0.0124  0.0172  0.0021  0.0023  0.0049  0.0006  0.0026  0.0051 </r>
        <r>  0.0023  0.0075  0.0102  0.0003  0.0031  0.0038  0.0082  0.0006  0.0042 </r>
        <r>  0.0022  0.0096  0.0167  0.0008  0.0091  0.0003  0.0085  0.0116  0.0016 </r>
        <r>  0.0006  0.0198  0.0082  0.0128  0.0005  0.0015  0.0145  0.0019  0.0084 </r>
       </set>
       <set comment="band 47">
        <r>  0.0003  0.0085  0.0100  0.0062  0.0007  0.0027  0.0033  0.0051  0.0021 </r>
        <r>  0.0024  0.0063  0.0043  0.0002  0.0017  0.0040  0.0004  0.0072  0.0006 </r>
        <r>  0.0026  0.0106  0.0209  0.0110  0.0036  0.0018  0.0040  0.0040  0.0037 </r>
        <r>  0.0054  0.0087  0.0223  0.0426  0.0010  0.0032  0.0026  0.0012  0.0028 </r>
        <r>  0.0036  0.0033  0.0017  0.0088  0.0036  0.0079  0.0066  0.0022  0.0066 </r>
        <r>  0.0002  0.0024  0.0015  0.0059  0.0004  0.0065  0.0087  0.0090  0.0031 </r>
        <r>  0.0000  0.0008  0.0035  0.0021  0.0079  0.0027  0.0077  0.0035  0.0067 </r>
        <r>  0.0034  0.0028  0.0067  0.0011  0.0069  0.0034  0.0032  0.0140  0.0001 </r>
       </set>
       <set comment="band 48">
        <r>  0.0024  0.0009  0.0042  0.0057  0.0009  0.0091  0.0004  0.0021  0.0014 </r>
        <r>  0.0003  0.0092  0.0100  0.0056  0.0017  0.0063  0.0033  0.0015  0.0010 </r>
        <r>  0.0054  0.0403  0.0223  0.0110  0.0009  0.0006  0.0026  0.0037  0.0030 </r>
        <r>  0.0026  0.0142  0.0209  0.0075  0.0019  0.0042  0.0040  0.0016  0.0054 </r>
        <r>  0.0000  0.0021  0.0035  0.0008  0.0088  0.0040  0.0077  0.0022  0.0058 </r>
        <r>  0.0034  0.0005  0.0067  0.0034  0.0061  0.0151  0.0032  0.0023  0.0009 </r>
        <r>  0.0036  0.0092  0.0017  0.0029  0.0005  0.0041  0.0066  0.0060  0.0096 </r>
        <r>  0.0002  0.0063  0.0015  0.0020  0.0006  0.0092  0.0087  0.0064  0.0029 </r>
       </set>
       <set comment="band 49">
        <r>  0.0011  0.0191  0.0007  0.0108  0.0032  0.0035  0.0024  0.0036  0.0047 </r>
        <r>  0.0012  0.0360  0.0195  0.0284  0.0018  0.0022  0.0002  0.0007  0.0005 </r>
        <r>  0.0030  0.0123  0.0081  0.0029  0.0002  0.0011  0.0049  0.0002  0.0004 </r>
        <r>  0.0081  0.0058  0.0038  0.0021  0.0108  0.0014  0.0017  0.0004  0.0016 </r>
        <r>  0.0024  0.0283  0.0141  0.0131  0.0040  0.0019  0.0044  0.0047  0.0007 </r>
        <r>  0.0037  0.0057  0.0065  0.0101  0.0022  0.0008  0.0059  0.0008  0.0014 </r>
        <r>  0.0018  0.0236  0.0071  0.0095  0.0007  0.0003  0.0024  0.0016  0.0054 </r>
        <r>  0.0006  0.0116  0.0293  0.0324  0.0045  0.0024  0.0017  0.0047  0.0017 </r>
       </set>
       <set comment="band 50">
        <r>  0.0012  0.0185  0.0195  0.0459  0.0009  0.0003  0.0002  0.0026  0.0014 </r>
        <r>  0.0011  0.0061  0.0007  0.0238  0.0035  0.0026  0.0024  0.0044  0.0045 </r>
        <r>  0.0081  0.0025  0.0038  0.0054  0.0123  0.0005  0.0018  0.0013  0.0002 </r>
        <r>  0.0030  0.0049  0.0082  0.0103  0.0002  0.0004  0.0049  0.0009  0.0005 </r>
        <r>  0.0018  0.0060  0.0070  0.0271  0.0001  0.0018  0.0024  0.0001  0.0060 </r>
        <r>  0.0006  0.0239  0.0293  0.0201  0.0020  0.0034  0.0017  0.0037  0.0042 </r>
        <r>  0.0024  0.0123  0.0141  0.0291  0.0026  0.0044  0.0044  0.0023  0.0021 </r>
        <r>  0.0037  0.0113  0.0065  0.0045  0.0032  0.0006  0.0058  0.0011  0.0004 </r>
       </set>
       <set comment="band 51">
        <r>  0.0001  0.0064  0.0009  0.0063  0.0023  0.0009  0.0004  0.0014  0.0021 </r>
        <r>  0.0003  0.0030  0.0002  0.0034  0.0041  0.0000  0.0025  0.0026  0.0011 </r>
        <r>  0.0015  0.0178  0.0078  0.0172  0.0043  0.0028  0.0012  0.0038  0.0052 </r>
        <r>  0.0017  0.0284  0.0012  0.0216  0.0005  0.0031  0.0022  0.0022  0.0013 </r>
        <r>  0.0032  0.0004  0.0066  0.0280  0.0053  0.0030  0.0008  0.0007  0.0091 </r>
        <r>  0.0019  0.0005  0.0264  0.0026  0.0002  0.0084  0.0010  0.0064  0.0008 </r>
        <r>  0.0004  0.0013  0.0117  0.0430  0.0041  0.0014  0.0012  0.0075  0.0010 </r>
        <r>  0.0017  0.0200  0.0033  0.0381  0.0004  0.0015  0.0050  0.0026  0.0078 </r>
       </set>
       <set comment="band 52">
        <r>  0.0003  0.0027  0.0002  0.0037  0.0050  0.0025  0.0025  0.0001  0.0002 </r>
        <r>  0.0001  0.0039  0.0009  0.0089  0.0037  0.0013  0.0004  0.0010  0.0007 </r>
        <r>  0.0017  0.0148  0.0012  0.0352  0.0011  0.0013  0.0022  0.0040  0.0007 </r>
        <r>  0.0015  0.0103  0.0077  0.0246  0.0043  0.0025  0.0012  0.0041  0.0052 </r>
        <r>  0.0004  0.0382  0.0117  0.0061  0.0022  0.0064  0.0012  0.0024  0.0028 </r>
        <r>  0.0017  0.0294  0.0033  0.0288  0.0026  0.0032  0.0050  0.0009  0.0056 </r>
        <r>  0.0032  0.0264  0.0066  0.0020  0.0038  0.0005  0.0008  0.0033  0.0105 </r>
        <r>  0.0019  0.0028  0.0264  0.0004  0.0004  0.0040  0.0010  0.0108  0.0006 </r>
       </set>
       <set comment="band 53">
        <r>  0.0025  0.0008  0.0073  0.0068  0.0006  0.0092  0.0007  0.0133  0.0058 </r>
        <r>  0.0041  0.0129  0.0050  0.0046  0.0019  0.0001  0.0002  0.0000  0.0225 </r>
        <r>  0.0011  0.0027  0.0057  0.0003  0.0011  0.0065  0.0007  0.0113  0.0018 </r>
        <r>  0.0010  0.0029  0.0026  0.0036  0.0019  0.0000  0.0004  0.0018  0.0174 </r>
        <r>  0.0005  0.0033  0.0174  0.0031  0.0004  0.0129  0.0003  0.0178  0.0002 </r>
        <r>  0.0005  0.0100  0.0003  0.0157  0.0008  0.0008  0.0006  0.0008  0.0294 </r>
        <r>  0.0000  0.0099  0.0058  0.0040  0.0026  0.0026  0.0007  0.0008  0.0294 </r>
        <r>  0.0001  0.0019  0.0059  0.0099  0.0000  0.0134  0.0003  0.0204  0.0015 </r>
       </set>
       <set comment="band 54">
        <r>  0.0041  0.0045  0.0050  0.0130  0.0019  0.0000  0.0002  0.0001  0.0223 </r>
        <r>  0.0025  0.0058  0.0073  0.0019  0.0004  0.0088  0.0007  0.0138  0.0061 </r>
        <r>  0.0010  0.0040  0.0026  0.0024  0.0017  0.0016  0.0004  0.0002  0.0177 </r>
        <r>  0.0011  0.0002  0.0057  0.0026  0.0002  0.0082  0.0007  0.0096  0.0026 </r>
        <r>  0.0000  0.0058  0.0058  0.0080  0.0007  0.0014  0.0007  0.0020  0.0316 </r>
        <r>  0.0001  0.0109  0.0058  0.0008  0.0001  0.0152  0.0003  0.0185  0.0015 </r>
        <r>  0.0005  0.0030  0.0174  0.0034  0.0002  0.0118  0.0003  0.0191  0.0004 </r>
        <r>  0.0005  0.0199  0.0003  0.0058  0.0022  0.0005  0.0006  0.0010  0.0278 </r>
       </set>
       <set comment="band 55">
        <r>  0.0343  0.0032  0.0011  0.0017  0.0001  0.0013  0.0002  0.0015  0.0016 </r>
        <r>  0.0147  0.0019  0.0035  0.0001  0.0007  0.0050  0.0001  0.0045  0.0025 </r>
        <r>  0.0523  0.0033  0.0017  0.0046  0.0002  0.0009  0.0002  0.0003  0.0002 </r>
        <r>  0.0241  0.0019  0.0009  0.0045  0.0000  0.0011  0.0000  0.0011  0.0016 </r>
        <r>  0.0046  0.0119  0.0041  0.0027  0.0017  0.0018  0.0013  0.0020  0.0014 </r>
        <r>  0.0027  0.0126  0.0054  0.0079  0.0116  0.0007  0.0015  0.0025  0.0002 </r>
        <r>  0.0017  0.0085  0.0021  0.0117  0.0043  0.0001  0.0086  0.0001  0.0004 </r>
        <r>  0.0036  0.0055  0.0020  0.0077  0.0021  0.0002  0.0016  0.0007  0.0009 </r>
       </set>
       <set comment="band 56">
        <r>  0.0148  0.0004  0.0037  0.0018  0.0010  0.0040  0.0000  0.0057  0.0021 </r>
        <r>  0.0341  0.0009  0.0010  0.0039  0.0002  0.0017  0.0001  0.0014  0.0015 </r>
        <r>  0.0243  0.0034  0.0009  0.0029  0.0002  0.0007  0.0000  0.0015  0.0013 </r>
        <r>  0.0517  0.0032  0.0020  0.0047  0.0002  0.0002  0.0002  0.0011  0.0002 </r>
        <r>  0.0016  0.0074  0.0022  0.0126  0.0045  0.0001  0.0090  0.0001  0.0004 </r>
        <r>  0.0036  0.0052  0.0019  0.0081  0.0010  0.0005  0.0014  0.0004  0.0018 </r>
        <r>  0.0047  0.0013  0.0039  0.0134  0.0026  0.0014  0.0014  0.0024  0.0007 </r>
        <r>  0.0028  0.0049  0.0055  0.0153  0.0100  0.0026  0.0014  0.0005  0.0020 </r>
       </set>
       <set comment="band 57">
        <r>  0.0003  0.0737  0.0509  0.0229  0.0039  0.0030  0.0059  0.0007  0.0001 </r>
        <r>  0.0048  0.0031  0.0027  0.0192  0.0014  0.0201  0.0018  0.0038  0.0062 </r>
        <r>  0.0002  0.0011  0.0103  0.0098  0.0005  0.0013  0.0003  0.0007  0.0028 </r>
        <r>  0.0014  0.0081  0.0095  0.0022  0.0059  0.0007  0.0004  0.0042  0.0014 </r>
        <r>  0.0058  0.0022  0.0076  0.0058  0.0086  0.0055  0.0099  0.0057  0.0008 </r>
        <r>  0.0006  0.0021  0.0163  0.0015  0.0002  0.0031  0.0004  0.0068  0.0161 </r>
        <r>  0.0003  0.0086  0.0015  0.0050  0.0045  0.0029  0.0010  0.0075  0.0144 </r>
        <r>  0.0052  0.0034  0.0011  0.0069  0.0212  0.0040  0.0036  0.0025  0.0033 </r>
       </set>
       <set comment="band 58">
        <r>  0.0052  0.0222  0.0005  0.0039  0.0008  0.0066  0.0025  0.0168  0.0076 </r>
        <r>  0.0006  0.0425  0.0361  0.0592  0.0022  0.0020  0.0044  0.0041  0.0004 </r>
        <r>  0.0017  0.0027  0.0115  0.0086  0.0040  0.0056  0.0004  0.0003  0.0036 </r>
        <r>  0.0006  0.0111  0.0140  0.0007  0.0001  0.0004  0.0003  0.0006  0.0031 </r>
        <r>  0.0001  0.0088  0.0012  0.0072  0.0029  0.0041  0.0003  0.0034  0.0131 </r>
        <r>  0.0045  0.0109  0.0018  0.0020  0.0206  0.0022  0.0050  0.0015  0.0035 </r>
        <r>  0.0053  0.0078  0.0040  0.0011  0.0084  0.0067  0.0095  0.0038  0.0004 </r>
        <r>  0.0007  0.0025  0.0175  0.0024  0.0029  0.0062  0.0006  0.0033  0.0127 </r>
       </set>
       <set comment="band 59">
        <r>  0.0023  0.0137  0.0322  0.0240  0.0018  0.0029  0.0029  0.0024  0.0000 </r>
        <r>  0.0006  0.0049  0.0237  0.0015  0.0097  0.0002  0.0039  0.0015  0.0064 </r>
        <r>  0.0025  0.0004  0.0037  0.0019  0.0006  0.0123  0.0019  0.0054  0.0043 </r>
        <r>  0.0009  0.0005  0.0001  0.0122  0.0047  0.0027  0.0028  0.0038  0.0003 </r>
        <r>  0.0002  0.0036  0.0185  0.0005  0.0098  0.0097  0.0079  0.0104  0.0007 </r>
        <r>  0.0004  0.0025  0.0078  0.0016  0.0142  0.0046  0.0023  0.0002  0.0021 </r>
        <r>  0.0004  0.0012  0.0058  0.0012  0.0125  0.0101  0.0052  0.0048  0.0040 </r>
        <r>  0.0002  0.0114  0.0016  0.0048  0.0052  0.0136  0.0180  0.0002  0.0146 </r>
       </set>
       <set comment="band 60">
        <r>  0.0012  0.0009  0.0203  0.0045  0.0130  0.0010  0.0058  0.0009  0.0026 </r>
        <r>  0.0020  0.0311  0.0382  0.0048  0.0020  0.0022  0.0042  0.0012  0.0002 </r>
        <r>  0.0015  0.0133  0.0004  0.0010  0.0039  0.0033  0.0030  0.0022  0.0001 </r>
        <r>  0.0020  0.0029  0.0022  0.0013  0.0029  0.0074  0.0024  0.0099  0.0026 </r>
        <r>  0.0003  0.0012  0.0046  0.0006  0.0124  0.0034  0.0069  0.0133  0.0020 </r>
        <r>  0.0003  0.0071  0.0010  0.0094  0.0088  0.0008  0.0137  0.0139  0.0074 </r>
        <r>  0.0004  0.0001  0.0201  0.0023  0.0115  0.0155  0.0077  0.0082  0.0023 </r>
        <r>  0.0007  0.0018  0.0093  0.0021  0.0113  0.0016  0.0032  0.0037  0.0025 </r>
       </set>
      </set>
     </set>
    </set>
   </array>
  </projected>
 </calculation>
 <structure name="finalpos" >
  <crystal>
   <varray name="basis" >
    <v>       5.10874036       0.00000000      -2.30030869 </v>
    <v>      -1.03575852       5.00264257      -2.30030916 </v>
    <v>       0.00000000       0.00000000       6.82313837 </v>
   </varray>
   <i name="volume">    174.38032574 </i>
   <varray name="rec_basis" >
    <v>       0.19574297       0.04052707       0.00000000 </v>
    <v>       0.00000000       0.19989435       0.00000000 </v>
    <v>       0.06599152       0.08105414       0.14656012 </v>
   </varray>
  </crystal>
  <varray name="positions" >
   <v>       0.50000000       0.50000000       0.00000000 </v>
   <v>       0.75000000       0.25000000       0.50000000 </v>
   <v>       0.00000000       0.00000000       0.00000000 </v>
   <v>       0.25000000       0.75000000       0.50000000 </v>
   <v>       0.37121578       0.37500000       0.25000000 </v>
   <v>       0.12500000       0.62878422       0.75000000 </v>
   <v>       0.62500000       0.12121578       0.75000000 </v>
   <v>       0.87878422       0.87500000       0.25000000 </v>
  </varray>
 </structure>
</modeling>
