<?xml version="1.0" encoding="ISO-8859-1"?>
<modeling>
 <generator>
  <i name="program" type="string">vasp </i>
  <i name="version" type="string">6.4.2  </i>
  <i name="subversion" type="string">20Jul23 (build Mar 15 2024 16:31:38) complex                          parallel </i>
  <i name="platform" type="string">LinuxIFC </i>
  <i name="date" type="string">2025 03 19 </i>
  <i name="time" type="string">14:23:17 </i>
 </generator>
 <incar>
  <i type="string" name="PREC">Accurate</i>
  <i type="string" name="ALGO">Normal</i>
  <i type="int" name="ISPIN">     1</i>
  <i type="int" name="NELM">   200</i>
  <i type="int" name="NELMIN">     5</i>
  <i name="EDIFF">      0.00001000</i>
  <i type="int" name="NSW">     0</i>
  <i name="ENCUT">    680.00000000</i>
  <i name="ENAUG">   1360.00000000</i>
  <i type="int" name="NBANDS">    29</i>
  <i type="int" name="NEDOS">  1688</i>
  <i type="logical" name="LREAL"> F  </i>
  <i type="int" name="ISMEAR">    -5</i>
  <i name="SIGMA">      0.05000000</i>
  <i type="int" name="LMAXMIX">     4</i>
  <i type="logical" name="LWAVE"> T  </i>
  <i type="logical" name="LCHARG"> T  </i>
  <i type="logical" name="LVTOT"> T  </i>
  <i type="int" name="LORBIT">    11</i>
  <i type="logical" name="LELF"> F  </i>
  <i type="logical" name="LOPTICS"> T  </i>
  <i type="logical" name="LASPH"> T  </i>
  <i type="logical" name="LAECHG"> T  </i>
  <i name="CSHIFT">      0.00001000</i>
  <i name="HFSCREEN">      0.20000000</i>
  <i type="logical" name="LHFCALC"> T  </i>
  <i type="string" name="GGA">Pe</i>
  <i type="string" name="PRECFOCK">Fast</i>
  <i type="logical" name="LDAU"> F  </i>
  <i type="logical" name="LMIXTAU"> T  </i>
 </incar>
 <primitive_cell>
  <structure name="primitive_cell" >
   <crystal>
    <varray name="basis" >
     <v>       4.01975093       0.00000000       2.32080404 </v>
     <v>       1.33991663       3.78985854       2.32080404 </v>
     <v>       0.00000000       0.00000000       4.64161015 </v>
    </varray>
    <i name="volume">     70.71162285 </i>
    <varray name="rec_basis" >
     <v>       0.24877163      -0.08795401       0.00000000 </v>
     <v>       0.00000000       0.26386209       0.00000000 </v>
     <v>      -0.12438576      -0.08795400       0.21544248 </v>
    </varray>
   </crystal>
   <varray name="positions" >
    <v>       0.00000000       0.00000000       0.00000000 </v>
    <v>       0.25000000       0.25000000       0.25000000 </v>
   </varray>
  </structure>
  <varray name="primitive_index" >
   <v type="int" >        1 </v>
   <v type="int" >        2 </v>
  </varray>
 </primitive_cell>
 <kpoints>
  <generation param="Gamma">
   <v type="int" name="divisions">       6        6        6 </v>
   <v name="usershift">      0.00000000       0.00000000       0.00000000 </v>
   <v name="genvec1">      0.16666667      -0.00000000       0.00000000 </v>
   <v name="genvec2">      0.00000000       0.16666667       0.00000000 </v>
   <v name="genvec3">      0.00000000      -0.00000000       0.16666667 </v>
   <v name="shift">      0.00000000       0.00000000       0.00000000 </v>
  </generation>
  <varray name="kpointlist" >
   <v>       0.00000000       0.00000000       0.00000000 </v>
   <v>       0.16666667       0.00000000       0.00000000 </v>
   <v>       0.33333333       0.00000000       0.00000000 </v>
   <v>       0.50000000       0.00000000       0.00000000 </v>
   <v>       0.16666667       0.16666667       0.00000000 </v>
   <v>       0.33333333       0.16666667       0.00000000 </v>
   <v>       0.50000000       0.16666667       0.00000000 </v>
   <v>      -0.33333333       0.16666667       0.00000000 </v>
   <v>      -0.16666667       0.16666667       0.00000000 </v>
   <v>       0.33333333       0.33333333       0.00000000 </v>
   <v>       0.50000000       0.33333333       0.00000000 </v>
   <v>      -0.33333333       0.33333333       0.00000000 </v>
   <v>       0.50000000       0.50000000       0.00000000 </v>
   <v>       0.50000000       0.33333333       0.16666667 </v>
   <v>      -0.33333333       0.33333333       0.16666667 </v>
   <v>      -0.33333333       0.50000000       0.16666667 </v>
  </varray>
  <varray name="weights" >
   <v>       0.00462963 </v>
   <v>       0.03703704 </v>
   <v>       0.03703704 </v>
   <v>       0.01851852 </v>
   <v>       0.02777778 </v>
   <v>       0.11111111 </v>
   <v>       0.11111111 </v>
   <v>       0.11111111 </v>
   <v>       0.05555556 </v>
   <v>       0.02777778 </v>
   <v>       0.11111111 </v>
   <v>       0.05555556 </v>
   <v>       0.01388889 </v>
   <v>       0.11111111 </v>
   <v>       0.11111111 </v>
   <v>       0.05555556 </v>
  </varray>
  <varray name="tetrahedronlist"  type="int" >
   <v type="int" >       48        2        3        6        9 </v>
   <v type="int" >       48        6        8        9       14 </v>
   <v type="int" >       24        8        8        9       14 </v>
   <v type="int" >       48        3        6        8        9 </v>
   <v type="int" >       48        8       12       14       15 </v>
   <v type="int" >       48        7        8       12       15 </v>
   <v type="int" >       24        8        8       12       14 </v>
   <v type="int" >       48        7       11       14       15 </v>
   <v type="int" >       48        6        7       11       14 </v>
   <v type="int" >       48        7       11       12       15 </v>
   <v type="int" >       24        6        6       10       14 </v>
   <v type="int" >       24        5        6        6       10 </v>
   <v type="int" >       48        6       10       11       14 </v>
   <v type="int" >       24        5        6        6        9 </v>
   <v type="int" >       48        2        5        6        9 </v>
   <v type="int" >       48        6        7        8       14 </v>
   <v type="int" >       48        3        6        7        8 </v>
   <v type="int" >       48       11       14       15       16 </v>
   <v type="int" >       24       14       15       15       16 </v>
   <v type="int" >       24       12       14       15       15 </v>
   <v type="int" >       48        7        8       14       15 </v>
   <v type="int" >       24       15       15       16       16 </v>
   <v type="int" >       24       12       15       15       16 </v>
   <v type="int" >       48       11       12       15       16 </v>
   <v type="int" >       24       11       11       14       16 </v>
   <v type="int" >       24       10       11       11       14 </v>
   <v type="int" >       24        6        6        9       14 </v>
   <v type="int" >       24       11       11       12       16 </v>
   <v type="int" >       48        7        7        8       15 </v>
   <v type="int" >       24        2        2        5        9 </v>
   <v type="int" >       48        3        4        7        8 </v>
   <v type="int" >       48        4        7        7        8 </v>
   <v type="int" >       48       11       11       13       16 </v>
   <v type="int" >       24       10       11       11       13 </v>
   <v type="int" >       24        1        2        2        5 </v>
  </varray>
  <i name="volumeweight">      0.00077160 </i>
 </kpoints>
 <parameters>
  <separator name="general" >
   <i type="string" name="SYSTEM">unknown system</i>
   <i type="logical" name="LCOMPAT"> F  </i>
  </separator>
  <separator name="electronic" >
   <i type="string" name="PREC">accura</i>
   <i name="ENMAX">    680.00000000</i>
   <i name="ENAUG">   1360.00000000</i>
   <i name="EDIFF">      0.00001000</i>
   <i type="int" name="IALGO">    38</i>
   <i type="int" name="IWAVPR">    10</i>
   <i type="int" name="NBANDS">    36</i>
   <i type="int" name="NBANDSLOW">    -1</i>
   <i type="int" name="NBANDSHIGH">    -1</i>
   <i name="NELECT">     18.00000000</i>
   <i type="int" name="TURBO">     0</i>
   <i type="int" name="IRESTART">     0</i>
   <i type="int" name="NREBOOT">     0</i>
   <i type="int" name="NMIN">     0</i>
   <i name="EREF">      0.00000000</i>
   <separator name="electronic smearing" >
    <i type="int" name="ISMEAR">    -5</i>
    <i name="SIGMA">      0.05000000</i>
    <i name="KSPACING">      0.50000000</i>
    <i type="logical" name="KGAMMA"> T  </i>
    <i type="logical" name="KBLOWUP"> T  </i>
   </separator>
   <separator name="electronic projectors" >
    <i type="logical" name="LREAL"> F  </i>
    <v name="ROPT">      0.00000000      0.00000000</v>
    <i type="int" name="LMAXPAW">  -100</i>
    <i type="int" name="LMAXMIX">     4</i>
    <i type="logical" name="NLSPLINE"> F  </i>
   </separator>
   <separator name="electronic startup" >
    <i type="int" name="ISTART">     0</i>
    <i type="int" name="ICHARG">     2</i>
    <i type="int" name="INIWAV">     1</i>
   </separator>
   <separator name="electronic spin" >
    <i type="int" name="ISPIN">     1</i>
    <i type="logical" name="LNONCOLLINEAR"> F  </i>
    <v name="MAGMOM">      1.00000000      1.00000000</v>
    <i name="NUPDOWN">     -1.00000000</i>
    <i type="logical" name="LSORBIT"> F  </i>
    <v name="SAXIS">      0.00000000      0.00000000      1.00000000</v>
    <i type="logical" name="LSPIRAL"> F  </i>
    <v name="QSPIRAL">      0.00000000      0.00000000      0.00000000</v>
    <i type="logical" name="LZEROZ"> F  </i>
   </separator>
   <separator name="electronic exchange-correlation" >
    <i type="logical" name="LASPH"> T  </i>
    <i type="logical" name="LMETAGGA"> F  </i>
   </separator>
   <separator name="electronic convergence" >
    <i type="int" name="NELM">   200</i>
    <i type="int" name="NELMDL">    -5</i>
    <i type="int" name="NELMIN">     5</i>
    <i name="ENINI">    680.00000000</i>
    <separator name="electronic convergence detail" >
     <i type="logical" name="LDIAG"> T  </i>
     <i type="logical" name="LSUBROT"> F  </i>
     <i name="WEIMIN">      0.00000000</i>
     <i name="EBREAK">      0.00000007</i>
     <i name="DEPER">      0.30000000</i>
     <i type="int" name="NRMM">     4</i>
     <i name="TIME">      0.40000000</i>
    </separator>
   </separator>
   <separator name="electronic mixer" >
    <i name="AMIX">      0.40000000</i>
    <i name="BMIX">      1.00000000</i>
    <i name="AMIN">      0.10000000</i>
    <i name="AMIX_MAG">      1.60000000</i>
    <i name="BMIX_MAG">      1.00000000</i>
    <separator name="electronic mixer details" >
     <i type="int" name="IMIX">     1</i>
     <i type="logical" name="MIXFIRST"> F  </i>
     <i type="int" name="MAXMIX">   -45</i>
     <i name="WC">    100.00000000</i>
     <i type="int" name="INIMIX">     1</i>
     <i type="int" name="MIXPRE">     1</i>
     <i type="int" name="MREMOVE">     5</i>
    </separator>
   </separator>
   <separator name="electronic dipolcorrection" >
    <i type="logical" name="LDIPOL"> F  </i>
    <i type="logical" name="LMONO"> F  </i>
    <i type="int" name="IDIPOL">     0</i>
    <i name="EPSILON">      1.00000000</i>
    <v name="DIPOL">   -100.00000000   -100.00000000   -100.00000000</v>
    <i name="EFIELD">      0.00000000</i>
   </separator>
  </separator>
  <separator name="grids" >
   <i type="int" name="NGX">    40</i>
   <i type="int" name="NGY">    40</i>
   <i type="int" name="NGZ">    40</i>
   <i type="int" name="NGXF">    80</i>
   <i type="int" name="NGYF">    80</i>
   <i type="int" name="NGZF">    80</i>
   <i type="logical" name="ADDGRID"> F  </i>
  </separator>
  <separator name="ionic" >
   <i type="int" name="NSW">     0</i>
   <i type="int" name="IBRION">    -1</i>
   <i type="int" name="MDALGO">     0</i>
   <i type="int" name="ISIF">     0</i>
   <i name="PSTRESS">      0.00000000</i>
   <i name="EDIFFG">      0.00010000</i>
   <i type="int" name="NFREE">     0</i>
   <i name="POTIM">      0.50000000</i>
   <i name="SMASS">     -3.00000000</i>
   <i name="SCALEE">      1.00000000</i>
  </separator>
  <separator name="ionic md" >
   <i name="TEBEG">      0.00010000</i>
   <i name="TEEND">      0.00010000</i>
   <i type="int" name="NBLOCK">     1</i>
   <i type="int" name="KBLOCK">     1</i>
   <i type="int" name="NPACO">   256</i>
   <i name="APACO">     10.00000000</i>
  </separator>
  <separator name="symmetry" >
   <i type="int" name="ISYM">     3</i>
   <i name="SYMPREC">      0.00001000</i>
  </separator>
  <separator name="dos" >
   <i type="int" name="LORBIT">    11</i>
   <v name="RWIGS">     -1.00000000     -1.00000000</v>
   <i type="int" name="NEDOS">  1688</i>
   <i name="EMIN">     10.00000000</i>
   <i name="EMAX">    -10.00000000</i>
   <i name="EFERMI">      0.00000000</i>
  </separator>
  <separator name="writing" >
   <i type="int" name="NWRITE">     2</i>
   <i type="logical" name="LWAVE"> T  </i>
   <i type="logical" name="LDOWNSAMPLE"> F  </i>
   <i type="logical" name="LCHARG"> T  </i>
   <i type="logical" name="LPARD"> F  </i>
   <i type="logical" name="LVTOT"> T  </i>
   <i type="logical" name="LVHAR"> F  </i>
   <i type="logical" name="LELF"> F  </i>
   <i type="logical" name="LOPTICS"> T  </i>
   <v name="STM">      0.00000000      0.00000000      0.00000000      0.00000000      0.00000000      0.00000000      0.00000000</v>
  </separator>
  <separator name="performance" >
   <i type="int" name="NPAR">    12</i>
   <i type="int" name="NSIM">     4</i>
   <i type="int" name="NBLK">    -1</i>
   <i type="logical" name="LPLANE"> T  </i>
   <i type="logical" name="LSCALAPACK"> T  </i>
   <i type="logical" name="LSCAAWARE"> T  </i>
   <i type="logical" name="LSCALU"> F  </i>
   <i type="logical" name="LASYNC"> F  </i>
   <i type="logical" name="LORBITALREAL"> F  </i>
  </separator>
  <separator name="miscellaneous" >
   <i type="int" name="IDIOT">     3</i>
   <i type="int" name="PHON_NSTRUCT">    -1</i>
   <i type="logical" name="LMUSIC"> F  </i>
   <v name="POMASS">    112.41100000    127.60000000</v>
   <v name="DARWINR">      0.00000000      0.00000000</v>
   <v name="DARWINV">      1.00000000      1.00000000</v>
   <i type="logical" name="LCORR"> T  </i>
  </separator>
  <i type="logical" name="GGA_COMPAT"> T  </i>
  <i type="logical" name="LBERRY"> F  </i>
  <i type="int" name="ICORELEVEL">     0</i>
  <i type="logical" name="LDAU"> F  </i>
  <i type="int" name="I_CONSTRAINED_M">     0</i>
  <separator name="electronic exchange-correlation" >
   <i type="string" name="GGA">PE</i>
   <i type="int" name="VOSKOWN">     0</i>
   <i type="logical" name="LHFCALC"> T  </i>
   <i type="string" name="PRECFOCK">fast</i>
   <i type="logical" name="LSYMGRAD"> F  </i>
   <i type="logical" name="LHFONE"> F  </i>
   <i type="logical" name="LRHFCALC"> F  </i>
   <i type="logical" name="LTHOMAS"> F  </i>
   <i type="logical" name="LMODELHF"> F  </i>
   <i type="logical" name="LFOCKACE"> T  </i>
   <i name="ENCUT4O">     -1.00000000</i>
   <i type="int" name="EXXOEP">     0</i>
   <i type="int" name="FOURORBIT">     0</i>
   <i name="AEXX">      0.25000000</i>
   <i name="HFALPHA">     -1.00000000</i>
   <i name="MCALPHA">      0.00000000</i>
   <i name="ALDAX">      0.75000000</i>
   <i name="AGGAX">      0.75000000</i>
   <i name="ALDAC">      1.00000000</i>
   <i name="AGGAC">      1.00000000</i>
   <i type="int" name="NKREDX">     1</i>
   <i type="int" name="NKREDY">     1</i>
   <i type="int" name="NKREDZ">     1</i>
   <i type="logical" name="SHIFTRED"> F  </i>
   <i type="logical" name="ODDONLY"> F  </i>
   <i type="logical" name="EVENONLY"> F  </i>
   <i type="int" name="LMAXFOCK">     4</i>
   <i type="int" name="NMAXFOCKAE">     1</i>
   <i type="logical" name="LFOCKAEDFT"> F  </i>
   <i name="HFSCREEN">      0.20000000</i>
   <i name="HFSCREENC">      0.20000000</i>
   <i type="int" name="NBANDSGWLOW">     1</i>
  </separator>
  <separator name="vdW DFT" >
   <i type="logical" name="LUSE_VDW"> F  </i>
   <i type="int" name="IVDW_NL">     1</i>
   <i type="logical" name="LSPIN_VDW"> F  </i>
   <i name="Zab_VDW">     -0.84910000</i>
   <i name="PARAM1">      0.12340000</i>
   <i name="PARAM2">      1.00000000</i>
   <i name="PARAM3">      0.00000000</i>
  </separator>
  <separator name="model GW" >
   <i type="int" name="MODEL_GW">     0</i>
   <i name="MODEL_EPS0">     21.21348685</i>
   <i name="MODEL_ALPHA">      1.00000000</i>
  </separator>
  <separator name="linear response parameters" >
   <i type="logical" name="LEPSILON"> F  </i>
   <i type="logical" name="LRPA"> F  </i>
   <i type="logical" name="LNABLA"> F  </i>
   <i type="logical" name="LVEL"> F  </i>
   <i name="CSHIFT">      0.00001000</i>
   <i name="OMEGAMAX">     -1.00000000</i>
   <i name="DEG_THRESHOLD">      0.00200000</i>
   <i name="RTIME">     -0.10000000</i>
   <i name="WPLASMAI">      0.00000000</i>
   <v name="DFIELD">      0.00000000      0.00000000      0.00000000</v>
   <v name="WPLASMA">      0.00000000      0.00000000      0.00000000      0.00000000      0.00000000      0.00000000      0.00000000      0.00000000      0.00000000</v>
  </separator>
  <separator name="orbital magnetization" >
   <i type="logical" name="NUCIND"> F  </i>
   <v name="MAGPOS">      0.00000000      0.00000000      0.00000000</v>
   <i type="logical" name="LNICSALL"> T  </i>
   <i type="logical" name="ORBITALMAG"> F  </i>
   <i type="logical" name="LMAGBLOCH"> F  </i>
   <i type="logical" name="LCHIMAG"> F  </i>
   <i type="logical" name="LGAUGE"> T  </i>
   <i type="int" name="MAGATOM">     0</i>
   <v name="MAGDIPOL">      0.00000000      0.00000000      0.00000000</v>
   <v name="AVECCONST">      0.00000000      0.00000000      0.00000000</v>
  </separator>
  <separator name="response functions" >
   <i type="logical" name="LALL_IN_ONE"> F  </i>
   <i type="int" name="IALL_IN_ONE">    -1</i>
   <i type="int" name="NBANDS_WAVE">    -1</i>
   <i type="logical" name="LFINITE_TEMPERATURE"> F  </i>
   <i type="logical" name="LADDER"> F  </i>
   <i type="logical" name="LRPAFORCE"> F  </i>
   <i type="logical" name="LFXC"> F  </i>
   <i type="logical" name="LHARTREE"> T  </i>
   <i type="int" name="IBSE">     0</i>
   <v type="int" name="KPOINT">    -1     0     0     0</v>
   <i type="logical" name="LTCTC"> F  </i>
   <i type="logical" name="LTCTE"> F  </i>
   <i type="logical" name="LTETE"> F  </i>
   <i type="logical" name="LTRIPLET"> F  </i>
   <i type="logical" name="LFXCEPS"> F  </i>
   <i type="logical" name="LFXHEG"> F  </i>
   <i type="int" name="NATURALO">     2</i>
   <i type="logical" name="LHOLEGF"> F  </i>
   <i type="logical" name="L2ORDER"> F  </i>
   <i type="logical" name="LDMP1"> F  </i>
   <i type="logical" name="LMP2LT"> F  </i>
   <i type="logical" name="LSMP2LT"> F  </i>
   <i type="logical" name="LGWLF"> F  </i>
   <i name="ENCUTGW">     -1.60000002</i>
   <i name="ENCUTGWSOFT">     -1.60000002</i>
   <i name="ENCUTLF">     -1.00000000</i>
   <i type="logical" name="LESF_SPLINES"> F  </i>
   <i type="int" name="LMAXMP2">    -1</i>
   <i name="SCISSOR">      0.00000000</i>
   <i type="int" name="NOMEGA">     0</i>
   <i type="int" name="NOMEGAR">     0</i>
   <i type="int" name="NBANDSGW">    -1</i>
   <i type="int" name="NBANDSO">    -1</i>
   <i type="int" name="NBANDSV">    -1</i>
   <i type="int" name="NELMGW">     1</i>
   <i type="int" name="NELMHF">     1</i>
   <i type="int" name="DIM">     3</i>
   <i type="int" name="IESPILON">     4</i>
   <i type="int" name="ANTIRES">     0</i>
   <i name="OMEGAMAX">    -30.00000000</i>
   <i name="OMEGAMIN">    -30.00000000</i>
   <i name="OMEGATL">   -200.00000000</i>
   <i type="int" name="OMEGAGRID">     0</i>
   <i name="CSHIFT">      0.00001000</i>
   <i type="logical" name="LSELFENERGY"> F  </i>
   <i type="logical" name="LSPECTRAL"> F  </i>
   <i type="logical" name="LSPECTRALGW"> F  </i>
   <i type="logical" name="LSINGLES"> F  </i>
   <i type="logical" name="LFERMIGW"> F  </i>
   <i type="logical" name="ODDONLYGW"> F  </i>
   <i type="logical" name="EVENONLYGW"> F  </i>
   <i type="int" name="NKREDLFX">     1</i>
   <i type="int" name="NKREDLFY">     1</i>
   <i type="int" name="NKREDLFZ">     1</i>
   <i type="int" name="MAXMEM">  2800</i>
   <i type="int" name="TELESCOPE">     0</i>
   <i type="int" name="NTAUPAR">    -1</i>
   <i type="int" name="NOMEGAPAR">    -1</i>
   <i name="DAMP_NEWTON">      0.80000001</i>
   <i name="LAMBDA">      1.00000000</i>
  </separator>
  <separator name="External order field" >
   <i name="OFIELD_KAPPA">      0.00000000</i>
   <v name="OFIELD_K">      0.00000000      0.00000000      0.00000000</v>
   <i name="OFIELD_Q6_NEAR">      0.00000000</i>
   <i name="OFIELD_Q6_FAR">      0.00000000</i>
   <i name="OFIELD_A">      0.00000000</i>
  </separator>
  <separator name="optional k-points parameters" >
   <i type="int" name="KPOINTS_OPT_MODE">     1</i>
   <i type="logical" name="LKPOINTS_OPT"> F  </i>
  </separator>
 </parameters>
 <atominfo>
  <atoms>       2 </atoms>
  <types>       2 </types>
  <array name="atoms" >
   <dimension dim="1">ion</dimension>
   <field type="string">element</field>
   <field type="int">atomtype</field>
   <set>
    <rc><c>Cd</c><c>   1</c></rc>
    <rc><c>Te</c><c>   2</c></rc>
   </set>
  </array>
  <array name="atomtypes" >
   <dimension dim="1">type</dimension>
   <field type="int">atomspertype</field>
   <field type="string">element</field>
   <field>mass</field>
   <field>valence</field>
   <field type="string">pseudopotential</field>
   <set>
    <rc><c>   1</c><c>Cd</c><c>    112.41100000</c><c>     12.00000000</c><c>  PAW_PBE Cd 06Sep2000                  </c></rc>
    <rc><c>   1</c><c>Te</c><c>    127.60000000</c><c>      6.00000000</c><c>  PAW_PBE Te 08Apr2002                  </c></rc>
   </set>
  </array>
 </atominfo>
 <structure name="initialpos" >
  <crystal>
   <varray name="basis" >
    <v>       4.01975093       0.00000000       2.32080404 </v>
    <v>       1.33991663       3.78985854       2.32080404 </v>
    <v>       0.00000000       0.00000000       4.64161015 </v>
   </varray>
   <i name="volume">     70.71162285 </i>
   <varray name="rec_basis" >
    <v>       0.24877163      -0.08795401       0.00000000 </v>
    <v>       0.00000000       0.26386209       0.00000000 </v>
    <v>      -0.12438576      -0.08795400       0.21544248 </v>
   </varray>
  </crystal>
  <varray name="positions" >
   <v>       0.00000000       0.00000000       0.00000000 </v>
   <v>       0.25000000       0.25000000       0.25000000 </v>
  </varray>
 </structure>
 <calculation>
  <scstep>
   <time name="dav">    0.23    0.23</time>
   <time name="total">    0.38    0.38</time>
   <energy>
    <i name="alphaZ">     48.32593859 </i>
    <i name="ewald">  -1031.85467228 </i>
    <i name="hartreedc">   -517.30053658 </i>
    <i name="XCdc">    -22.76447943 </i>
    <i name="pawpsdc">   1404.43023187 </i>
    <i name="pawaedc">  -3421.90686490 </i>
    <i name="eentropy">      0.00000000 </i>
    <i name="bandstr">     28.42838268 </i>
    <i name="atom">   1514.28648168 </i>
    <i name="e_fr_energy">  -1998.35551837 </i>
    <i name="e_wo_entrp">  -1998.35551837 </i>
    <i name="e_0_energy">  -1998.35551837 </i>
   </energy>
  </scstep>
  <scstep>
   <time name="dav">    0.20    0.21</time>
   <time name="total">    0.20    0.22</time>
   <energy>
    <i name="e_fr_energy">  -2134.85275121 </i>
    <i name="e_wo_entrp">  -2134.85275121 </i>
    <i name="e_0_energy">  -2134.85275121 </i>
   </energy>
  </scstep>
  <scstep>
   <time name="dav">    0.21    0.23</time>
   <time name="total">    0.21    0.23</time>
   <energy>
    <i name="e_fr_energy">  -2140.37313592 </i>
    <i name="e_wo_entrp">  -2140.37313592 </i>
    <i name="e_0_energy">  -2140.37313592 </i>
   </energy>
  </scstep>
  <scstep>
   <time name="dav">    0.20    0.21</time>
   <time name="total">    0.20    0.22</time>
   <energy>
    <i name="e_fr_energy">  -2140.42585200 </i>
    <i name="e_wo_entrp">  -2140.42585200 </i>
    <i name="e_0_energy">  -2140.42585200 </i>
   </energy>
  </scstep>
  <scstep>
   <time name="dav">   13.08   13.11</time>
   <time name="total">   13.45   13.50</time>
   <energy>
    <i name="e_fr_energy">     -6.17533564 </i>
    <i name="e_wo_entrp">     -6.17533564 </i>
    <i name="e_0_energy">     -6.17533564 </i>
   </energy>
  </scstep>
  <scstep>
   <time name="dav">   12.98   13.01</time>
   <time name="total">   13.34   13.39</time>
   <energy>
    <i name="e_fr_energy">     -6.06713497 </i>
    <i name="e_wo_entrp">     -6.06713497 </i>
    <i name="e_0_energy">     -6.06713497 </i>
   </energy>
  </scstep>
  <scstep>
   <time name="dav">   13.31   13.34</time>
   <time name="total">   13.69   13.73</time>
   <energy>
    <i name="e_fr_energy">     -6.05956283 </i>
    <i name="e_wo_entrp">     -6.05956283 </i>
    <i name="e_0_energy">     -6.05956283 </i>
   </energy>
  </scstep>
  <scstep>
   <time name="dav">   13.17   13.21</time>
   <time name="total">   13.56   13.60</time>
   <energy>
    <i name="e_fr_energy">     -6.05921901 </i>
    <i name="e_wo_entrp">     -6.05921901 </i>
    <i name="e_0_energy">     -6.05921901 </i>
   </energy>
  </scstep>
  <scstep>
   <time name="dav">   12.88   12.91</time>
   <time name="total">   13.23   13.28</time>
   <energy>
    <i name="e_fr_energy">     -6.05764684 </i>
    <i name="e_wo_entrp">     -6.05764684 </i>
    <i name="e_0_energy">     -6.05764684 </i>
   </energy>
  </scstep>
  <scstep>
   <time name="dav">   13.34   13.38</time>
   <time name="total">   13.70   13.75</time>
   <energy>
    <i name="e_fr_energy">     -6.05700315 </i>
    <i name="e_wo_entrp">     -6.05700315 </i>
    <i name="e_0_energy">     -6.05700315 </i>
   </energy>
  </scstep>
  <scstep>
   <time name="dav">   13.32   13.35</time>
   <time name="total">   13.69   13.74</time>
   <energy>
    <i name="e_fr_energy">     -6.05684479 </i>
    <i name="e_wo_entrp">     -6.05684479 </i>
    <i name="e_0_energy">     -6.05684479 </i>
   </energy>
  </scstep>
  <scstep>
   <time name="dav">   13.01   13.05</time>
   <time name="total">   13.37   13.42</time>
   <energy>
    <i name="e_fr_energy">     -6.05681841 </i>
    <i name="e_wo_entrp">     -6.05681841 </i>
    <i name="e_0_energy">     -6.05681841 </i>
   </energy>
  </scstep>
  <scstep>
   <time name="dav">   13.49   13.53</time>
   <time name="total">   13.82   13.87</time>
   <energy>
    <i name="alphaZ">     48.32593859 </i>
    <i name="ewald">  -1031.85467228 </i>
    <i name="hartreedc">   -513.51891023 </i>
    <i name="XCdc">    -19.66049690 </i>
    <i name="pawpsdc">   3217.94648583 </i>
    <i name="pawaedc">  -3154.37778081 </i>
    <i name="eentropy">      0.00000000 </i>
    <i name="bandstr">   -101.94203914 </i>
    <i name="atom">   1514.28648168 </i>
    <i name="e_fr_energy">     -6.05682385 </i>
    <i name="e_wo_entrp">     -6.05682385 </i>
    <i name="e_0_energy">     -6.05682385 </i>
   </energy>
  </scstep>
  <structure>
   <crystal>
    <varray name="basis" >
     <v>       4.01975093       0.00000000       2.32080404 </v>
     <v>       1.33991663       3.78985854       2.32080404 </v>
     <v>       0.00000000       0.00000000       4.64161015 </v>
    </varray>
    <i name="volume">     70.71162285 </i>
    <varray name="rec_basis" >
     <v>       0.24877163      -0.08795401       0.00000000 </v>
     <v>       0.00000000       0.26386209       0.00000000 </v>
     <v>      -0.12438576      -0.08795400       0.21544248 </v>
    </varray>
   </crystal>
   <varray name="positions" >
    <v>       0.00000000       0.00000000       0.00000000 </v>
    <v>       0.25000000       0.25000000       0.25000000 </v>
   </varray>
  </structure>
  <varray name="forces" >
   <v>       0.00000000       0.00000000      -0.00000000 </v>
   <v>      -0.00000000      -0.00000000       0.00000000 </v>
  </varray>
  <energy>
   <i name="e_fr_energy">     -6.05682385 </i>
   <i name="e_wo_entrp">     -6.05682385 </i>
   <i name="e_0_energy">     -6.05682385 </i>
  </energy>
  <time name="totalsc">  129.01  129.52</time>
  <eigenvalues>
   <array>
    <dimension dim="1">band</dimension>
    <dimension dim="2">kpoint</dimension>
    <dimension dim="3">spin</dimension>
    <field>eigene</field>
    <field>occ</field>
    <set>
     <set comment="spin 1">
      <set comment="kpoint 1">
       <r>  -10.4356    1.0000 </r>
       <r>   -7.9881    1.0000 </r>
       <r>   -7.9881    1.0000 </r>
       <r>   -7.9881    1.0000 </r>
       <r>   -7.7511    1.0000 </r>
       <r>   -7.7511    1.0000 </r>
       <r>    1.4900    1.0000 </r>
       <r>    1.4900    1.0000 </r>
       <r>    1.4900    1.0000 </r>
       <r>    2.9264    0.0000 </r>
       <r>    7.0009    0.0000 </r>
       <r>    7.0009    0.0000 </r>
       <r>    7.0009    0.0000 </r>
       <r>    9.9331    0.0000 </r>
       <r>   11.7751    0.0000 </r>
       <r>   11.7751    0.0000 </r>
       <r>   12.5779    0.0000 </r>
       <r>   12.5779    0.0000 </r>
       <r>   12.5779    0.0000 </r>
       <r>   14.7494    0.0000 </r>
       <r>   22.5734    0.0000 </r>
       <r>   22.5734    0.0000 </r>
       <r>   22.5734    0.0000 </r>
       <r>   23.3338    0.0000 </r>
       <r>   23.3338    0.0000 </r>
       <r>   23.3338    0.0000 </r>
       <r>   24.3157    0.0000 </r>
       <r>   24.3157    0.0000 </r>
       <r>   24.3157    0.0000 </r>
       <r>   24.9819    0.0000 </r>
       <r>   24.9819    0.0000 </r>
       <r>   29.5006    0.0000 </r>
       <r>   31.1372    0.0000 </r>
       <r>   31.2704    0.0000 </r>
       <r>   31.2704    0.0000 </r>
       <r>   31.2705    0.0000 </r>
      </set>
      <set comment="kpoint 2">
       <r>  -10.3422    1.0000 </r>
       <r>   -7.9718    1.0000 </r>
       <r>   -7.9718    1.0000 </r>
       <r>   -7.8907    1.0000 </r>
       <r>   -7.7521    1.0000 </r>
       <r>   -7.7521    1.0000 </r>
       <r>   -0.2182    1.0000 </r>
       <r>    1.2669    1.0000 </r>
       <r>    1.2669    1.0000 </r>
       <r>    4.0268    0.0000 </r>
       <r>    7.0560    0.0000 </r>
       <r>    7.3452    0.0000 </r>
       <r>    7.3452    0.0000 </r>
       <r>   10.8777    0.0000 </r>
       <r>   10.8777    0.0000 </r>
       <r>   10.9159    0.0000 </r>
       <r>   12.2174    0.0000 </r>
       <r>   14.3903    0.0000 </r>
       <r>   14.3903    0.0000 </r>
       <r>   16.5016    0.0000 </r>
       <r>   19.7847    0.0000 </r>
       <r>   19.7847    0.0000 </r>
       <r>   20.1654    0.0000 </r>
       <r>   22.7475    0.0000 </r>
       <r>   23.7101    0.0000 </r>
       <r>   23.7101    0.0000 </r>
       <r>   24.4478    0.0000 </r>
       <r>   24.4478    0.0000 </r>
       <r>   25.7330    0.0000 </r>
       <r>   27.4730    0.0000 </r>
       <r>   27.4730    0.0000 </r>
       <r>   28.6232    0.0000 </r>
       <r>   28.6232    0.0000 </r>
       <r>   28.9803    0.0000 </r>
       <r>   30.5877    0.0000 </r>
       <r>   31.2355    0.0000 </r>
      </set>
      <set comment="kpoint 3">
       <r>  -10.1647    1.0000 </r>
       <r>   -7.9432    1.0000 </r>
       <r>   -7.9432    1.0000 </r>
       <r>   -7.7492    1.0000 </r>
       <r>   -7.7492    1.0000 </r>
       <r>   -7.5853    1.0000 </r>
       <r>   -2.1653    1.0000 </r>
       <r>    0.8853    1.0000 </r>
       <r>    0.8853    1.0000 </r>
       <r>    4.1821    0.0000 </r>
       <r>    7.6217    0.0000 </r>
       <r>    7.6217    0.0000 </r>
       <r>    8.5878    0.0000 </r>
       <r>   10.4973    0.0000 </r>
       <r>   11.3144    0.0000 </r>
       <r>   11.3144    0.0000 </r>
       <r>   14.7375    0.0000 </r>
       <r>   16.2921    0.0000 </r>
       <r>   16.2921    0.0000 </r>
       <r>   16.8196    0.0000 </r>
       <r>   17.3596    0.0000 </r>
       <r>   17.3596    0.0000 </r>
       <r>   19.7349    0.0000 </r>
       <r>   23.1625    0.0000 </r>
       <r>   24.0033    0.0000 </r>
       <r>   24.0033    0.0000 </r>
       <r>   24.0735    0.0000 </r>
       <r>   24.4811    0.0000 </r>
       <r>   24.4811    0.0000 </r>
       <r>   25.0188    0.0000 </r>
       <r>   25.0188    0.0000 </r>
       <r>   27.4267    0.0000 </r>
       <r>   27.9353    0.0000 </r>
       <r>   29.4830    0.0000 </r>
       <r>   29.4830    0.0000 </r>
       <r>   29.7417    0.0000 </r>
      </set>
      <set comment="kpoint 4">
       <r>  -10.0834    1.0000 </r>
       <r>   -7.9317    1.0000 </r>
       <r>   -7.9317    1.0000 </r>
       <r>   -7.7446    1.0000 </r>
       <r>   -7.7446    1.0000 </r>
       <r>   -7.3384    1.0000 </r>
       <r>   -3.0274    1.0000 </r>
       <r>    0.7175    1.0000 </r>
       <r>    0.7175    1.0000 </r>
       <r>    4.0743    0.0000 </r>
       <r>    7.5724    0.0000 </r>
       <r>    7.5724    0.0000 </r>
       <r>    9.4360    0.0000 </r>
       <r>   11.0911    0.0000 </r>
       <r>   12.8199    0.0000 </r>
       <r>   12.8199    0.0000 </r>
       <r>   13.7570    0.0000 </r>
       <r>   14.1247    0.0000 </r>
       <r>   14.1247    0.0000 </r>
       <r>   18.5375    0.0000 </r>
       <r>   20.0709    0.0000 </r>
       <r>   20.0709    0.0000 </r>
       <r>   20.6612    0.0000 </r>
       <r>   20.9680    0.0000 </r>
       <r>   20.9680    0.0000 </r>
       <r>   23.4213    0.0000 </r>
       <r>   23.7010    0.0000 </r>
       <r>   24.0155    0.0000 </r>
       <r>   24.8758    0.0000 </r>
       <r>   24.8758    0.0000 </r>
       <r>   25.1430    0.0000 </r>
       <r>   25.1430    0.0000 </r>
       <r>   27.6716    0.0000 </r>
       <r>   28.7819    0.0000 </r>
       <r>   28.7819    0.0000 </r>
       <r>   28.8494    0.0000 </r>
      </set>
      <set comment="kpoint 5">
       <r>  -10.3117    1.0000 </r>
       <r>   -7.9553    1.0000 </r>
       <r>   -7.9553    1.0000 </r>
       <r>   -7.8845    1.0000 </r>
       <r>   -7.7557    1.0000 </r>
       <r>   -7.7447    1.0000 </r>
       <r>   -0.2202    1.0000 </r>
       <r>    0.8976    1.0000 </r>
       <r>    0.8976    1.0000 </r>
       <r>    4.6513    0.0000 </r>
       <r>    6.0575    0.0000 </r>
       <r>    7.9569    0.0000 </r>
       <r>    7.9569    0.0000 </r>
       <r>    9.5390    0.0000 </r>
       <r>   11.7006    0.0000 </r>
       <r>   12.0318    0.0000 </r>
       <r>   13.3378    0.0000 </r>
       <r>   13.3378    0.0000 </r>
       <r>   13.8702    0.0000 </r>
       <r>   17.5398    0.0000 </r>
       <r>   19.5781    0.0000 </r>
       <r>   19.5781    0.0000 </r>
       <r>   20.1694    0.0000 </r>
       <r>   20.8261    0.0000 </r>
       <r>   23.4923    0.0000 </r>
       <r>   23.4923    0.0000 </r>
       <r>   23.7638    0.0000 </r>
       <r>   25.9166    0.0000 </r>
       <r>   27.4727    0.0000 </r>
       <r>   27.4727    0.0000 </r>
       <r>   27.5506    0.0000 </r>
       <r>   27.7625    0.0000 </r>
       <r>   28.4751    0.0000 </r>
       <r>   28.4751    0.0000 </r>
       <r>   29.1418    0.0000 </r>
       <r>   31.0773    0.0000 </r>
      </set>
      <set comment="kpoint 6">
       <r>  -10.1651    1.0000 </r>
       <r>   -7.9320    1.0000 </r>
       <r>   -7.9234    1.0000 </r>
       <r>   -7.7849    1.0000 </r>
       <r>   -7.7401    1.0000 </r>
       <r>   -7.6188    1.0000 </r>
       <r>   -1.6934    1.0000 </r>
       <r>    0.3918    1.0000 </r>
       <r>    0.4853    1.0000 </r>
       <r>    5.1240    0.0000 </r>
       <r>    6.3690    0.0000 </r>
       <r>    8.0696    0.0000 </r>
       <r>    8.5338    0.0000 </r>
       <r>   10.2925    0.0000 </r>
       <r>   12.2121    0.0000 </r>
       <r>   12.2329    0.0000 </r>
       <r>   14.2085    0.0000 </r>
       <r>   15.3018    0.0000 </r>
       <r>   16.3891    0.0000 </r>
       <r>   16.4998    0.0000 </r>
       <r>   16.6578    0.0000 </r>
       <r>   19.7482    0.0000 </r>
       <r>   20.3669    0.0000 </r>
       <r>   20.4765    0.0000 </r>
       <r>   21.3171    0.0000 </r>
       <r>   23.3615    0.0000 </r>
       <r>   24.0007    0.0000 </r>
       <r>   25.1575    0.0000 </r>
       <r>   25.8190    0.0000 </r>
       <r>   25.9818    0.0000 </r>
       <r>   27.0615    0.0000 </r>
       <r>   27.3165    0.0000 </r>
       <r>   28.1507    0.0000 </r>
       <r>   28.7021    0.0000 </r>
       <r>   29.1340    0.0000 </r>
       <r>   29.5665    0.0000 </r>
      </set>
      <set comment="kpoint 7">
       <r>  -10.0582    1.0000 </r>
       <r>   -7.9182    1.0000 </r>
       <r>   -7.9095    1.0000 </r>
       <r>   -7.7644    1.0000 </r>
       <r>   -7.7418    1.0000 </r>
       <r>   -7.3052    1.0000 </r>
       <r>   -2.8091    1.0000 </r>
       <r>   -0.1396    1.0000 </r>
       <r>    0.3985    1.0000 </r>
       <r>    5.0419    0.0000 </r>
       <r>    7.0495    0.0000 </r>
       <r>    8.3419    0.0000 </r>
       <r>    8.9430    0.0000 </r>
       <r>   11.2592    0.0000 </r>
       <r>   12.4754    0.0000 </r>
       <r>   12.8985    0.0000 </r>
       <r>   13.7155    0.0000 </r>
       <r>   14.4185    0.0000 </r>
       <r>   17.0347    0.0000 </r>
       <r>   17.7969    0.0000 </r>
       <r>   18.3695    0.0000 </r>
       <r>   19.5067    0.0000 </r>
       <r>   20.2985    0.0000 </r>
       <r>   20.8207    0.0000 </r>
       <r>   21.4605    0.0000 </r>
       <r>   22.4511    0.0000 </r>
       <r>   23.2893    0.0000 </r>
       <r>   23.8063    0.0000 </r>
       <r>   24.4692    0.0000 </r>
       <r>   25.0309    0.0000 </r>
       <r>   25.4239    0.0000 </r>
       <r>   25.8229    0.0000 </r>
       <r>   26.2069    0.0000 </r>
       <r>   28.3197    0.0000 </r>
       <r>   28.5035    0.0000 </r>
       <r>   29.2640    0.0000 </r>
      </set>
      <set comment="kpoint 8">
       <r>  -10.0840    1.0000 </r>
       <r>   -7.9221    1.0000 </r>
       <r>   -7.9194    1.0000 </r>
       <r>   -7.7543    1.0000 </r>
       <r>   -7.7527    1.0000 </r>
       <r>   -7.3880    1.0000 </r>
       <r>   -2.5403    1.0000 </r>
       <r>   -0.2775    1.0000 </r>
       <r>    0.6957    1.0000 </r>
       <r>    5.1047    0.0000 </r>
       <r>    7.2939    0.0000 </r>
       <r>    8.0507    0.0000 </r>
       <r>    8.6925    0.0000 </r>
       <r>   10.8899    0.0000 </r>
       <r>   11.6721    0.0000 </r>
       <r>   12.7856    0.0000 </r>
       <r>   13.9083    0.0000 </r>
       <r>   15.6770    0.0000 </r>
       <r>   16.8248    0.0000 </r>
       <r>   16.8615    0.0000 </r>
       <r>   18.0091    0.0000 </r>
       <r>   19.6823    0.0000 </r>
       <r>   20.6142    0.0000 </r>
       <r>   21.4164    0.0000 </r>
       <r>   21.9114    0.0000 </r>
       <r>   22.0712    0.0000 </r>
       <r>   22.6699    0.0000 </r>
       <r>   23.9814    0.0000 </r>
       <r>   24.3469    0.0000 </r>
       <r>   25.2024    0.0000 </r>
       <r>   25.3811    0.0000 </r>
       <r>   26.4116    0.0000 </r>
       <r>   27.9660    0.0000 </r>
       <r>   28.2320    0.0000 </r>
       <r>   28.6525    0.0000 </r>
       <r>   29.4312    0.0000 </r>
      </set>
      <set comment="kpoint 9">
       <r>  -10.2223    1.0000 </r>
       <r>   -7.9534    1.0000 </r>
       <r>   -7.9399    1.0000 </r>
       <r>   -7.7667    1.0000 </r>
       <r>   -7.7591    1.0000 </r>
       <r>   -7.7045    1.0000 </r>
       <r>   -1.2610    1.0000 </r>
       <r>    0.2660    1.0000 </r>
       <r>    1.1439    1.0000 </r>
       <r>    4.9081    0.0000 </r>
       <r>    7.0013    0.0000 </r>
       <r>    7.5964    0.0000 </r>
       <r>    7.8738    0.0000 </r>
       <r>   10.0983    0.0000 </r>
       <r>   11.4274    0.0000 </r>
       <r>   12.2731    0.0000 </r>
       <r>   13.2658    0.0000 </r>
       <r>   14.5849    0.0000 </r>
       <r>   16.3219    0.0000 </r>
       <r>   16.7421    0.0000 </r>
       <r>   18.6073    0.0000 </r>
       <r>   19.7003    0.0000 </r>
       <r>   19.8298    0.0000 </r>
       <r>   20.4095    0.0000 </r>
       <r>   21.5143    0.0000 </r>
       <r>   23.7513    0.0000 </r>
       <r>   24.9889    0.0000 </r>
       <r>   25.1832    0.0000 </r>
       <r>   26.1704    0.0000 </r>
       <r>   26.7636    0.0000 </r>
       <r>   26.9646    0.0000 </r>
       <r>   27.7249    0.0000 </r>
       <r>   28.4398    0.0000 </r>
       <r>   28.9681    0.0000 </r>
       <r>   29.2964    0.0000 </r>
       <r>   29.5353    0.0000 </r>
      </set>
      <set comment="kpoint 10">
       <r>  -10.0834    1.0000 </r>
       <r>   -7.8849    1.0000 </r>
       <r>   -7.8849    1.0000 </r>
       <r>   -7.8177    1.0000 </r>
       <r>   -7.7319    1.0000 </r>
       <r>   -7.4804    1.0000 </r>
       <r>   -2.0715    1.0000 </r>
       <r>   -0.0047    1.0000 </r>
       <r>   -0.0047    1.0000 </r>
       <r>    5.0452    0.0000 </r>
       <r>    5.4183    0.0000 </r>
       <r>    9.6699    0.0000 </r>
       <r>    9.9713    0.0000 </r>
       <r>    9.9713    0.0000 </r>
       <r>   12.7381    0.0000 </r>
       <r>   14.4600    0.0000 </r>
       <r>   15.5176    0.0000 </r>
       <r>   15.5176    0.0000 </r>
       <r>   15.7094    0.0000 </r>
       <r>   16.1960    0.0000 </r>
       <r>   16.1960    0.0000 </r>
       <r>   17.5762    0.0000 </r>
       <r>   17.5875    0.0000 </r>
       <r>   22.0510    0.0000 </r>
       <r>   22.4483    0.0000 </r>
       <r>   23.3302    0.0000 </r>
       <r>   23.3302    0.0000 </r>
       <r>   23.9945    0.0000 </r>
       <r>   24.5639    0.0000 </r>
       <r>   24.5639    0.0000 </r>
       <r>   25.7303    0.0000 </r>
       <r>   27.5217    0.0000 </r>
       <r>   29.2059    0.0000 </r>
       <r>   29.2059    0.0000 </r>
       <r>   29.5131    0.0000 </r>
       <r>   30.1045    0.0000 </r>
      </set>
      <set comment="kpoint 11">
       <r>  -10.0083    1.0000 </r>
       <r>   -7.8789    1.0000 </r>
       <r>   -7.8667    1.0000 </r>
       <r>   -7.8047    1.0000 </r>
       <r>   -7.7328    1.0000 </r>
       <r>   -7.2224    1.0000 </r>
       <r>   -2.7029    1.0000 </r>
       <r>   -0.6666    1.0000 </r>
       <r>   -0.1418    1.0000 </r>
       <r>    5.1110    0.0000 </r>
       <r>    6.0126    0.0000 </r>
       <r>    9.3594    0.0000 </r>
       <r>   10.1655    0.0000 </r>
       <r>   11.5542    0.0000 </r>
       <r>   13.1863    0.0000 </r>
       <r>   13.9079    0.0000 </r>
       <r>   14.6067    0.0000 </r>
       <r>   14.9439    0.0000 </r>
       <r>   16.8558    0.0000 </r>
       <r>   17.3243    0.0000 </r>
       <r>   17.7758    0.0000 </r>
       <r>   18.0672    0.0000 </r>
       <r>   18.8123    0.0000 </r>
       <r>   19.5834    0.0000 </r>
       <r>   21.2783    0.0000 </r>
       <r>   21.6287    0.0000 </r>
       <r>   21.9923    0.0000 </r>
       <r>   23.8158    0.0000 </r>
       <r>   24.9662    0.0000 </r>
       <r>   25.5396    0.0000 </r>
       <r>   25.9308    0.0000 </r>
       <r>   26.3900    0.0000 </r>
       <r>   26.4414    0.0000 </r>
       <r>   28.7229    0.0000 </r>
       <r>   29.3097    0.0000 </r>
       <r>   29.6148    0.0000 </r>
      </set>
      <set comment="kpoint 12">
       <r>  -10.0092    1.0000 </r>
       <r>   -7.8960    1.0000 </r>
       <r>   -7.8831    1.0000 </r>
       <r>   -7.7743    1.0000 </r>
       <r>   -7.7471    1.0000 </r>
       <r>   -7.1705    1.0000 </r>
       <r>   -2.7181    1.0000 </r>
       <r>   -1.1371    1.0000 </r>
       <r>    0.1701    1.0000 </r>
       <r>    5.3486    0.0000 </r>
       <r>    7.4817    0.0000 </r>
       <r>    9.2998    0.0000 </r>
       <r>    9.3098    0.0000 </r>
       <r>    9.9035    0.0000 </r>
       <r>   11.4233    0.0000 </r>
       <r>   14.6822    0.0000 </r>
       <r>   15.2023    0.0000 </r>
       <r>   16.0830    0.0000 </r>
       <r>   16.6619    0.0000 </r>
       <r>   16.8911    0.0000 </r>
       <r>   18.1454    0.0000 </r>
       <r>   19.7581    0.0000 </r>
       <r>   20.0253    0.0000 </r>
       <r>   20.2659    0.0000 </r>
       <r>   20.8627    0.0000 </r>
       <r>   21.8934    0.0000 </r>
       <r>   21.9684    0.0000 </r>
       <r>   23.2503    0.0000 </r>
       <r>   24.0227    0.0000 </r>
       <r>   24.4486    0.0000 </r>
       <r>   24.8619    0.0000 </r>
       <r>   25.3867    0.0000 </r>
       <r>   26.5574    0.0000 </r>
       <r>   29.0517    0.0000 </r>
       <r>   29.4535    0.0000 </r>
       <r>   29.6674    0.0000 </r>
      </set>
      <set comment="kpoint 13">
       <r>   -9.9837    1.0000 </r>
       <r>   -7.8472    1.0000 </r>
       <r>   -7.8472    1.0000 </r>
       <r>   -7.8320    1.0000 </r>
       <r>   -7.7255    1.0000 </r>
       <r>   -7.1681    1.0000 </r>
       <r>   -2.9228    1.0000 </r>
       <r>   -0.3788    1.0000 </r>
       <r>   -0.3788    1.0000 </r>
       <r>    4.8515    0.0000 </r>
       <r>    4.9743    0.0000 </r>
       <r>   11.2531    0.0000 </r>
       <r>   11.6752    0.0000 </r>
       <r>   11.6752    0.0000 </r>
       <r>   13.3295    0.0000 </r>
       <r>   14.0109    0.0000 </r>
       <r>   14.0109    0.0000 </r>
       <r>   14.3558    0.0000 </r>
       <r>   16.3489    0.0000 </r>
       <r>   17.8692    0.0000 </r>
       <r>   18.3113    0.0000 </r>
       <r>   18.3113    0.0000 </r>
       <r>   18.6440    0.0000 </r>
       <r>   18.8019    0.0000 </r>
       <r>   19.7717    0.0000 </r>
       <r>   19.7717    0.0000 </r>
       <r>   21.1229    0.0000 </r>
       <r>   24.8987    0.0000 </r>
       <r>   25.2271    0.0000 </r>
       <r>   25.2271    0.0000 </r>
       <r>   27.2073    0.0000 </r>
       <r>   28.4551    0.0000 </r>
       <r>   28.4551    0.0000 </r>
       <r>   28.8608    0.0000 </r>
       <r>   29.1861    0.0000 </r>
       <r>   29.3844    0.0000 </r>
      </set>
      <set comment="kpoint 14">
       <r>  -10.0583    1.0000 </r>
       <r>   -7.9044    1.0000 </r>
       <r>   -7.8959    1.0000 </r>
       <r>   -7.7838    1.0000 </r>
       <r>   -7.7406    1.0000 </r>
       <r>   -7.3562    1.0000 </r>
       <r>   -2.3747    1.0000 </r>
       <r>   -0.5766    1.0000 </r>
       <r>    0.1852    1.0000 </r>
       <r>    5.8897    0.0000 </r>
       <r>    6.4354    0.0000 </r>
       <r>    7.6456    0.0000 </r>
       <r>    9.8463    0.0000 </r>
       <r>   10.6067    0.0000 </r>
       <r>   12.7457    0.0000 </r>
       <r>   13.9257    0.0000 </r>
       <r>   14.0530    0.0000 </r>
       <r>   14.7228    0.0000 </r>
       <r>   16.4321    0.0000 </r>
       <r>   17.4308    0.0000 </r>
       <r>   17.8704    0.0000 </r>
       <r>   18.8302    0.0000 </r>
       <r>   20.3857    0.0000 </r>
       <r>   20.9105    0.0000 </r>
       <r>   20.9921    0.0000 </r>
       <r>   22.0607    0.0000 </r>
       <r>   22.3937    0.0000 </r>
       <r>   23.5522    0.0000 </r>
       <r>   24.8850    0.0000 </r>
       <r>   25.3411    0.0000 </r>
       <r>   25.8755    0.0000 </r>
       <r>   26.7821    0.0000 </r>
       <r>   27.2728    0.0000 </r>
       <r>   28.1456    0.0000 </r>
       <r>   28.7736    0.0000 </r>
       <r>   29.2582    0.0000 </r>
      </set>
      <set comment="kpoint 15">
       <r>  -10.0092    1.0000 </r>
       <r>   -7.8965    1.0000 </r>
       <r>   -7.8835    1.0000 </r>
       <r>   -7.7723    1.0000 </r>
       <r>   -7.7482    1.0000 </r>
       <r>   -7.1701    1.0000 </r>
       <r>   -2.7569    1.0000 </r>
       <r>   -0.9046    1.0000 </r>
       <r>   -0.0995    1.0000 </r>
       <r>    6.0241    0.0000 </r>
       <r>    6.9343    0.0000 </r>
       <r>    8.1368    0.0000 </r>
       <r>    9.6720    0.0000 </r>
       <r>   10.3848    0.0000 </r>
       <r>   12.9387    0.0000 </r>
       <r>   13.6829    0.0000 </r>
       <r>   14.1314    0.0000 </r>
       <r>   16.4351    0.0000 </r>
       <r>   16.9326    0.0000 </r>
       <r>   17.1347    0.0000 </r>
       <r>   18.1169    0.0000 </r>
       <r>   19.0427    0.0000 </r>
       <r>   20.1562    0.0000 </r>
       <r>   20.7579    0.0000 </r>
       <r>   21.4703    0.0000 </r>
       <r>   21.9093    0.0000 </r>
       <r>   22.2004    0.0000 </r>
       <r>   22.6572    0.0000 </r>
       <r>   23.0155    0.0000 </r>
       <r>   25.0995    0.0000 </r>
       <r>   25.8259    0.0000 </r>
       <r>   26.0362    0.0000 </r>
       <r>   26.7368    0.0000 </r>
       <r>   27.1171    0.0000 </r>
       <r>   27.6097    0.0000 </r>
       <r>   29.3238    0.0000 </r>
      </set>
      <set comment="kpoint 16">
       <r>   -9.9851    1.0000 </r>
       <r>   -7.8741    1.0000 </r>
       <r>   -7.8677    1.0000 </r>
       <r>   -7.7924    1.0000 </r>
       <r>   -7.7400    1.0000 </r>
       <r>   -7.1158    1.0000 </r>
       <r>   -2.8084    1.0000 </r>
       <r>   -0.7453    1.0000 </r>
       <r>   -0.6122    1.0000 </r>
       <r>    6.0494    0.0000 </r>
       <r>    6.0539    0.0000 </r>
       <r>    9.0726    0.0000 </r>
       <r>    9.3681    0.0000 </r>
       <r>   12.0978    0.0000 </r>
       <r>   13.5733    0.0000 </r>
       <r>   13.8186    0.0000 </r>
       <r>   13.8850    0.0000 </r>
       <r>   16.3403    0.0000 </r>
       <r>   17.2860    0.0000 </r>
       <r>   17.7155    0.0000 </r>
       <r>   17.7574    0.0000 </r>
       <r>   17.8898    0.0000 </r>
       <r>   18.0977    0.0000 </r>
       <r>   20.8793    0.0000 </r>
       <r>   20.9245    0.0000 </r>
       <r>   21.9170    0.0000 </r>
       <r>   22.2935    0.0000 </r>
       <r>   22.5686    0.0000 </r>
       <r>   23.1505    0.0000 </r>
       <r>   24.8352    0.0000 </r>
       <r>   25.4480    0.0000 </r>
       <r>   26.0143    0.0000 </r>
       <r>   27.1632    0.0000 </r>
       <r>   28.7870    0.0000 </r>
       <r>   29.0132    0.0000 </r>
       <r>   29.3340    0.0000 </r>
      </set>
     </set>
    </set>
   </array>
  </eigenvalues>
  <separator name="orbital magnetization" >
   <v name="MAGDIPOLOUT">      0.00000000      0.00000000      0.00000000</v>
  </separator>
  <dielectricfunction comment="density-density">
   <imag>
    <array>
     <dimension dim="1">gridpoints</dimension>
     <field>energy</field>
     <field>xx</field>
     <field>yy</field>
     <field>zz</field>
     <field>xy</field>
     <field>yz</field>
     <field>zx</field>
     <set>
      <r>     0.0000     0.0000     0.0000     0.0000     0.0000     0.0000     0.0000 </r>
      <r>     0.0297     0.0000     0.0000     0.0000     0.0000     0.0000     0.0000 </r>
      <r>     0.0593     0.0000     0.0000     0.0000     0.0000     0.0000     0.0000 </r>
      <r>     0.0890     0.0000     0.0000     0.0000     0.0000     0.0000     0.0000 </r>
      <r>     0.1187     0.0000     0.0000     0.0000     0.0000     0.0000     0.0000 </r>
      <r>     0.1483     0.0000     0.0000     0.0000     0.0000     0.0000     0.0000 </r>
      <r>     0.1780     0.0000     0.0000     0.0000     0.0000     0.0000     0.0000 </r>
      <r>     0.2077     0.0000     0.0000     0.0000     0.0000     0.0000     0.0000 </r>
      <r>     0.2373     0.0000     0.0000     0.0000     0.0000     0.0000     0.0000 </r>
      <r>     0.2670     0.0000     0.0000     0.0000     0.0000     0.0000     0.0000 </r>
      <r>     0.2967     0.0000     0.0000     0.0000     0.0000     0.0000     0.0000 </r>
      <r>     0.3263     0.0000     0.0000     0.0000     0.0000     0.0000     0.0000 </r>
      <r>     0.3560     0.0000     0.0000     0.0000     0.0000     0.0000     0.0000 </r>
      <r>     0.3857     0.0000     0.0000     0.0000     0.0000     0.0000     0.0000 </r>
      <r>     0.4153     0.0000     0.0000     0.0000     0.0000     0.0000     0.0000 </r>
      <r>     0.4450     0.0000     0.0000     0.0000     0.0000     0.0000     0.0000 </r>
      <r>     0.4747     0.0000     0.0000     0.0000     0.0000     0.0000     0.0000 </r>
      <r>     0.5043     0.0000     0.0000     0.0000     0.0000     0.0000     0.0000 </r>
      <r>     0.5340     0.0000     0.0000     0.0000     0.0000     0.0000     0.0000 </r>
      <r>     0.5637     0.0000     0.0000     0.0000     0.0000     0.0000     0.0000 </r>
      <r>     0.5933     0.0000     0.0000     0.0000     0.0000     0.0000     0.0000 </r>
      <r>     0.6230     0.0000     0.0000     0.0000     0.0000     0.0000     0.0000 </r>
      <r>     0.6527     0.0000     0.0000     0.0000     0.0000     0.0000     0.0000 </r>
      <r>     0.6823     0.0000     0.0000     0.0000     0.0000     0.0000     0.0000 </r>
      <r>     0.7120     0.0000     0.0000     0.0000     0.0000     0.0000     0.0000 </r>
      <r>     0.7417     0.0000     0.0000     0.0000     0.0000     0.0000     0.0000 </r>
      <r>     0.7713     0.0000     0.0000     0.0000     0.0000     0.0000     0.0000 </r>
      <r>     0.8010     0.0000     0.0000     0.0000     0.0000     0.0000     0.0000 </r>
      <r>     0.8307     0.0000     0.0000     0.0000     0.0000     0.0000     0.0000 </r>
      <r>     0.8603     0.0000     0.0000     0.0000     0.0000     0.0000     0.0000 </r>
      <r>     0.8900     0.0000     0.0000     0.0000     0.0000     0.0000     0.0000 </r>
      <r>     0.9197     0.0000     0.0000     0.0000     0.0000     0.0000     0.0000 </r>
      <r>     0.9493     0.0000     0.0000     0.0000     0.0000     0.0000     0.0000 </r>
      <r>     0.9790     0.0000     0.0000     0.0000     0.0000     0.0000     0.0000 </r>
      <r>     1.0087     0.0000     0.0000     0.0000     0.0000     0.0000     0.0000 </r>
      <r>     1.0383     0.0000     0.0000     0.0000     0.0000     0.0000     0.0000 </r>
      <r>     1.0680     0.0000     0.0000     0.0000     0.0000     0.0000     0.0000 </r>
      <r>     1.0977     0.0000     0.0000     0.0000     0.0000     0.0000     0.0000 </r>
      <r>     1.1273     0.0000     0.0000     0.0000     0.0000     0.0000     0.0000 </r>
      <r>     1.1570     0.0000     0.0000     0.0000     0.0000     0.0000     0.0000 </r>
      <r>     1.1867     0.0000     0.0000     0.0000     0.0000     0.0000     0.0000 </r>
      <r>     1.2163     0.0000     0.0000     0.0000     0.0000     0.0000     0.0000 </r>
      <r>     1.2460     0.0000     0.0000     0.0000     0.0000     0.0000     0.0000 </r>
      <r>     1.2757     0.0000     0.0000     0.0000     0.0000     0.0000     0.0000 </r>
      <r>     1.3053     0.0000     0.0000     0.0000     0.0000     0.0000     0.0000 </r>
      <r>     1.3350     0.0000     0.0000     0.0000     0.0000     0.0000     0.0000 </r>
      <r>     1.3647     0.0000     0.0000     0.0000     0.0000     0.0000     0.0000 </r>
      <r>     1.3943     0.0000     0.0000     0.0000     0.0000     0.0000     0.0000 </r>
      <r>     1.4240     0.0000     0.0000     0.0000     0.0000     0.0000     0.0000 </r>
      <r>     1.4537     0.0005     0.0005     0.0005    -0.0000    -0.0000    -0.0000 </r>
      <r>     1.4833     0.0036     0.0036     0.0036    -0.0000    -0.0000    -0.0000 </r>
      <r>     1.5130     0.0097     0.0097     0.0097    -0.0000    -0.0000    -0.0000 </r>
      <r>     1.5427     0.0187     0.0187     0.0187    -0.0000    -0.0000    -0.0000 </r>
      <r>     1.5723     0.0305     0.0305     0.0305    -0.0000    -0.0000    -0.0000 </r>
      <r>     1.6020     0.0453     0.0453     0.0453    -0.0000    -0.0000    -0.0000 </r>
      <r>     1.6317     0.0631     0.0631     0.0631    -0.0000    -0.0000    -0.0000 </r>
      <r>     1.6613     0.0837     0.0837     0.0837    -0.0000    -0.0000    -0.0000 </r>
      <r>     1.6910     0.1072     0.1072     0.1072    -0.0000    -0.0000    -0.0000 </r>
      <r>     1.7207     0.1337     0.1337     0.1337    -0.0000    -0.0000    -0.0000 </r>
      <r>     1.7503     0.1630     0.1630     0.1630    -0.0000    -0.0000    -0.0000 </r>
      <r>     1.7800     0.1953     0.1953     0.1953    -0.0000    -0.0000    -0.0000 </r>
      <r>     1.8097     0.2305     0.2305     0.2305    -0.0000    -0.0000    -0.0000 </r>
      <r>     1.8393     0.2686     0.2686     0.2686    -0.0000    -0.0000    -0.0000 </r>
      <r>     1.8690     0.3096     0.3096     0.3096    -0.0000    -0.0000    -0.0000 </r>
      <r>     1.8987     0.3535     0.3535     0.3535    -0.0000    -0.0000    -0.0000 </r>
      <r>     1.9283     0.4003     0.4003     0.4003    -0.0000    -0.0000    -0.0000 </r>
      <r>     1.9580     0.4501     0.4501     0.4501    -0.0000    -0.0000    -0.0000 </r>
      <r>     1.9877     0.5027     0.5027     0.5027    -0.0000    -0.0000    -0.0000 </r>
      <r>     2.0173     0.5583     0.5583     0.5583    -0.0000    -0.0000    -0.0000 </r>
      <r>     2.0470     0.6168     0.6168     0.6168    -0.0000    -0.0000    -0.0000 </r>
      <r>     2.0766     0.6782     0.6782     0.6782    -0.0000    -0.0000    -0.0000 </r>
      <r>     2.1063     0.7425     0.7425     0.7425    -0.0000    -0.0000    -0.0000 </r>
      <r>     2.1360     0.8097     0.8097     0.8097    -0.0000    -0.0000    -0.0000 </r>
      <r>     2.1656     0.8798     0.8798     0.8798    -0.0000    -0.0000    -0.0000 </r>
      <r>     2.1953     0.9529     0.9529     0.9529    -0.0000    -0.0000    -0.0000 </r>
      <r>     2.2250     1.0288     1.0288     1.0288    -0.0000    -0.0000    -0.0000 </r>
      <r>     2.2546     1.1077     1.1077     1.1077    -0.0000    -0.0000    -0.0000 </r>
      <r>     2.2843     1.1895     1.1895     1.1895    -0.0000    -0.0000    -0.0000 </r>
      <r>     2.3140     1.2742     1.2742     1.2742    -0.0000    -0.0000    -0.0000 </r>
      <r>     2.3436     1.3618     1.3618     1.3618    -0.0000    -0.0000    -0.0000 </r>
      <r>     2.3733     1.4523     1.4523     1.4523    -0.0000    -0.0000    -0.0000 </r>
      <r>     2.4030     1.5457     1.5457     1.5457    -0.0000    -0.0000    -0.0000 </r>
      <r>     2.4326     1.6421     1.6421     1.6421    -0.0000    -0.0000    -0.0000 </r>
      <r>     2.4623     1.7413     1.7413     1.7414    -0.0000    -0.0000    -0.0000 </r>
      <r>     2.4920     1.8435     1.8435     1.8435    -0.0000    -0.0000    -0.0000 </r>
      <r>     2.5216     1.9486     1.9486     1.9486    -0.0000    -0.0000    -0.0000 </r>
      <r>     2.5513     2.0566     2.0566     2.0566    -0.0000    -0.0000    -0.0000 </r>
      <r>     2.5810     2.1675     2.1675     2.1675    -0.0000    -0.0000    -0.0000 </r>
      <r>     2.6106     2.2813     2.2813     2.2813    -0.0000    -0.0000    -0.0000 </r>
      <r>     2.6403     2.3981     2.3981     2.3981    -0.0000    -0.0000    -0.0000 </r>
      <r>     2.6700     2.5177     2.5177     2.5177    -0.0000    -0.0000    -0.0000 </r>
      <r>     2.6996     2.6403     2.6403     2.6403    -0.0000    -0.0000    -0.0000 </r>
      <r>     2.7293     2.7657     2.7657     2.7657    -0.0000    -0.0000    -0.0000 </r>
      <r>     2.7590     2.8941     2.8941     2.8941    -0.0000    -0.0000    -0.0000 </r>
      <r>     2.7886     2.8790     2.8790     2.8790    -0.0000    -0.0000    -0.0000 </r>
      <r>     2.8183     2.8673     2.8673     2.8673    -0.0000    -0.0000    -0.0000 </r>
      <r>     2.8480     2.8639     2.8639     2.8639    -0.0000    -0.0000    -0.0000 </r>
      <r>     2.8776     2.8687     2.8687     2.8687    -0.0000    -0.0000    -0.0000 </r>
      <r>     2.9073     2.8818     2.8818     2.8818    -0.0000    -0.0000    -0.0000 </r>
      <r>     2.9370     2.9032     2.9032     2.9032    -0.0000    -0.0000    -0.0000 </r>
      <r>     2.9666     2.9329     2.9329     2.9329    -0.0000    -0.0000    -0.0000 </r>
      <r>     2.9963     2.9708     2.9708     2.9708    -0.0000    -0.0000    -0.0000 </r>
      <r>     3.0260     3.0170     3.0170     3.0170    -0.0000    -0.0000    -0.0000 </r>
      <r>     3.0556     3.0715     3.0715     3.0715    -0.0000    -0.0000    -0.0000 </r>
      <r>     3.0853     3.1342     3.1342     3.1342    -0.0000    -0.0000    -0.0000 </r>
      <r>     3.1150     3.2052     3.2052     3.2052    -0.0000    -0.0000    -0.0000 </r>
      <r>     3.1446     3.2845     3.2845     3.2845    -0.0000    -0.0000    -0.0000 </r>
      <r>     3.1743     3.3721     3.3721     3.3721    -0.0000    -0.0000    -0.0000 </r>
      <r>     3.2040     3.4679     3.4679     3.4679    -0.0000    -0.0000    -0.0000 </r>
      <r>     3.2336     3.5720     3.5720     3.5720    -0.0000    -0.0000    -0.0000 </r>
      <r>     3.2633     3.6844     3.6844     3.6844    -0.0000    -0.0000    -0.0000 </r>
      <r>     3.2930     3.8050     3.8050     3.8050    -0.0000    -0.0000    -0.0000 </r>
      <r>     3.3226     3.9577     3.9577     3.9577    -0.0000    -0.0000    -0.0000 </r>
      <r>     3.3523     4.1804     4.1804     4.1804    -0.0000    -0.0000    -0.0000 </r>
      <r>     3.3820     4.4460     4.4460     4.4460    -0.0000    -0.0000    -0.0000 </r>
      <r>     3.4116     4.7064     4.7064     4.7064    -0.0000    -0.0000    -0.0000 </r>
      <r>     3.4413     4.9606     4.9606     4.9606    -0.0000    -0.0000    -0.0000 </r>
      <r>     3.4710     5.2085     5.2085     5.2085    -0.0000    -0.0000    -0.0000 </r>
      <r>     3.5006     5.4502     5.4502     5.4502    -0.0000    -0.0000    -0.0000 </r>
      <r>     3.5303     5.6857     5.6857     5.6857    -0.0000    -0.0000    -0.0000 </r>
      <r>     3.5600     5.9150     5.9150     5.9150    -0.0000    -0.0000    -0.0000 </r>
      <r>     3.5896     6.1380     6.1380     6.1380    -0.0000    -0.0000    -0.0000 </r>
      <r>     3.6193     6.3549     6.3549     6.3549    -0.0000    -0.0000    -0.0000 </r>
      <r>     3.6490     6.5655     6.5655     6.5655    -0.0000    -0.0000    -0.0000 </r>
      <r>     3.6786     6.7699     6.7699     6.7699    -0.0000    -0.0000    -0.0000 </r>
      <r>     3.7083     6.9680     6.9680     6.9680    -0.0000    -0.0000    -0.0000 </r>
      <r>     3.7380     7.1600     7.1600     7.1600    -0.0000    -0.0000    -0.0000 </r>
      <r>     3.7676     7.3445     7.3445     7.3445    -0.0000    -0.0000    -0.0000 </r>
      <r>     3.7973     7.5200     7.5200     7.5200    -0.0000    -0.0000    -0.0000 </r>
      <r>     3.8270     7.6895     7.6895     7.6895    -0.0000    -0.0000    -0.0000 </r>
      <r>     3.8566     7.8531     7.8531     7.8531    -0.0000    -0.0000    -0.0000 </r>
      <r>     3.8863     8.0107     8.0107     8.0107    -0.0000    -0.0000    -0.0000 </r>
      <r>     3.9160     8.1624     8.1624     8.1624    -0.0000    -0.0000    -0.0000 </r>
      <r>     3.9456     8.3080     8.3080     8.3080    -0.0000    -0.0000    -0.0000 </r>
      <r>     3.9753     8.4477     8.4477     8.4477    -0.0000    -0.0000    -0.0000 </r>
      <r>     4.0050     8.5815     8.5815     8.5815    -0.0000    -0.0000    -0.0000 </r>
      <r>     4.0346     8.7093     8.7093     8.7093    -0.0000    -0.0000    -0.0000 </r>
      <r>     4.0643     8.8311     8.8311     8.8311    -0.0000    -0.0000    -0.0000 </r>
      <r>     4.0940     8.9470     8.9470     8.9470    -0.0000    -0.0000    -0.0000 </r>
      <r>     4.1236     9.0569     9.0569     9.0569    -0.0000    -0.0000    -0.0000 </r>
      <r>     4.1533     9.1608     9.1608     9.1608    -0.0000    -0.0000    -0.0000 </r>
      <r>     4.1830     9.2588     9.2588     9.2588    -0.0000    -0.0000    -0.0000 </r>
      <r>     4.2126     9.3508     9.3508     9.3508    -0.0000    -0.0000    -0.0000 </r>
      <r>     4.2423     9.4368     9.4368     9.4368    -0.0000    -0.0000    -0.0000 </r>
      <r>     4.2720     9.4575     9.4575     9.4575    -0.0000    -0.0000    -0.0000 </r>
      <r>     4.3016     9.4686     9.4686     9.4686    -0.0000    -0.0000    -0.0000 </r>
      <r>     4.3313     9.4762     9.4762     9.4762    -0.0000    -0.0000    -0.0000 </r>
      <r>     4.3610     9.4803     9.4803     9.4803    -0.0000    -0.0000    -0.0000 </r>
      <r>     4.3906     9.4808     9.4808     9.4808    -0.0000    -0.0000    -0.0000 </r>
      <r>     4.4203     9.4695     9.4695     9.4695    -0.0000    -0.0000    -0.0000 </r>
      <r>     4.4500     9.4212     9.4212     9.4212    -0.0000    -0.0000    -0.0000 </r>
      <r>     4.4796     9.3406     9.3406     9.3406    -0.0000    -0.0000    -0.0000 </r>
      <r>     4.5093     9.2278     9.2278     9.2278    -0.0000    -0.0000    -0.0000 </r>
      <r>     4.5390     9.0826     9.0826     9.0826    -0.0000    -0.0000    -0.0000 </r>
      <r>     4.5686     8.9051     8.9051     8.9051    -0.0000    -0.0000    -0.0000 </r>
      <r>     4.5983     8.6954     8.6954     8.6954    -0.0000    -0.0000    -0.0000 </r>
      <r>     4.6280     8.4533     8.4533     8.4533    -0.0000    -0.0000    -0.0000 </r>
      <r>     4.6576     8.3738     8.3738     8.3738    -0.0000    -0.0000    -0.0000 </r>
      <r>     4.6873     8.4412     8.4412     8.4412    -0.0000    -0.0000    -0.0000 </r>
      <r>     4.7170     8.4740     8.4740     8.4740    -0.0000    -0.0000    -0.0000 </r>
      <r>     4.7466     8.5160     8.5160     8.5160    -0.0000    -0.0000    -0.0000 </r>
      <r>     4.7763     8.5969     8.5969     8.5969    -0.0000    -0.0000    -0.0000 </r>
      <r>     4.8060     8.6803     8.6803     8.6803    -0.0000    -0.0000    -0.0000 </r>
      <r>     4.8356     8.7662     8.7662     8.7662    -0.0000    -0.0000    -0.0000 </r>
      <r>     4.8653     8.8544     8.8544     8.8544    -0.0000    -0.0000    -0.0000 </r>
      <r>     4.8950     8.9444     8.9444     8.9444    -0.0000    -0.0000    -0.0000 </r>
      <r>     4.9246     9.0342     9.0342     9.0342    -0.0000    -0.0000    -0.0000 </r>
      <r>     4.9543     9.1239     9.1239     9.1239    -0.0000    -0.0000    -0.0000 </r>
      <r>     4.9840     9.2135     9.2135     9.2135    -0.0000    -0.0000    -0.0000 </r>
      <r>     5.0136     9.3030     9.3030     9.3030    -0.0000    -0.0000    -0.0000 </r>
      <r>     5.0433     9.3923     9.3923     9.3923    -0.0000    -0.0000    -0.0000 </r>
      <r>     5.0730     9.5523     9.5523     9.5523    -0.0000    -0.0000    -0.0000 </r>
      <r>     5.1026     9.9406     9.9406     9.9406    -0.0000    -0.0000    -0.0000 </r>
      <r>     5.1323    10.5632    10.5632    10.5632    -0.0000    -0.0000    -0.0000 </r>
      <r>     5.1620    11.4201    11.4201    11.4201    -0.0000    -0.0000    -0.0000 </r>
      <r>     5.1916    12.4959    12.4959    12.4959    -0.0000    -0.0000    -0.0000 </r>
      <r>     5.2213    13.8914    13.8914    13.8914    -0.0000    -0.0000    -0.0000 </r>
      <r>     5.2510    12.2824    12.2824    12.2824    -0.0000    -0.0000    -0.0000 </r>
      <r>     5.2806    11.2837    11.2837    11.2837    -0.0000    -0.0000    -0.0000 </r>
      <r>     5.3103    10.8400    10.8400    10.8400    -0.0000    -0.0000    -0.0000 </r>
      <r>     5.3400    10.4720    10.4720    10.4720    -0.0000    -0.0000    -0.0000 </r>
      <r>     5.3696    10.1827    10.1827    10.1827    -0.0000    -0.0000    -0.0000 </r>
      <r>     5.3993     9.9793     9.9793     9.9793    -0.0000    -0.0000    -0.0000 </r>
      <r>     5.4290     9.8427     9.8427     9.8427    -0.0000    -0.0000    -0.0000 </r>
      <r>     5.4586     9.7492     9.7492     9.7492    -0.0000    -0.0000    -0.0000 </r>
      <r>     5.4883     9.6876     9.6876     9.6876    -0.0000    -0.0000    -0.0000 </r>
      <r>     5.5180     9.6567     9.6567     9.6567    -0.0000    -0.0000    -0.0000 </r>
      <r>     5.5476     9.6275     9.6275     9.6275    -0.0000    -0.0000    -0.0000 </r>
      <r>     5.5773     9.5875     9.5875     9.5875    -0.0000    -0.0000    -0.0000 </r>
      <r>     5.6070     9.5367     9.5367     9.5367    -0.0000    -0.0000    -0.0000 </r>
      <r>     5.6366     9.4753     9.4753     9.4753    -0.0000    -0.0000    -0.0000 </r>
      <r>     5.6663     9.4031     9.4031     9.4031    -0.0000    -0.0000    -0.0000 </r>
      <r>     5.6960     9.3201     9.3201     9.3201    -0.0000    -0.0000    -0.0000 </r>
      <r>     5.7256     9.2214     9.2214     9.2214    -0.0000    -0.0000    -0.0000 </r>
      <r>     5.7553     9.0929     9.0929     9.0929    -0.0000    -0.0000    -0.0000 </r>
      <r>     5.7850     8.9322     8.9322     8.9322    -0.0000    -0.0000    -0.0000 </r>
      <r>     5.8146     8.6792     8.6792     8.6792    -0.0000    -0.0000    -0.0000 </r>
      <r>     5.8443     8.4193     8.4194     8.4194    -0.0000    -0.0000    -0.0000 </r>
      <r>     5.8740     8.2321     8.2321     8.2321    -0.0000    -0.0000    -0.0000 </r>
      <r>     5.9036     8.1917     8.1918     8.1918    -0.0000    -0.0000    -0.0000 </r>
      <r>     5.9333     8.1027     8.1027     8.1027    -0.0000    -0.0000    -0.0000 </r>
      <r>     5.9630     8.0150     8.0150     8.0150    -0.0000    -0.0000    -0.0000 </r>
      <r>     5.9926     7.9341     7.9341     7.9341    -0.0000    -0.0000    -0.0000 </r>
      <r>     6.0223     7.8643     7.8643     7.8643    -0.0000    -0.0000    -0.0000 </r>
      <r>     6.0519     7.8025     7.8025     7.8025    -0.0000    -0.0000    -0.0000 </r>
      <r>     6.0816     7.7458     7.7458     7.7458    -0.0000    -0.0000    -0.0000 </r>
      <r>     6.1113     7.6712     7.6712     7.6712    -0.0000    -0.0000    -0.0000 </r>
      <r>     6.1409     7.5962     7.5962     7.5962    -0.0000    -0.0000    -0.0000 </r>
      <r>     6.1706     7.5072     7.5072     7.5072    -0.0000    -0.0000    -0.0000 </r>
      <r>     6.2003     7.4227     7.4227     7.4227    -0.0000    -0.0000    -0.0000 </r>
      <r>     6.2299     7.3595     7.3595     7.3595    -0.0000    -0.0000    -0.0000 </r>
      <r>     6.2596     7.3168     7.3168     7.3168    -0.0000    -0.0000    -0.0000 </r>
      <r>     6.2893     7.2824     7.2824     7.2824    -0.0000    -0.0000    -0.0000 </r>
      <r>     6.3189     7.2524     7.2524     7.2524    -0.0000    -0.0000    -0.0000 </r>
      <r>     6.3486     7.2270     7.2270     7.2270    -0.0000    -0.0000    -0.0000 </r>
      <r>     6.3783     7.2058     7.2058     7.2058    -0.0000    -0.0000    -0.0000 </r>
      <r>     6.4079     7.1890     7.1890     7.1890    -0.0000    -0.0000    -0.0000 </r>
      <r>     6.4376     7.1764     7.1764     7.1764    -0.0000    -0.0000    -0.0000 </r>
      <r>     6.4673     7.1681     7.1681     7.1681    -0.0000    -0.0000    -0.0000 </r>
      <r>     6.4969     7.1666     7.1666     7.1666    -0.0000    -0.0000    -0.0000 </r>
      <r>     6.5266     7.1698     7.1698     7.1698    -0.0000    -0.0000    -0.0000 </r>
      <r>     6.5563     7.1765     7.1765     7.1765    -0.0000    -0.0000    -0.0000 </r>
      <r>     6.5859     7.1868     7.1868     7.1868    -0.0000    -0.0000    -0.0000 </r>
      <r>     6.6156     7.5798     7.5798     7.5798    -0.0000    -0.0000    -0.0000 </r>
      <r>     6.6453     9.9849     9.9849     9.9849    -0.0000    -0.0000    -0.0000 </r>
      <r>     6.6749    10.6259    10.6259    10.6259    -0.0000    -0.0000    -0.0000 </r>
      <r>     6.7046    10.3985    10.3985    10.3985    -0.0000    -0.0000    -0.0000 </r>
      <r>     6.7343     9.7140     9.7140     9.7140    -0.0000    -0.0000    -0.0000 </r>
      <r>     6.7639     8.8231     8.8231     8.8231    -0.0000    -0.0000    -0.0000 </r>
      <r>     6.7936     8.1201     8.1201     8.1201    -0.0000    -0.0000    -0.0000 </r>
      <r>     6.8233     7.9785     7.9785     7.9785    -0.0000    -0.0000    -0.0000 </r>
      <r>     6.8529     7.8867     7.8867     7.8867    -0.0000    -0.0000    -0.0000 </r>
      <r>     6.8826     7.7000     7.7000     7.7000    -0.0000    -0.0000    -0.0000 </r>
      <r>     6.9123     7.2553     7.2553     7.2553    -0.0000    -0.0000    -0.0000 </r>
      <r>     6.9419     6.8860     6.8860     6.8860    -0.0000    -0.0000    -0.0000 </r>
      <r>     6.9716     6.8544     6.8544     6.8544    -0.0000    -0.0000    -0.0000 </r>
      <r>     7.0013     6.8196     6.8196     6.8196    -0.0000    -0.0000    -0.0000 </r>
      <r>     7.0309     6.7781     6.7781     6.7781    -0.0000    -0.0000    -0.0000 </r>
      <r>     7.0606     6.7324     6.7324     6.7324    -0.0000    -0.0000    -0.0000 </r>
      <r>     7.0903     6.6983     6.6983     6.6983    -0.0000    -0.0000    -0.0000 </r>
      <r>     7.1199     6.6754     6.6754     6.6754    -0.0000    -0.0000    -0.0000 </r>
      <r>     7.1496     6.6638     6.6638     6.6638    -0.0000    -0.0000    -0.0000 </r>
      <r>     7.1793     6.6637     6.6637     6.6637    -0.0000    -0.0000    -0.0000 </r>
      <r>     7.2089     6.5730     6.5730     6.5730    -0.0000    -0.0000    -0.0000 </r>
      <r>     7.2386     6.4492     6.4492     6.4492    -0.0000    -0.0000    -0.0000 </r>
      <r>     7.2683     6.3449     6.3449     6.3449    -0.0000    -0.0000    -0.0000 </r>
      <r>     7.2979     6.2569     6.2570     6.2570    -0.0000    -0.0000    -0.0000 </r>
      <r>     7.3276     6.1845     6.1845     6.1845    -0.0000    -0.0000    -0.0000 </r>
      <r>     7.3573     6.1048     6.1048     6.1048    -0.0000    -0.0000    -0.0000 </r>
      <r>     7.3869     5.9572     5.9572     5.9572    -0.0000    -0.0000    -0.0000 </r>
      <r>     7.4166     5.8559     5.8559     5.8559    -0.0000    -0.0000    -0.0000 </r>
      <r>     7.4463     5.8009     5.8009     5.8009    -0.0000    -0.0000    -0.0000 </r>
      <r>     7.4759     5.7794     5.7794     5.7794    -0.0000    -0.0000    -0.0000 </r>
      <r>     7.5056     5.7213     5.7213     5.7213    -0.0000    -0.0000    -0.0000 </r>
      <r>     7.5353     5.6164     5.6164     5.6164    -0.0000    -0.0000    -0.0000 </r>
      <r>     7.5649     5.4640     5.4640     5.4640    -0.0000    -0.0000    -0.0000 </r>
      <r>     7.5946     5.2849     5.2849     5.2849    -0.0000    -0.0000    -0.0000 </r>
      <r>     7.6243     5.1451     5.1451     5.1451    -0.0000    -0.0000    -0.0000 </r>
      <r>     7.6539     5.0119     5.0119     5.0119    -0.0000    -0.0000    -0.0000 </r>
      <r>     7.6836     4.8848     4.8848     4.8848    -0.0000    -0.0000    -0.0000 </r>
      <r>     7.7133     4.7578     4.7578     4.7578    -0.0000    -0.0000    -0.0000 </r>
      <r>     7.7429     4.6373     4.6373     4.6373    -0.0000    -0.0000    -0.0000 </r>
      <r>     7.7726     4.5242     4.5242     4.5242    -0.0000    -0.0000    -0.0000 </r>
      <r>     7.8023     4.4348     4.4348     4.4348    -0.0000    -0.0000    -0.0000 </r>
      <r>     7.8319     4.3500     4.3500     4.3500    -0.0000    -0.0000    -0.0000 </r>
      <r>     7.8616     4.2618     4.2618     4.2618    -0.0000    -0.0000    -0.0000 </r>
      <r>     7.8913     4.1827     4.1827     4.1827    -0.0000    -0.0000    -0.0000 </r>
      <r>     7.9209     4.1048     4.1048     4.1048    -0.0000    -0.0000    -0.0000 </r>
      <r>     7.9506     4.0095     4.0095     4.0095    -0.0000    -0.0000    -0.0000 </r>
      <r>     7.9803     3.8609     3.8609     3.8609    -0.0000    -0.0000    -0.0000 </r>
      <r>     8.0099     3.7173     3.7173     3.7173    -0.0000    -0.0000    -0.0000 </r>
      <r>     8.0396     3.5800     3.5800     3.5800    -0.0000    -0.0000    -0.0000 </r>
      <r>     8.0693     3.4537     3.4537     3.4537    -0.0000    -0.0000    -0.0000 </r>
      <r>     8.0989     3.3438     3.3438     3.3438    -0.0000    -0.0000    -0.0000 </r>
      <r>     8.1286     3.2440     3.2440     3.2440    -0.0000    -0.0000    -0.0000 </r>
      <r>     8.1583     3.1573     3.1573     3.1573    -0.0000    -0.0000    -0.0000 </r>
      <r>     8.1879     3.0829     3.0829     3.0829    -0.0000    -0.0000    -0.0000 </r>
      <r>     8.2176     3.0177     3.0177     3.0177    -0.0000    -0.0000    -0.0000 </r>
      <r>     8.2473     2.9509     2.9509     2.9509    -0.0000    -0.0000    -0.0000 </r>
      <r>     8.2769     2.8616     2.8616     2.8616    -0.0000    -0.0000    -0.0000 </r>
      <r>     8.3066     2.7560     2.7560     2.7560    -0.0000    -0.0000    -0.0000 </r>
      <r>     8.3363     2.6488     2.6488     2.6488    -0.0000    -0.0000    -0.0000 </r>
      <r>     8.3659     2.5842     2.5842     2.5842    -0.0000    -0.0000    -0.0000 </r>
      <r>     8.3956     2.5355     2.5355     2.5355    -0.0000    -0.0000    -0.0000 </r>
      <r>     8.4253     2.5027     2.5027     2.5027    -0.0000    -0.0000    -0.0000 </r>
      <r>     8.4549     2.4858     2.4858     2.4858    -0.0000    -0.0000    -0.0000 </r>
      <r>     8.4846     2.4765     2.4765     2.4765    -0.0000    -0.0000    -0.0000 </r>
      <r>     8.5143     2.3996     2.3996     2.3996    -0.0000    -0.0000    -0.0000 </r>
      <r>     8.5439     2.3295     2.3295     2.3295    -0.0000    -0.0000    -0.0000 </r>
      <r>     8.5736     2.2539     2.2539     2.2539    -0.0000    -0.0000    -0.0000 </r>
      <r>     8.6033     2.1858     2.1858     2.1858    -0.0000    -0.0000    -0.0000 </r>
      <r>     8.6329     2.1252     2.1252     2.1252    -0.0000    -0.0000    -0.0000 </r>
      <r>     8.6626     2.0703     2.0703     2.0703    -0.0000    -0.0000    -0.0000 </r>
      <r>     8.6923     2.0214     2.0214     2.0214    -0.0000    -0.0000    -0.0000 </r>
      <r>     8.7219     2.0012     2.0012     2.0012    -0.0000    -0.0000    -0.0000 </r>
      <r>     8.7516     2.0346     2.0346     2.0346    -0.0000    -0.0000    -0.0000 </r>
      <r>     8.7813     2.0231     2.0231     2.0231    -0.0000    -0.0000    -0.0000 </r>
      <r>     8.8109     2.1587     2.1587     2.1587    -0.0000    -0.0000    -0.0000 </r>
      <r>     8.8406     2.0011     2.0011     2.0011    -0.0000    -0.0000    -0.0000 </r>
      <r>     8.8703     1.8009     1.8009     1.8009    -0.0000    -0.0000    -0.0000 </r>
      <r>     8.8999     1.8174     1.8174     1.8174    -0.0000    -0.0000    -0.0000 </r>
      <r>     8.9296     1.8421     1.8421     1.8421    -0.0000    -0.0000    -0.0000 </r>
      <r>     8.9593     1.8747     1.8747     1.8747    -0.0000    -0.0000    -0.0000 </r>
      <r>     8.9889     1.9052     1.9052     1.9052    -0.0000    -0.0000    -0.0000 </r>
      <r>     9.0186     1.9035     1.9035     1.9035    -0.0000    -0.0000    -0.0000 </r>
      <r>     9.0483     1.8667     1.8667     1.8667    -0.0000    -0.0000    -0.0000 </r>
      <r>     9.0779     1.7919     1.7919     1.7919    -0.0000    -0.0000    -0.0000 </r>
      <r>     9.1076     1.7801     1.7801     1.7801    -0.0000    -0.0000    -0.0000 </r>
      <r>     9.1373     1.7836     1.7836     1.7836    -0.0000    -0.0000    -0.0000 </r>
      <r>     9.1669     1.7868     1.7868     1.7868    -0.0000    -0.0000    -0.0000 </r>
      <r>     9.1966     1.7899     1.7899     1.7899    -0.0000    -0.0000    -0.0000 </r>
      <r>     9.2263     1.7931     1.7931     1.7931    -0.0000    -0.0000    -0.0000 </r>
      <r>     9.2559     1.7962     1.7962     1.7962    -0.0000    -0.0000    -0.0000 </r>
      <r>     9.2856     1.7994     1.7994     1.7994    -0.0000    -0.0000    -0.0000 </r>
      <r>     9.3153     1.8026     1.8026     1.8026    -0.0000    -0.0000    -0.0000 </r>
      <r>     9.3449     1.8058     1.8058     1.8058    -0.0000    -0.0000    -0.0000 </r>
      <r>     9.3746     1.8091     1.8091     1.8091    -0.0000    -0.0000    -0.0000 </r>
      <r>     9.4043     1.8123     1.8123     1.8123    -0.0000    -0.0000    -0.0000 </r>
      <r>     9.4339     1.8156     1.8156     1.8156    -0.0000    -0.0000    -0.0000 </r>
      <r>     9.4636     1.8189     1.8189     1.8189    -0.0000    -0.0000    -0.0000 </r>
      <r>     9.4933     1.8222     1.8222     1.8222    -0.0000    -0.0000    -0.0000 </r>
      <r>     9.5229     1.7884     1.7884     1.7884    -0.0000    -0.0000    -0.0000 </r>
      <r>     9.5526     1.7479     1.7479     1.7479    -0.0000    -0.0000    -0.0000 </r>
      <r>     9.5823     1.7153     1.7153     1.7153    -0.0000    -0.0000    -0.0000 </r>
      <r>     9.6119     1.6910     1.6910     1.6910    -0.0000    -0.0000    -0.0000 </r>
[...]
        <r>  0.0001  0.0257  0.0235  0.0030  0.1416  0.0321  0.1572  0.0065  0.0196 </r>
       </set>
       <set comment="band 24">
        <r>  0.0002  0.0139  0.0144  0.0018  0.0062  0.0180  0.0083  0.0199  0.0315 </r>
        <r>  0.0006  0.0347  0.0312  0.0036  0.0439  0.0504  0.0946  0.0083  0.0311 </r>
       </set>
       <set comment="band 25">
        <r>  0.0145  0.0035  0.0072  0.0097  0.0135  0.0026  0.0075  0.0013  0.0010 </r>
        <r>  0.0002  0.0100  0.0033  0.0105  0.0668  0.0050  0.0847  0.0130  0.0545 </r>
       </set>
       <set comment="band 26">
        <r>  0.0012  0.0096  0.0050  0.0120  0.0074  0.0063  0.0097  0.0091  0.0251 </r>
        <r>  0.0390  0.0004  0.0064  0.0226  0.0099  0.0042  0.0092  0.0089  0.0129 </r>
       </set>
       <set comment="band 27">
        <r>  0.0331  0.0121  0.0158  0.0174  0.0094  0.0021  0.0120  0.0040  0.0024 </r>
        <r>  0.0490  0.0002  0.0019  0.0074  0.0132  0.0145  0.0156  0.0153  0.0203 </r>
       </set>
       <set comment="band 28">
        <r>  0.0156  0.0004  0.0019  0.0092  0.0153  0.0021  0.0127  0.0127  0.0276 </r>
        <r>  0.0139  0.0087  0.0015  0.0056  0.0483  0.0038  0.0241  0.0036  0.0163 </r>
       </set>
       <set comment="band 29">
        <r>  0.0019  0.0088  0.0126  0.0038  0.0132  0.0090  0.0407  0.0019  0.0086 </r>
        <r>  0.0069  0.0011  0.0057  0.0069  0.0141  0.0581  0.0235  0.1019  0.0103 </r>
       </set>
       <set comment="band 30">
        <r>  0.0014  0.0195  0.0256  0.0063  0.0006  0.0120  0.0008  0.0058  0.0139 </r>
        <r>  0.0000  0.0008  0.0010  0.0003  0.1262  0.0235  0.0280  0.0371  0.0183 </r>
       </set>
       <set comment="band 31">
        <r>  0.0085  0.0057  0.0085  0.0030  0.0072  0.0072  0.0243  0.0000  0.0037 </r>
        <r>  0.0052  0.0014  0.0025  0.0010  0.0215  0.0967  0.0399  0.0371  0.0060 </r>
       </set>
       <set comment="band 32">
        <r>  0.0023  0.0449  0.0266  0.0026  0.0407  0.0034  0.0116  0.0262  0.0031 </r>
        <r>  0.0000  0.0017  0.0022  0.0011  0.0081  0.0218  0.0516  0.0263  0.0542 </r>
       </set>
       <set comment="band 33">
        <r>  0.0300  0.0026  0.0055  0.0032  0.0102  0.0089  0.0045  0.0148  0.0142 </r>
        <r>  0.0019  0.0055  0.0009  0.0132  0.0102  0.0907  0.0101  0.0101  0.0435 </r>
       </set>
       <set comment="band 34">
        <r>  0.0316  0.0137  0.0135  0.0355  0.0200  0.0015  0.0088  0.0044  0.0077 </r>
        <r>  0.0054  0.0009  0.0010  0.0005  0.0373  0.0203  0.0773  0.0113  0.0067 </r>
       </set>
       <set comment="band 35">
        <r>  0.0095  0.0051  0.0000  0.0118  0.0211  0.0070  0.0227  0.0104  0.0024 </r>
        <r>  0.0051  0.0129  0.0179  0.0075  0.0371  0.0105  0.2105  0.0210  0.0650 </r>
       </set>
       <set comment="band 36">
        <r>  0.0002  0.0049  0.0040  0.0056  0.0189  0.0602  0.0033  0.0005  0.0101 </r>
        <r>  0.0319  0.0168  0.0138  0.0007  0.0280  0.2454  0.0013  0.0072  0.0939 </r>
       </set>
      </set>
      <set comment="kpoint 15">
       <set comment="band 1">
        <r>  0.0037  0.0031  0.0014  0.0063  0.0347  0.0078  0.0625  0.0159  0.0584 </r>
        <r>  0.5256  0.0000  0.0000  0.0000  0.0000  0.0000  0.0000  0.0000  0.0000 </r>
       </set>
       <set comment="band 2">
        <r>  0.0001  0.0001  0.0000  0.0001  0.0674  0.1341  0.4416  0.0599  0.2311 </r>
        <r>  0.0000  0.0040  0.0029  0.0013  0.0002  0.0001  0.0000  0.0003  0.0004 </r>
       </set>
       <set comment="band 3">
        <r>  0.0000  0.0001  0.0002  0.0000  0.0597  0.2883  0.0736  0.3224  0.1894 </r>
        <r>  0.0001  0.0029  0.0057  0.0019  0.0001  0.0000  0.0001  0.0003  0.0001 </r>
       </set>
       <set comment="band 4">
        <r>  0.0000  0.0000  0.0000  0.0000  0.4433  0.1171  0.0729  0.1391  0.1757 </r>
        <r>  0.0000  0.0000  0.0000  0.0001  0.0001  0.0001  0.0003  0.0001  0.0002 </r>
       </set>
       <set comment="band 5">
        <r>  0.0001  0.0000  0.0000  0.0000  0.1854  0.3652  0.0311  0.3418  0.0273 </r>
        <r>  0.0000  0.0003  0.0002  0.0003  0.0000  0.0001  0.0000  0.0000  0.0000 </r>
       </set>
       <set comment="band 6">
        <r>  0.0030  0.0011  0.0005  0.0024  0.1578  0.0282  0.2593  0.0672  0.2671 </r>
        <r>  0.1287  0.0007  0.0003  0.0003  0.0000  0.0001  0.0001  0.0000  0.0001 </r>
       </set>
       <set comment="band 7">
        <r>  0.2186  0.0006  0.0001  0.0075  0.0013  0.0009  0.0003  0.0010  0.0009 </r>
        <r>  0.0049  0.0523  0.0187  0.1789  0.0009  0.0001  0.0010  0.0004  0.0013 </r>
       </set>
       <set comment="band 8">
        <r>  0.0143  0.0259  0.0116  0.0253  0.0035  0.0052  0.0114  0.0021  0.0025 </r>
        <r>  0.0031  0.1784  0.0654  0.1010  0.0004  0.0003  0.0006  0.0001  0.0001 </r>
       </set>
       <set comment="band 9">
        <r>  0.0012  0.0205  0.0423  0.0054  0.0031  0.0096  0.0032  0.0060  0.0028 </r>
        <r>  0.0001  0.1025  0.2877  0.0087  0.0004  0.0006  0.0005  0.0002  0.0001 </r>
       </set>
       <set comment="band 10">
        <r>  0.2128  0.0017  0.0083  0.0179  0.0002  0.0057  0.0060  0.0005  0.0032 </r>
        <r>  0.0288  0.0781  0.0581  0.0527  0.0043  0.0071  0.0172  0.0010  0.0073 </r>
       </set>
       <set comment="band 11">
        <r>  0.0014  0.0418  0.0190  0.0055  0.0026  0.0064  0.0155  0.0030  0.0030 </r>
        <r>  0.0140  0.0290  0.0371  0.0211  0.0126  0.0125  0.0226  0.0004  0.0035 </r>
       </set>
       <set comment="band 12">
        <r>  0.0518  0.0216  0.0509  0.0240  0.0048  0.0005  0.0040  0.0023  0.0022 </r>
        <r>  0.0178  0.0375  0.0092  0.0955  0.0114  0.0150  0.0062  0.0097  0.0145 </r>
       </set>
       <set comment="band 13">
        <r>  0.0003  0.0277  0.0099  0.0476  0.0124  0.0026  0.0002  0.0087  0.0114 </r>
        <r>  0.0149  0.0206  0.0071  0.0139  0.0277  0.0038  0.0136  0.0244  0.0138 </r>
       </set>
       <set comment="band 14">
        <r>  0.0001  0.0632  0.0732  0.0136  0.0074  0.0133  0.0054  0.0004  0.0070 </r>
        <r>  0.0188  0.0352  0.0321  0.0494  0.0035  0.0427  0.0088  0.0087  0.0085 </r>
       </set>
       <set comment="band 15">
        <r>  0.0002  0.0107  0.0250  0.0004  0.0021  0.0090  0.0041  0.0178  0.0084 </r>
        <r>  0.0061  0.0000  0.0311  0.0843  0.0150  0.0198  0.0082  0.0077  0.0111 </r>
       </set>
       <set comment="band 16">
        <r>  0.0007  0.0011  0.0176  0.0869  0.0034  0.0042  0.0083  0.0153  0.0013 </r>
        <r>  0.0199  0.0012  0.0000  0.0083  0.0055  0.0015  0.0023  0.1654  0.0901 </r>
       </set>
       <set comment="band 17">
        <r>  0.0369  0.0518  0.0255  0.0097  0.0113  0.0034  0.0015  0.0033  0.0034 </r>
        <r>  0.0024  0.0104  0.0036  0.0196  0.0100  0.0168  0.0265  0.0008  0.0047 </r>
       </set>
       <set comment="band 18">
        <r>  0.0049  0.0274  0.0123  0.0123  0.0042  0.0099  0.0052  0.0001  0.0002 </r>
        <r>  0.0028  0.0751  0.0297  0.0094  0.0830  0.0832  0.0135  0.0083  0.0381 </r>
       </set>
       <set comment="band 19">
        <r>  0.0003  0.0074  0.0161  0.0661  0.0007  0.0007  0.0025  0.0165  0.0073 </r>
        <r>  0.0003  0.0259  0.0172  0.0521  0.0147  0.0054  0.0115  0.0360  0.0438 </r>
       </set>
       <set comment="band 20">
        <r>  0.0035  0.0192  0.0065  0.0228  0.0002  0.0007  0.0006  0.0076  0.0046 </r>
        <r>  0.0033  0.0075  0.0163  0.0005  0.1187  0.0162  0.0057  0.0440  0.0530 </r>
       </set>
       <set comment="band 21">
        <r>  0.0335  0.0034  0.0014  0.0033  0.0063  0.0041  0.0063  0.0129  0.0229 </r>
        <r>  0.0102  0.0007  0.0008  0.0008  0.0299  0.0121  0.0540  0.0059  0.0436 </r>
       </set>
       <set comment="band 22">
        <r>  0.0038  0.0005  0.0000  0.0052  0.0290  0.0285  0.0020  0.0118  0.0209 </r>
        <r>  0.0283  0.0022  0.0015  0.0003  0.0096  0.0519  0.0524  0.0546  0.0009 </r>
       </set>
       <set comment="band 23">
        <r>  0.0004  0.0149  0.0037  0.0475  0.0030  0.0030  0.0075  0.0005  0.0049 </r>
        <r>  0.0053  0.0049  0.0123  0.0000  0.0192  0.0129  0.0239  0.0039  0.0019 </r>
       </set>
       <set comment="band 24">
        <r>  0.0003  0.0397  0.0219  0.0137  0.0030  0.0074  0.0042  0.0150  0.0237 </r>
        <r>  0.0001  0.0164  0.0438  0.0002  0.0175  0.0431  0.1387  0.0288  0.0938 </r>
       </set>
       <set comment="band 25">
        <r>  0.0039  0.0203  0.0262  0.0140  0.0231  0.0075  0.0055  0.0165  0.0251 </r>
        <r>  0.0195  0.0049  0.0095  0.0015  0.0271  0.0429  0.0718  0.0014  0.0389 </r>
       </set>
       <set comment="band 26">
        <r>  0.0304  0.0013  0.0058  0.0029  0.0038  0.0052  0.0002  0.0014  0.0038 </r>
        <r>  0.0128  0.0041  0.0054  0.0022  0.0628  0.0072  0.0218  0.0088  0.0443 </r>
       </set>
       <set comment="band 27">
        <r>  0.0067  0.0139  0.0078  0.0040  0.0334  0.0063  0.0354  0.0417  0.0039 </r>
        <r>  0.0474  0.0112  0.0078  0.0015  0.0519  0.1034  0.0187  0.0207  0.0014 </r>
       </set>
       <set comment="band 28">
        <r>  0.0154  0.0059  0.0017  0.0158  0.0115  0.0034  0.0022  0.0031  0.0032 </r>
        <r>  0.0294  0.0062  0.0076  0.0012  0.0212  0.0110  0.0197  0.0148  0.0004 </r>
       </set>
       <set comment="band 29">
        <r>  0.0139  0.0021  0.0014  0.0094  0.0101  0.0232  0.0279  0.0048  0.0237 </r>
        <r>  0.0039  0.0005  0.0005  0.0045  0.0030  0.0289  0.0130  0.0374  0.0234 </r>
       </set>
       <set comment="band 30">
        <r>  0.0013  0.0206  0.0620  0.0033  0.0034  0.0061  0.0181  0.0231  0.0177 </r>
        <r>  0.0003  0.0002  0.0014  0.0018  0.0131  0.0051  0.0174  0.0722  0.0128 </r>
       </set>
       <set comment="band 31">
        <r>  0.0288  0.0011  0.0072  0.0080  0.0167  0.0351  0.0160  0.0025  0.0066 </r>
        <r>  0.0008  0.0013  0.0010  0.0085  0.0046  0.0192  0.0059  0.0093  0.0133 </r>
       </set>
       <set comment="band 32">
        <r>  0.0052  0.0085  0.0112  0.0007  0.0142  0.0114  0.0100  0.0186  0.0067 </r>
        <r>  0.0000  0.0011  0.0012  0.0006  0.0046  0.0249  0.0589  0.0117  0.0195 </r>
       </set>
       <set comment="band 33">
        <r>  0.0038  0.0081  0.0038  0.0117  0.0121  0.0041  0.0138  0.0045  0.0205 </r>
        <r>  0.0000  0.0019  0.0069  0.0129  0.0915  0.0352  0.0405  0.0135  0.0089 </r>
       </set>
       <set comment="band 34">
        <r>  0.0195  0.0098  0.0028  0.0266  0.0120  0.0053  0.0049  0.0025  0.0021 </r>
        <r>  0.0194  0.0084  0.0031  0.0018  0.0041  0.0230  0.0085  0.0127  0.0051 </r>
       </set>
       <set comment="band 35">
        <r>  0.0464  0.0343  0.0197  0.0060  0.0103  0.0044  0.0045  0.0075  0.0126 </r>
        <r>  0.0017  0.0056  0.0024  0.0022  0.0085  0.0456  0.0052  0.0181  0.0214 </r>
       </set>
       <set comment="band 36">
        <r>  0.0023  0.0053  0.0054  0.0016  0.0038  0.0201  0.0142  0.0039  0.0056 </r>
        <r>  0.0577  0.0087  0.0060  0.0028  0.0254  0.1810  0.2089  0.0303  0.0315 </r>
       </set>
      </set>
      <set comment="kpoint 16">
       <set comment="band 1">
        <r>  0.0000  0.0038  0.0014  0.0062  0.0350  0.0081  0.1089  0.0162  0.0256 </r>
        <r>  0.5212  0.0000  0.0000  0.0000  0.0000  0.0000  0.0000  0.0000  0.0000 </r>
       </set>
       <set comment="band 2">
        <r>  0.0000  0.0001  0.0001  0.0000  0.0947  0.1141  0.1913  0.2282  0.3113 </r>
        <r>  0.0001  0.0022  0.0033  0.0011  0.0002  0.0002  0.0000  0.0004  0.0005 </r>
       </set>
       <set comment="band 3">
        <r>  0.0001  0.0001  0.0002  0.0001  0.1816  0.1319  0.0536  0.2398  0.3269 </r>
        <r>  0.0000  0.0033  0.0028  0.0038  0.0000  0.0001  0.0000  0.0001  0.0002 </r>
       </set>
       <set comment="band 4">
        <r>  0.0002  0.0000  0.0000  0.0000  0.4876  0.0390  0.1780  0.0773  0.1622 </r>
        <r>  0.0000  0.0005  0.0002  0.0008  0.0001  0.0001  0.0003  0.0001  0.0002 </r>
       </set>
       <set comment="band 5">
        <r>  0.0001  0.0000  0.0000  0.0000  0.0074  0.6204  0.0024  0.3142  0.0079 </r>
        <r>  0.0000  0.0002  0.0002  0.0002  0.0000  0.0000  0.0000  0.0000  0.0000 </r>
       </set>
       <set comment="band 6">
        <r>  0.0000  0.0017  0.0005  0.0028  0.1346  0.0357  0.4141  0.0714  0.1105 </r>
        <r>  0.1431  0.0000  0.0000  0.0000  0.0001  0.0000  0.0000  0.0000  0.0000 </r>
       </set>
       <set comment="band 7">
        <r>  0.2421  0.0000  0.0000  0.0000  0.0056  0.0004  0.0021  0.0002  0.0007 </r>
        <r>  0.0000  0.0820  0.0251  0.1389  0.0007  0.0002  0.0022  0.0004  0.0006 </r>
       </set>
       <set comment="band 8">
        <r>  0.0023  0.0213  0.0320  0.0107  0.0083  0.0046  0.0028  0.0056  0.0068 </r>
        <r>  0.0000  0.1223  0.1444  0.1002  0.0000  0.0000  0.0001  0.0000  0.0001 </r>
       </set>
       <set comment="band 9">
        <r>  0.0000  0.0258  0.0276  0.0239  0.0006  0.0013  0.0006  0.0026  0.0034 </r>
        <r>  0.0001  0.1224  0.1837  0.0612  0.0009  0.0003  0.0003  0.0002  0.0003 </r>
       </set>
       <set comment="band 10">
        <r>  0.0000  0.0254  0.0018  0.0490  0.0066  0.0007  0.0215  0.0015  0.0028 </r>
        <r>  0.0321  0.0225  0.0338  0.0113  0.0257  0.0000  0.0096  0.0001  0.0033 </r>
       </set>
       <set comment="band 11">
        <r>  0.2259  0.0023  0.0035  0.0012  0.0118  0.0007  0.0044  0.0005  0.0018 </r>
        <r>  0.0000  0.0631  0.0425  0.0837  0.0108  0.0003  0.0362  0.0006  0.0022 </r>
       </set>
       <set comment="band 12">
        <r>  0.0000  0.0439  0.0505  0.0373  0.0013  0.0034  0.0007  0.0067  0.0090 </r>
        <r>  0.0432  0.0292  0.0438  0.0146  0.0005  0.0281  0.0001  0.0145  0.0009 </r>
       </set>
       <set comment="band 13">
        <r>  0.0422  0.0243  0.0365  0.0122  0.0070  0.0053  0.0026  0.0037  0.0028 </r>
        <r>  0.0000  0.0390  0.0046  0.0734  0.0078  0.0115  0.0132  0.0231  0.0313 </r>
       </set>
       <set comment="band 14">
        <r>  0.0019  0.0488  0.0732  0.0244  0.0022  0.0052  0.0002  0.0099  0.0130 </r>
        <r>  0.0000  0.0896  0.0829  0.0963  0.0001  0.0003  0.0000  0.0006  0.0007 </r>
       </set>
       <set comment="band 15">
        <r>  0.0000  0.0483  0.0566  0.0401  0.0035  0.0041  0.0072  0.0082  0.0112 </r>
        <r>  0.0000  0.0026  0.0039  0.0013  0.0167  0.0585  0.0002  0.1016  0.1288 </r>
       </set>
       <set comment="band 16">
        <r>  0.0064  0.0024  0.0036  0.0012  0.0041  0.0300  0.0014  0.0162  0.0027 </r>
        <r>  0.0000  0.0425  0.0220  0.0630  0.0049  0.0100  0.0054  0.0200  0.0269 </r>
       </set>
       <set comment="band 17">
        <r>  0.0000  0.0269  0.0041  0.0498  0.0025  0.0000  0.0085  0.0000  0.0003 </r>
        <r>  0.0499  0.0001  0.0001  0.0000  0.0122  0.1343  0.0044  0.0696  0.0058 </r>
       </set>
       <set comment="band 18">
        <r>  0.0000  0.0090  0.0093  0.0086  0.0001  0.0000  0.0003  0.0000  0.0000 </r>
        <r>  0.0010  0.0019  0.0029  0.0010  0.1077  0.0089  0.0396  0.0134  0.0291 </r>
       </set>
       <set comment="band 19">
        <r>  0.0000  0.0453  0.0000  0.0906  0.0015  0.0005  0.0046  0.0010  0.0015 </r>
        <r>  0.0119  0.0312  0.0468  0.0156  0.0320  0.0442  0.0119  0.0237  0.0067 </r>
       </set>
       <set comment="band 20">
        <r>  0.0000  0.0273  0.0338  0.0209  0.0022  0.0031  0.0039  0.0063  0.0085 </r>
        <r>  0.0392  0.0124  0.0186  0.0062  0.0271  0.0106  0.0096  0.0118  0.0147 </r>
       </set>
       <set comment="band 21">
        <r>  0.0495  0.0007  0.0011  0.0004  0.0025  0.0218  0.0005  0.0158  0.0088 </r>
        <r>  0.0000  0.0013  0.0001  0.0025  0.0024  0.0070  0.0004  0.0141  0.0188 </r>
       </set>
       <set comment="band 22">
        <r>  0.0057  0.0047  0.0071  0.0024  0.0205  0.0210  0.0061  0.0290  0.0350 </r>
        <r>  0.0000  0.0008  0.0002  0.0014  0.0086  0.0087  0.0193  0.0175  0.0240 </r>
       </set>
       <set comment="band 23">
        <r>  0.0162  0.0001  0.0002  0.0001  0.0052  0.0326  0.0018  0.0177  0.0030 </r>
        <r>  0.0000  0.0061  0.0000  0.0123  0.0166  0.0375  0.0137  0.0751  0.1006 </r>
       </set>
       <set comment="band 24">
        <r>  0.0187  0.0010  0.0015  0.0005  0.0026  0.0019  0.0007  0.0037  0.0052 </r>
        <r>  0.0000  0.0105  0.0151  0.0058  0.1055  0.0001  0.3559  0.0002  0.0135 </r>
       </set>
       <set comment="band 25">
        <r>  0.0000  0.0039  0.0058  0.0020  0.0016  0.0045  0.0004  0.0090  0.0120 </r>
        <r>  0.0001  0.0000  0.0001  0.0000  0.1331  0.0064  0.0499  0.0040  0.0180 </r>
       </set>
       <set comment="band 26">
        <r>  0.0000  0.0288  0.0087  0.0488  0.0036  0.0103  0.0006  0.0205  0.0274 </r>
        <r>  0.0132  0.0001  0.0001  0.0000  0.0084  0.0156  0.0013  0.0297  0.0393 </r>
       </set>
       <set comment="band 27">
        <r>  0.0260  0.0383  0.0575  0.0192  0.0040  0.0127  0.0013  0.0093  0.0057 </r>
        <r>  0.0000  0.0006  0.0000  0.0012  0.0128  0.0088  0.0333  0.0176  0.0247 </r>
       </set>
       <set comment="band 28">
        <r>  0.0000  0.0032  0.0039  0.0026  0.0133  0.0112  0.0322  0.0225  0.0312 </r>
        <r>  0.0984  0.0161  0.0241  0.0080  0.0290  0.0016  0.0109  0.0008  0.0036 </r>
       </set>
       <set comment="band 29">
        <r>  0.0205  0.0032  0.0048  0.0016  0.0726  0.0114  0.0262  0.0186  0.0316 </r>
        <r>  0.0000  0.0096  0.0134  0.0058  0.0001  0.0001  0.0001  0.0002  0.0002 </r>
       </set>
       <set comment="band 30">
        <r>  0.0000  0.0115  0.0167  0.0064  0.0137  0.0000  0.0461  0.0000  0.0017 </r>
        <r>  0.0001  0.0004  0.0006  0.0002  0.0017  0.1242  0.0001  0.0684  0.0112 </r>
       </set>
       <set comment="band 31">
        <r>  0.0000  0.0206  0.0219  0.0193  0.0110  0.0001  0.0370  0.0002  0.0016 </r>
        <r>  0.0025  0.0029  0.0043  0.0014  0.0077  0.0813  0.0009  0.0648  0.0433 </r>
       </set>
       <set comment="band 32">
        <r>  0.0744  0.0077  0.0115  0.0038  0.0054  0.0140  0.0016  0.0119  0.0093 </r>
        <r>  0.0000  0.0026  0.0002  0.0050  0.0039  0.0118  0.0000  0.0236  0.0315 </r>
       </set>
       <set comment="band 33">
        <r>  0.0225  0.0087  0.0130  0.0043  0.0004  0.0301  0.0001  0.0157  0.0011 </r>
        <r>  0.0000  0.0005  0.0000  0.0010  0.0101  0.0012  0.0326  0.0024  0.0045 </r>
       </set>
       <set comment="band 34">
        <r>  0.0000  0.0116  0.0013  0.0219  0.0063  0.0033  0.0177  0.0065  0.0094 </r>
        <r>  0.0000  0.0016  0.0023  0.0008  0.2978  0.0056  0.1117  0.0031  0.0377 </r>
       </set>
       <set comment="band 35">
        <r>  0.0016  0.0002  0.0002  0.0001  0.0303  0.0106  0.0109  0.0105  0.0129 </r>
        <r>  0.0000  0.0253  0.0348  0.0158  0.0854  0.0006  0.2877  0.0012  0.0122 </r>
       </set>
       <set comment="band 36">
        <r>  0.0142  0.0073  0.0110  0.0037  0.0341  0.0001  0.0128  0.0001  0.0044 </r>
        <r>  0.0000  0.0104  0.0001  0.0206  0.0041  0.0001  0.0138  0.0002  0.0007 </r>
       </set>
      </set>
     </set>
    </set>
   </array>
  </projected>
 </calculation>
 <structure name="finalpos" >
  <crystal>
   <varray name="basis" >
    <v>       4.01975093       0.00000000       2.32080404 </v>
    <v>       1.33991663       3.78985854       2.32080404 </v>
    <v>       0.00000000       0.00000000       4.64161015 </v>
   </varray>
   <i name="volume">     70.71162285 </i>
   <varray name="rec_basis" >
    <v>       0.24877163      -0.08795401       0.00000000 </v>
    <v>       0.00000000       0.26386209       0.00000000 </v>
    <v>      -0.12438576      -0.08795400       0.21544248 </v>
   </varray>
  </crystal>
  <varray name="positions" >
   <v>       0.00000000       0.00000000       0.00000000 </v>
   <v>       0.25000000       0.25000000       0.25000000 </v>
  </varray>
 </structure>
</modeling>
