 vasp.6.4.2 20Jul23 (build Mar 15 2024 16:31:38) complex                        
  
 executed on             LinuxIFC date 2025.03.19  15:31:55
 running  120 mpi-ranks, on    3 nodes
 distrk:  each k-point on  120 cores,    1 groups
 distr:  one band on NCORE=  10 cores,   12 groups


--------------------------------------------------------------------------------------------------------


 INCAR:
   ALGO = Fast
   CSHIFT = 1e-05
   EDIFF = 1e-05
   ENAUG = 1360
   ENCUT = 680
   GGA = Ps
   ICHARG = 11
   ISMEAR = -5
   ISPIN = 1
   ISYM = 2
   LAECHG = True
   LASPH = True
   LCHARG = False
   LELF = False
   LMAXMIX = 4
   LMIXTAU = True
   LOPTICS = True
   LORBIT = 11
   LREAL = False
   LVTOT = True
   LWAVE = True
   NBANDS = 101
   NCORE = 10
   NEDOS = 2000
   NELM = 200
   NSW = 0
   PREC = Accurate
   SIGMA = 0.05

 POTCAR:    PAW_PBE Sb 06Sep2000                  
 POTCAR:    PAW_PBE S 06Sep2000                   
 WARNING: For LVTOT=.TRUE., VASP.5.x writes the TOTAL local potential to the
     file LOCPOT. If you want only the Hartree contributions, use LVHAR=.TRUE.
     instead. 

 POTCAR:    PAW_PBE Sb 06Sep2000                  
   VRHFIN =Sb: s2p3                                                                                 
   LEXCH  = PE                                                                                      
   EATOM  =   149.9515 eV,   11.0211 Ry                                                             
                                                                                                    
   TITEL  = PAW_PBE Sb 06Sep2000                                                                    
   LULTRA =        F    use ultrasoft PP ?                                                          
   IUNSCR =        1    unscreen: 0-lin 1-nonlin 2-no                                               
   RPACOR =    2.200    partial core radius                                                         
   POMASS =  121.750; ZVAL   =    5.000    mass and valenz                                          
   RCORE  =    2.300    outmost cutoff radius                                                       
   RWIGS  =    2.980; RWIGS  =    1.577    wigner-seitz radius (au A)                               
   ENMAX  =  172.069; ENMIN  =  129.052 eV                                                          
   ICORE  =        3    local potential                                                             
   LCOR   =        T    correct aug charges                                                         
   LPAW   =        T    paw PP                                                                      
   EAUG   =  380.513                                                                                
   DEXC   =    0.000                                                                                
   RMAX   =    2.346    core radius for proj-oper                                                   
   RAUG   =    1.300    factor for augmentation sphere                                              
   RDEP   =    2.360    radius for radial grids                                                     
   RDEPT  =    2.192    core radius for aug-charge                                                  
                                                                                                    
   Atomic configuration                                                                             
   13 entries                                                                                       
     n  l   j            E        occ.                                                              
     1  0  0.50    -30298.2797   2.0000                                                             
     2  0  0.50     -4610.2252   2.0000                                                             
     2  1  1.50     -4138.3407   6.0000                                                             
     3  0  0.50      -903.8815   2.0000                                                             
     3  1  1.50      -750.1337   6.0000                                                             
     3  2  2.50      -515.7092  10.0000                                                             
     4  0  0.50      -148.8034   2.0000                                                             
     4  1  1.50      -101.7581   6.0000                                                             
     4  2  2.50       -33.5048  10.0000                                                             
     5  0  0.50       -12.8298   2.0000                                                             
     5  1  0.50        -4.8276   3.0000                                                             
     5  2  1.50        -4.0817   0.0000                                                             
     4  3  2.50        -4.0817   0.0000                                                             
   Description                                                                                      
     l       E           TYP  RCUT    TYP  RCUT                                                     
     0    -12.8297861     23  2.300                                                                 
     0     13.6058260     23  2.300                                                                 
     1     -4.8275512     23  2.300                                                                 
     1     -0.7245443     23  2.300                                                                 
     2     -4.0817478     23  2.300                                                                 
     3     -1.3605826     23  2.300                                                                 
  local pseudopotential read in
  partial core-charges read in
  partial kinetic energy density read in
  atomic valenz-charges read in
  non local Contribution for L=           0  read in
    real space projection operators read in
  non local Contribution for L=           0  read in
    real space projection operators read in
  non local Contribution for L=           1  read in
    real space projection operators read in
  non local Contribution for L=           1  read in
    real space projection operators read in
  non local Contribution for L=           2  read in
    real space projection operators read in
    PAW grid and wavefunctions read in
 
   number of l-projection  operators is LMAX  =           5
   number of lm-projection operators is LMMAX =          13
 
 POTCAR:    PAW_PBE S 06Sep2000                   
   VRHFIN =S : s2p4                                                                                 
   LEXCH  = PE                                                                                      
   EATOM  =   276.8230 eV,   20.3459 Ry                                                             
                                                                                                    
   TITEL  = PAW_PBE S 06Sep2000                                                                     
   LULTRA =        F    use ultrasoft PP ?                                                          
   IUNSCR =        1    unscreen: 0-lin 1-nonlin 2-no                                               
   RPACOR =    1.500    partial core radius                                                         
   POMASS =   32.066; ZVAL   =    6.000    mass and valenz                                          
   RCORE  =    1.900    outmost cutoff radius                                                       
   RWIGS  =    2.200; RWIGS  =    1.164    wigner-seitz radius (au A)                               
   ENMAX  =  258.689; ENMIN  =  194.016 eV                                                          
   ICORE  =        2    local potential                                                             
   LCOR   =        T    correct aug charges                                                         
   LPAW   =        T    paw PP                                                                      
   EAUG   =  335.092                                                                                
   DEXC   =    0.000                                                                                
   RMAX   =    1.942    core radius for proj-oper                                                   
   RAUG   =    1.300    factor for augmentation sphere                                              
   RDEP   =    1.954    radius for radial grids                                                     
   RDEPT  =    1.744    core radius for aug-charge                                                  
                                                                                                    
   Atomic configuration                                                                             
    6 entries                                                                                       
     n  l   j            E        occ.                                                              
     1  0  0.50     -2405.8406   2.0000                                                             
     2  0  0.50      -211.7007   2.0000                                                             
     2  1  1.50      -156.4958   6.0000                                                             
     3  0  0.50       -17.2562   2.0000                                                             
     3  1  0.50        -7.0085   4.0000                                                             
     3  2  1.50        -6.8029   0.0000                                                             
   Description                                                                                      
     l       E           TYP  RCUT    TYP  RCUT                                                     
     0    -17.2561641     23  1.900                                                                 
     0    -15.8743224     23  1.900                                                                 
     1     -7.0085400     23  1.900                                                                 
     1     -2.7779785     23  1.900                                                                 
     2     -6.8029130     23  1.900                                                                 
  local pseudopotential read in
  partial core-charges read in
  partial kinetic energy density read in
  atomic valenz-charges read in
  non local Contribution for L=           0  read in
    real space projection operators read in
  non local Contribution for L=           0  read in
    real space projection operators read in
  non local Contribution for L=           1  read in
    real space projection operators read in
  non local Contribution for L=           1  read in
    real space projection operators read in
    PAW grid and wavefunctions read in
 
   number of l-projection  operators is LMAX  =           4
   number of lm-projection operators is LMMAX =           8
 
 -----------------------------------------------------------------------------
|                                                                             |
|               ----> ADVICE to this user running VASP <----                  |
|                                                                             |
|     You have a (more or less) 'large supercell' and for larger cells it     |
|     might be more efficient to use real-space projection operators.         |
|     Therefore, try LREAL= Auto in the INCAR file.                           |
|     Mind: For very accurate calculation, you might also keep the            |
|     reciprocal projection scheme (i.e. LREAL=.FALSE.).                      |
|                                                                             |
 -----------------------------------------------------------------------------

 -----------------------------------------------------------------------------
|                                                                             |
|               ----> ADVICE to this user running VASP <----                  |
|                                                                             |
|     You enforced a specific xc type in the INCAR file but a different       |
|     type was found in the POTCAR file.                                      |
|     I HOPE YOU KNOW WHAT YOU ARE DOING!                                     |
|                                                                             |
 -----------------------------------------------------------------------------

  PAW_PBE Sb 06Sep2000                  :
 energy of atom  1       EATOM= -149.9515
 kinetic energy error for atom=    0.0002 (will be added to EATOM!!)
  PAW_PBE S 06Sep2000                   :
 energy of atom  2       EATOM= -276.8230
 kinetic energy error for atom=    0.0008 (will be added to EATOM!!)
 
 
 POSCAR: Sb8 S12
  positions in direct lattice
  No initial velocities read in
 exchange correlation table for  LEXCH =       14
   RHO(1)=    0.500       N(1)  =     2000
   RHO(2)=  100.500       N(2)  =     4000
 


--------------------------------------------------------------------------------------------------------


 ion  position               nearest neighbor table
   1  0.750  0.466  0.857-  13 2.46  20 2.69  20 2.69  14 2.84  14 2.84
   2  0.250  0.534  0.143-  14 2.46  19 2.69  19 2.69  13 2.84  13 2.84
   3  0.250  0.966  0.643-  15 2.46  18 2.69  18 2.69  16 2.84  16 2.84
   4  0.750  0.034  0.357-  16 2.46  17 2.69  17 2.69  15 2.84  15 2.84
   5  0.250  0.173  0.967-  20 2.52   9 2.54   9 2.54  13 3.18  13 3.18  10 3.25
   6  0.750  0.827  0.033-  19 2.52  10 2.54  10 2.54  14 3.18  14 3.18   9 3.25
   7  0.750  0.673  0.533-  18 2.52  11 2.54  11 2.54  15 3.18  15 3.18  12 3.25
   8  0.250  0.327  0.467-  17 2.52  12 2.54  12 2.54  16 3.18  16 3.18  11 3.25
   9  0.750  0.061  0.876-   5 2.54   5 2.54   6 3.25
  10  0.250  0.939  0.124-   6 2.54   6 2.54   5 3.25
  11  0.250  0.561  0.624-   7 2.54   7 2.54   8 3.25
  12  0.750  0.439  0.376-   8 2.54   8 2.54   7 3.25
  13  0.750  0.379  0.049-   1 2.46   2 2.84   2 2.84   5 3.18   5 3.18
  14  0.250  0.621  0.951-   2 2.46   1 2.84   1 2.84   6 3.18   6 3.18
  15  0.250  0.879  0.451-   3 2.46   4 2.84   4 2.84   7 3.18   7 3.18
  16  0.750  0.121  0.549-   4 2.46   3 2.84   3 2.84   8 3.18   8 3.18
  17  0.250  0.189  0.300-   8 2.52   4 2.69   4 2.69
  18  0.750  0.811  0.700-   7 2.52   3 2.69   3 2.69
  19  0.750  0.689  0.200-   6 2.52   2 2.69   2 2.69
  20  0.250  0.311  0.800-   5 2.52   1 2.69   1 2.69
 
  LATTYP: Found a simple orthorhombic cell.
 ALAT       =     3.8447329100
 B/A-ratio  =     2.9565489739
 C/A-ratio  =     3.0691646796
  
  Lattice vectors:
  
 A1 = (   3.8447329100,   0.0000000000,   0.0000000000)
 A2 = (  -0.0000000000,  11.3671411400,   0.0000000000)
 A3 = (   0.0000000000,   0.0000000000,  11.8001184500)


Analysis of symmetry for initial positions (statically):
=====================================================================
 Subroutine PRICEL returns:
 Original cell was already a primitive cell.
 

 Routine SETGRP: Setting up the symmetry group for a 
 simple orthorhombic supercell.


 Subroutine GETGRP returns: Found  8 space group operations
 (whereof  2 operations were pure point group operations)
 out of a pool of  8 trial point group operations.


The static configuration has the point symmetry S_2 .
 The point group associated with its full space group is D_2h.


Analysis of symmetry for dynamics (positions and initial velocities):
=====================================================================
 Subroutine PRICEL returns:
 Original cell was already a primitive cell.
 

 Routine SETGRP: Setting up the symmetry group for a 
 simple orthorhombic supercell.


 Subroutine GETGRP returns: Found  8 space group operations
 (whereof  2 operations were pure point group operations)
 out of a pool of  8 trial point group operations.


The dynamic configuration has the point symmetry S_2 .
 The point group associated with its full space group is D_2h.


 Subroutine INISYM returns: Found  8 space group operations
 (whereof  2 operations are pure point group operations),
 and found     1 'primitive' translations


----------------------------------------------------------------------------------------

                                     Primitive cell                                     

  volume of cell :     515.7079

  direct lattice vectors                    reciprocal lattice vectors
     3.844732910  0.000000000  0.000000000     0.260096091  0.000000000  0.000000000
    -0.000000000 11.367141140  0.000000000     0.000000000  0.087972867  0.000000000
     0.000000000  0.000000000 11.800118450    -0.000000000 -0.000000000  0.084744912

  length of vectors
     3.844732910 11.367141140 11.800118450     0.260096091  0.087972867  0.084744912

  position of ions in fractional coordinates (direct lattice)
     0.750000000  0.465583620  0.857350400
     0.250000000  0.534416380  0.142649600
     0.250000000  0.965583620  0.642649600
     0.750000000  0.034416380  0.357350400
     0.250000000  0.173082670  0.966943600
     0.750000000  0.826917330  0.033056400
     0.750000000  0.673082670  0.533056400
     0.250000000  0.326917330  0.466943600
     0.750000000  0.061469490  0.875927160
     0.250000000  0.938530510  0.124072840
     0.250000000  0.561469490  0.624072840
     0.750000000  0.438530510  0.375927160
     0.750000000  0.379232040  0.048541450
     0.250000000  0.620767960  0.951458550
     0.250000000  0.879232040  0.451458550
     0.750000000  0.120767960  0.548541450
     0.250000000  0.188547610  0.300249270
     0.750000000  0.811452390  0.699750730
     0.750000000  0.688547610  0.199750730
     0.250000000  0.311452390  0.800249270

  ion indices of the primitive-cell ions
   primitive index   ion index
                 1           1
                 2           2
                 3           3
                 4           4
                 5           5
                 6           6
                 7           7
                 8           8
                 9           9
                10          10
                11          11
                12          12
                13          13
                14          14
                15          15
                16          16
                17          17
                18          18
                19          19
                20          20

----------------------------------------------------------------------------------------

 
 
 KPOINTS: pymatgen with grid density = 962 / numbe

Automatic generation of k-mesh.
 Grid dimensions read from file:
 generate k-points for:    7    2    2

 Generating k-lattice:

  Cartesian coordinates                     Fractional coordinates (reciprocal lattice)
     0.037156584  0.000000000  0.000000000     0.142857143 -0.000000000  0.000000000
     0.000000000  0.043986434  0.000000000     0.000000000  0.500000000  0.000000000
    -0.000000000 -0.000000000  0.042372456     0.000000000  0.000000000  0.500000000

  Length of vectors
     0.037156584  0.043986434  0.042372456

  Shift w.r.t. Gamma in fractional coordinates (k-lattice)
     0.000000000  0.000000000  0.000000000

 TETIRR: Found     84 inequivalent tetrahedra from      168
 
 Subroutine IBZKPT returns following result:
 ===========================================
 
 Found     16 irreducible k-points:
 
 Following reciprocal coordinates:
            Coordinates               Weight
  0.000000  0.000000  0.000000      1.000000
  0.142857  0.000000  0.000000      2.000000
  0.285714 -0.000000  0.000000      2.000000
  0.428571  0.000000  0.000000      2.000000
  0.000000  0.500000  0.000000      1.000000
  0.142857  0.500000  0.000000      2.000000
  0.285714  0.500000  0.000000      2.000000
  0.428571  0.500000  0.000000      2.000000
  0.000000  0.000000  0.500000      1.000000
  0.142857  0.000000  0.500000      2.000000
  0.285714  0.000000  0.500000      2.000000
  0.428571  0.000000  0.500000      2.000000
  0.000000  0.500000  0.500000      1.000000
  0.142857  0.500000  0.500000      2.000000
  0.285714  0.500000  0.500000      2.000000
  0.428571  0.500000  0.500000      2.000000
 
 Following cartesian coordinates:
            Coordinates               Weight
  0.000000  0.000000  0.000000      1.000000
  0.037157  0.000000  0.000000      2.000000
  0.074313  0.000000  0.000000      2.000000
  0.111470  0.000000  0.000000      2.000000
  0.000000  0.043986  0.000000      1.000000
  0.037157  0.043986  0.000000      2.000000
  0.074313  0.043986  0.000000      2.000000
  0.111470  0.043986  0.000000      2.000000
 -0.000000 -0.000000  0.042372      1.000000
  0.037157 -0.000000  0.042372      2.000000
  0.074313  0.000000  0.042372      2.000000
  0.111470  0.000000  0.042372      2.000000
 -0.000000  0.043986  0.042372      1.000000
  0.037157  0.043986  0.042372      2.000000
  0.074313  0.043986  0.042372      2.000000
  0.111470  0.043986  0.042372      2.000000
 
 -----------------------------------------------------------------------------
|                                                                             |
|           W    W    AA    RRRRR   N    N  II  N    N   GGGG   !!!           |
|           W    W   A  A   R    R  NN   N  II  NN   N  G    G  !!!           |
|           W    W  A    A  R    R  N N  N  II  N N  N  G       !!!           |
|           W WW W  AAAAAA  RRRRR   N  N N  II  N  N N  G  GGG   !            |
|           WW  WW  A    A  R   R   N   NN  II  N   NN  G    G                |
|           W    W  A    A  R    R  N    N  II  N    N   GGGG   !!!           |
|                                                                             |
|     The number of bands has been changed from the values supplied in        |
|     the INCAR file. This is a result of running the parallel version.       |
|     The orbitals not found in the WAVECAR file will be initialized with     |
|     random numbers, which is usually adequate. For correlated               |
|     calculations, however, you should redo the groundstate calculation.     |
|     I found NBANDS = 101. Now, NBANDS = 108.                                |
|                                                                             |
 -----------------------------------------------------------------------------



--------------------------------------------------------------------------------------------------------




 Dimension of arrays:
   k-points           NKPTS =     16   k-points in BZ     NKDIM =     16   number of bands    NBANDS=    108
   number of dos      NEDOS =   2000   number of ions     NIONS =     20
   non local maximal  LDIM  =      5   non local SUM 2l+1 LMDIM =     13
   total plane-waves  NPLWV = 352800
   max r-space proj   IRMAX =      1   max aug-charges    IRDMAX=  38161
   dimension x,y,z NGX =    36 NGY =   98 NGZ =  100
   dimension x,y,z NGXF=    72 NGYF=  196 NGZF=  200
   support grid    NGXF=    72 NGYF=  196 NGZF=  200
   ions per type =               8  12
   NGX,Y,Z   is equivalent  to a cutoff of  15.57, 14.33, 14.09 a.u.
   NGXF,Y,Z  is equivalent  to a cutoff of  31.13, 28.67, 28.18 a.u.

 SYSTEM =  unknown system                          
 POSCAR =  Sb8 S12                                 

 Startparameter for this run:
   NWRITE =      2    write-flag & timer
   PREC   = accura    normal or accurate (medium, high low for compatibility)
   ISTART =      0    job   : 0-new  1-cont  2-samecut
   ICHARG =     11    charge: 1-file 2-atom 10-const
   ISPIN  =      1    spin polarized calculation?
   LNONCOLLINEAR =      F non collinear calculations
   LSORBIT =      F    spin-orbit coupling
   INIWAV =      1    electr: 0-lowe 1-rand  2-diag
   LASPH  =      T    aspherical Exc in radial PAW
 Electronic Relaxation 1
   ENCUT  =  680.0 eV  49.98 Ry    7.07 a.u.   8.17 24.17 25.09*2*pi/ulx,y,z
   ENINI  =  680.0     initial cutoff
   ENAUG  = 1360.0 eV  augmentation charge cutoff
   NELM   =    200;   NELMIN=  2; NELMDL= -5     # of ELM steps 
   EDIFF  = 0.1E-04   stopping-criterion for ELM
   LREAL  =      F    real-space projection
   NLSPLINE    = F    spline interpolate recip. space projectors
   LCOMPAT=      F    compatible to vasp.4.4
   GGA_COMPAT  = T    GGA compatible to vasp.4.4-vasp.4.6
   LMAXPAW     = -100 max onsite density
   LMAXMIX     =    4 max onsite mixed and CHGCAR
   VOSKOWN=      0    Vosko Wilk Nusair interpolation
   ROPT   =    0.00000   0.00000
 Ionic relaxation
   EDIFFG = 0.1E-03   stopping-criterion for IOM
   NSW    =      0    number of steps for IOM
   NBLOCK =      1;   KBLOCK =      1    inner block; outer block 
   IBRION =     -1    ionic relax: 0-MD 1-quasi-New 2-CG
   NFREE  =      0    steps in history (QN), initial steepest desc. (CG)
   ISIF   =      2    stress and relaxation
   IWAVPR =     10    prediction:  0-non 1-charg 2-wave 3-comb
   ISYM   =      2    0-nonsym 1-usesym 2-fastsym
   LCORR  =      T    Harris-Foulkes like correction to forces

   POTIM  = 0.5000    time-step for ionic-motion
   TEIN   =    0.0    initial temperature
   TEBEG  =    0.0;   TEEND  =   0.0 temperature during run
   SMASS  =  -3.00    Nose mass-parameter (am)
   estimated Nose-frequenzy (Omega)   =  0.10E-29 period in steps = 0.13E+47 mass=  -0.338E-27a.u.
   SCALEE = 1.0000    scale energy and forces
   NPACO  =    256;   APACO  = 10.0  distance and # of slots for P.C.
   PSTRESS=    0.0 pullay stress

  Mass of Ions in am
   POMASS = 121.75 32.07
  Ionic Valenz
   ZVAL   =   5.00  6.00
  Atomic Wigner-Seitz radii
   RWIGS  =  -1.00 -1.00
  virtual crystal weights 
   VCA    =   1.00  1.00
   NELECT =     112.0000    total number of electrons
   NUPDOWN=      -1.0000    fix difference up-down

 DOS related values:
   EMIN   =  10.00;   EMAX   =-10.00  energy-range for DOS
   EFERMI =   0.00;   METHOD = LEGACY      
   ISMEAR =    -5;   SIGMA  =   0.05  broadening in eV -4-tet -1-fermi 0-gaus

 Electronic relaxation 2 (details)
   IALGO  =     68    algorithm
   LDIAG  =      T    sub-space diagonalisation (order eigenvalues)
   LSUBROT=      F    optimize rotation matrix (better conditioning)
   TURBO    =      0    0=normal 1=particle mesh
   IRESTART =      0    0=no restart 2=restart with 2 vectors
   NREBOOT  =      0    no. of reboots
   NMIN     =      0    reboot dimension
   EREF     =   0.00    reference energy to select bands
   IMIX   =      4    mixing-type and parameters
     AMIX     =   0.40;   BMIX     =  1.00
     AMIX_MAG =   1.60;   BMIX_MAG =  1.00
     AMIN     =   0.10
     WC   =   100.;   INIMIX=   1;  MIXPRE=   1;  MAXMIX= -45

 Intra band minimization:
   WEIMIN = 0.0000     energy-eigenvalue tresh-hold
   EBREAK =  0.23E-07  absolut break condition
   DEPER  =   0.30     relativ break condition  

   TIME   =   0.40     timestep for ELM

  volume/ion in A,a.u.               =      25.79       174.01
  Fermi-wavevector in a.u.,A,eV,Ry     =   0.984040  1.859567 13.175003  0.968335
  Thomas-Fermi vector in A             =   2.115243
 
 Write flags
   LWAVE        =      T    write WAVECAR
   LDOWNSAMPLE  =      F    k-point downsampling of WAVECAR
   LCHARG       =      F    write CHGCAR
   LVTOT        =      T    write LOCPOT, total local potential
   LVHAR        =      F    write LOCPOT, Hartree potential only
   LELF         =      F    write electronic localiz. function (ELF)
   LORBIT       =     11    0 simple, 1 ext, 2 COOP (PROOUT), +10 PAW based schemes


 Dipole corrections
   LMONO  =      F    monopole corrections only (constant potential shift)
   LDIPOL =      F    correct potential (dipole corrections)
   IDIPOL =      0    1-x, 2-y, 3-z, 4-all directions 
   EPSILON=  1.0000000 bulk dielectric constant

 Exchange correlation treatment:
   GGA     =    PS    GGA type
   LEXCH   =    14    internal setting for exchange type
   LIBXC   =     F    Libxc                    
   VOSKOWN =     0    Vosko Wilk Nusair interpolation
   LHFCALC =     F    Hartree Fock is set to
   LHFONE  =     F    Hartree Fock one center treatment
   AEXX    =    0.0000 exact exchange contribution

 Linear response parameters
   LEPSILON=     F    determine dielectric tensor
   LRPA    =     F    only Hartree local field effects (RPA)
   LNABLA  =     F    use nabla operator in PAW spheres
   LVEL    =     F    velocity operator in full k-point grid
   CSHIFT  =0.0000    complex shift for real part using Kramers Kronig
   OMEGAMAX=  -1.0    maximum frequency
   DEG_THRESHOLD= 0.2000000E-02 threshold for treating states as degnerate
   RTIME   =   -0.100 relaxation time in fs
  (WPLASMAI=    0.000 imaginary part of plasma frequency in eV, 0.658/RTIME)
   DFIELD  = 0.0000000 0.0000000 0.0000000 field for delta impulse in time
 
  Optional k-point grid parameters
   LKPOINTS_OPT  =     F    use optional k-point grid
   KPOINTS_OPT_MODE=     1    mode for optional k-point grid
 
 Orbital magnetization related:
   ORBITALMAG=     F  switch on orbital magnetization
   LCHIMAG   =     F  perturbation theory with respect to B field
   DQ        =  0.001000  dq finite difference perturbation B field
   LLRAUG    =     F  two centre corrections for induced B field
   LBONE     =     F  B-component reconstruction in AE one-centre
   LVGVCALC  =     T  calculate vGv susceptibility
   LVGVAPPL  =     F  apply vGv susceptibility instead of pGv for G=0

 Random number generation:
   RANDOM_GENERATOR = DEFAULT
   PCG_SEED         = not used


--------------------------------------------------------------------------------------------------------


 Static calculation
 charge density and potential remain constant during run
 non-spin polarized calculation
 RMM-DIIS sequential band-by-band and
  variant of blocked Davidson during initial phase
 perform sub-space diagonalisation
    before iterative eigenvector-optimisation
 no mixing
 using additional bands           52
 reciprocal scheme for non local part
 use partial core corrections
 calculate Harris-corrections to forces 
   (improved forces if not selfconsistent)
 use gradient corrections 
 WARNING: stress and forces are not correct
  (second derivative of E(xc) not defined)
 use of overlap-Matrix (Vanderbilt PP)
 Fermi weights with tetrahedron method with Bloechl corrections


--------------------------------------------------------------------------------------------------------


  energy-cutoff  :      680.00
  volume of cell :      515.71
      direct lattice vectors                 reciprocal lattice vectors
     3.844732910  0.000000000  0.000000000     0.260096091  0.000000000  0.000000000
    -0.000000000 11.367141140  0.000000000     0.000000000  0.087972867  0.000000000
     0.000000000  0.000000000 11.800118450    -0.000000000 -0.000000000  0.084744912

  length of vectors
     3.844732910 11.367141140 11.800118450     0.260096091  0.087972867  0.084744912


 
 k-points in units of 2pi/SCALE and weight: pymatgen with grid density = 962 / numbe
   0.00000000  0.00000000  0.00000000       0.036
   0.03715658  0.00000000  0.00000000       0.071
   0.07431317  0.00000000  0.00000000       0.071
   0.11146975  0.00000000  0.00000000       0.071
   0.00000000  0.04398643  0.00000000       0.036
   0.03715658  0.04398643  0.00000000       0.071
   0.07431317  0.04398643  0.00000000       0.071
   0.11146975  0.04398643  0.00000000       0.071
  -0.00000000 -0.00000000  0.04237246       0.036
   0.03715658 -0.00000000  0.04237246       0.071
   0.07431317  0.00000000  0.04237246       0.071
   0.11146975  0.00000000  0.04237246       0.071
  -0.00000000  0.04398643  0.04237246       0.036
   0.03715658  0.04398643  0.04237246       0.071
   0.07431317  0.04398643  0.04237246       0.071
   0.11146975  0.04398643  0.04237246       0.071
 
 k-points in reciprocal lattice and weights: pymatgen with grid density = 962 / numbe
   0.00000000  0.00000000  0.00000000       0.036
   0.14285714  0.00000000  0.00000000       0.071
   0.28571429 -0.00000000  0.00000000       0.071
   0.42857143  0.00000000  0.00000000       0.071
   0.00000000  0.50000000  0.00000000       0.036
   0.14285714  0.50000000  0.00000000       0.071
   0.28571429  0.50000000  0.00000000       0.071
   0.42857143  0.50000000  0.00000000       0.071
   0.00000000  0.00000000  0.50000000       0.036
   0.14285714  0.00000000  0.50000000       0.071
   0.28571429  0.00000000  0.50000000       0.071
   0.42857143  0.00000000  0.50000000       0.071
   0.00000000  0.50000000  0.50000000       0.036
   0.14285714  0.50000000  0.50000000       0.071
   0.28571429  0.50000000  0.50000000       0.071
   0.42857143  0.50000000  0.50000000       0.071
 
 position of ions in fractional coordinates (direct lattice) 
   0.75000000  0.46558362  0.85735040
   0.25000000  0.53441638  0.14264960
   0.25000000  0.96558362  0.64264960
   0.75000000  0.03441638  0.35735040
   0.25000000  0.17308267  0.96694360
   0.75000000  0.82691733  0.03305640
   0.75000000  0.67308267  0.53305640
   0.25000000  0.32691733  0.46694360
   0.75000000  0.06146949  0.87592716
   0.25000000  0.93853051  0.12407284
   0.25000000  0.56146949  0.62407284
   0.75000000  0.43853051  0.37592716
   0.75000000  0.37923204  0.04854145
   0.25000000  0.62076796  0.95145855
   0.25000000  0.87923204  0.45145855
   0.75000000  0.12076796  0.54854145
   0.25000000  0.18854761  0.30024927
   0.75000000  0.81145239  0.69975073
   0.75000000  0.68854761  0.19975073
   0.25000000  0.31145239  0.80024927
 
 position of ions in cartesian coordinates  (Angst):
   2.88354968  5.29235472 10.11683627
   0.96118323  6.07478642  1.68328218
   0.96118323 10.97592529  7.58334140
   2.88354968  0.39121585  4.21677705
   0.96118323  1.96745514 11.41004901
   2.88354968  9.39968600  0.39006944
   2.88354968  7.65102571  6.29012866
   0.96118323  3.71611543  5.50998979
   2.88354968  0.69873237 10.33604424
   0.96118323 10.66840877  1.46407421
   0.96118323  6.38230294  7.36413343
   2.88354968  4.98483820  4.43598502
   2.88354968  4.31078412  0.57279486
   0.96118323  7.05635702 11.22732359
   0.96118323  9.99435469  5.32726437
   2.88354968  1.37278645  6.47285408
   0.96118323  2.14324729  3.54297695
   2.88354968  9.22389385  8.25714150
   2.88354968  7.82681786  2.35708227
   0.96118323  3.54032328  9.44303618
 


--------------------------------------------------------------------------------------------------------


 k-point   1 :   0.0000 0.0000 0.0000  plane waves:   20719
 k-point   2 :   0.1429 0.0000 0.0000  plane waves:   20747
 k-point   3 :   0.2857-0.0000 0.0000  plane waves:   20754
 k-point   4 :   0.4286 0.0000 0.0000  plane waves:   20772
 k-point   5 :   0.0000 0.5000 0.0000  plane waves:   20736
 k-point   6 :   0.1429 0.5000 0.0000  plane waves:   20766
 k-point   7 :   0.2857 0.5000 0.0000  plane waves:   20760
 k-point   8 :   0.4286 0.5000 0.0000  plane waves:   20796
 k-point   9 :   0.0000 0.0000 0.5000  plane waves:   20762
 k-point  10 :   0.1429 0.0000 0.5000  plane waves:   20776
 k-point  11 :   0.2857 0.0000 0.5000  plane waves:   20756
 k-point  12 :   0.4286 0.0000 0.5000  plane waves:   20772
 k-point  13 :   0.0000 0.5000 0.5000  plane waves:   20752
 k-point  14 :   0.1429 0.5000 0.5000  plane waves:   20716
 k-point  15 :   0.2857 0.5000 0.5000  plane waves:   20744
 k-point  16 :   0.4286 0.5000 0.5000  plane waves:   20824

 maximum and minimum number of plane-waves per node :      2104     2044

 maximum number of plane-waves:     20824
 maximum index in each direction: 
   IXMAX=    8   IYMAX=   24   IZMAX=   25
   IXMIN=   -8   IYMIN=  -24   IZMIN=  -25


 parallel 3D FFT for wavefunctions:
    minimum data exchange during FFTs selected (reduces bandwidth)
 parallel 3D FFT for charge:
    minimum data exchange during FFTs selected (reduces bandwidth)


 total amount of memory used by VASP MPI-rank0    48842. kBytes
=======================================================================

   base      :      30000. kBytes
   nonl-proj :       7704. kBytes
   fftplans  :       2416. kBytes
   grid      :       3785. kBytes
   one-center:         16. kBytes
   wavefun   :       4921. kBytes
 
     INWAV:  cpu time      0.0001: real time      0.0005
 initial charge density was supplied:
 number of electron     111.9999996 magnetization 
 keeping initial charge density in first step


--------------------------------------------------------------------------------------------------------


 Maximum index for augmentation-charges          411 (set IRDMAX)


--------------------------------------------------------------------------------------------------------


 First call to EWALD:  gamma=   0.221
 Maximum number of real-space cells 5x 2x 2
 Maximum number of reciprocal cells 2x 4x 4

    FEWALD:  cpu time      0.0028: real time      0.0029


--------------------------------------- Ionic step        1  -------------------------------------------




--------------------------------------- Iteration      1(   1)  ---------------------------------------


    POTLOK:  cpu time      0.0404: real time      0.0420
    SETDIJ:  cpu time      0.1269: real time      0.1276
     EDDAV:  cpu time      1.4221: real time      1.4316
 BZINTS: Fermi energy:   15.073578;  112.000000 electrons
         Band energy: 0.646713E+03;  BLOECHL correction:   -0.091323
       DOS:  cpu time      0.0243: real time      0.0244
    --------------------------------------------
      LOOP:  cpu time      1.6137: real time      1.6257

 eigenvalue-minimisations  :  3456
 total energy-change (2. order) : 0.6526916E+03  (-0.4775883E+04)
 number of electron     111.9999996 magnetization 
 augmentation part      111.9999996 magnetization 

 Free energy of the ion-electron system (eV)
  ---------------------------------------------------
  alpha Z        PSCENC =        44.85403091
  Ewald energy   TEWEN  =     -4141.68316538
  -Hartree energ DENC   =      -667.20592368
  -exchange      EXHF   =         0.00000000
  -V(xc)+E(xc)   XCENC  =      -207.96571413
  PAW double counting   =      8176.61858685    -7710.71200655
  entropy T*S    EENTRO =         0.00000000
  eigenvalues    EBANDS =       646.71270937
  atomic energy  EATOM  =      4512.07312557
  Solvation  Ediel_sol  =         0.00000000
  ---------------------------------------------------
  free energy    TOTEN  =       652.69164296 eV

  energy without entropy =      652.69164296  energy(sigma->0) =      652.69164296


--------------------------------------------------------------------------------------------------------




--------------------------------------- Iteration      1(   2)  ---------------------------------------


     EDDAV:  cpu time      1.5966: real time      1.6021
 BZINTS: Fermi energy:    5.799155;  112.000000 electrons
         Band energy:-0.266365E+02;  BLOECHL correction:    0.000000
       DOS:  cpu time      0.0157: real time      0.0157
    --------------------------------------------
      LOOP:  cpu time      1.6123: real time      1.6178

 eigenvalue-minimisations  :  4308
 total energy-change (2. order) :-0.6733492E+03  (-0.6252391E+03)
 number of electron     111.9999996 magnetization 
 augmentation part      111.9999996 magnetization 

 Free energy of the ion-electron system (eV)
  ---------------------------------------------------
  alpha Z        PSCENC =        44.85403091
  Ewald energy   TEWEN  =     -4141.68316538
  -Hartree energ DENC   =      -667.20592368
  -exchange      EXHF   =         0.00000000
  -V(xc)+E(xc)   XCENC  =      -207.96571413
  PAW double counting   =      8176.61858685    -7710.71200655
  entropy T*S    EENTRO =         0.00000000
  eigenvalues    EBANDS =       -26.63648354
  atomic energy  EATOM  =      4512.07312557
  Solvation  Ediel_sol  =         0.00000000
  ---------------------------------------------------
  free energy    TOTEN  =       -20.65754994 eV

  energy without entropy =      -20.65754994  energy(sigma->0) =      -20.65754994


--------------------------------------------------------------------------------------------------------




--------------------------------------- Iteration      1(   3)  ---------------------------------------


     EDDAV:  cpu time      1.5722: real time      1.5902
 BZINTS: Fermi energy:    4.501748;  112.000000 electrons
         Band energy:-0.991323E+02;  BLOECHL correction:    0.000000
       DOS:  cpu time      0.0152: real time      0.0152
    --------------------------------------------
      LOOP:  cpu time      1.5874: real time      1.6055

 eigenvalue-minimisations  :  4212
 total energy-change (2. order) :-0.7249582E+02  (-0.7086807E+02)
 number of electron     111.9999996 magnetization 
 augmentation part      111.9999996 magnetization 

 Free energy of the ion-electron system (eV)
  ---------------------------------------------------
  alpha Z        PSCENC =        44.85403091
  Ewald energy   TEWEN  =     -4141.68316538
  -Hartree energ DENC   =      -667.20592368
  -exchange      EXHF   =         0.00000000
  -V(xc)+E(xc)   XCENC  =      -207.96571413
  PAW double counting   =      8176.61858685    -7710.71200655
  entropy T*S    EENTRO =         0.00000000
  eigenvalues    EBANDS =       -99.13230353
  atomic energy  EATOM  =      4512.07312557
  Solvation  Ediel_sol  =         0.00000000
  ---------------------------------------------------
  free energy    TOTEN  =       -93.15336994 eV

  energy without entropy =      -93.15336994  energy(sigma->0) =      -93.15336994


--------------------------------------------------------------------------------------------------------




--------------------------------------- Iteration      1(   4)  ---------------------------------------


     EDDAV:  cpu time      1.5364: real time      1.5550
 BZINTS: Fermi energy:    4.451221;  112.000000 electrons
         Band energy:-0.100569E+03;  BLOECHL correction:    0.000000
       DOS:  cpu time      0.0148: real time      0.0149
    --------------------------------------------
      LOOP:  cpu time      1.5512: real time      1.5699

 eigenvalue-minimisations  :  4104
 total energy-change (2. order) :-0.1436670E+01  (-0.1432336E+01)
 number of electron     111.9999996 magnetization 
 augmentation part      111.9999996 magnetization 

 Free energy of the ion-electron system (eV)
  ---------------------------------------------------
  alpha Z        PSCENC =        44.85403091
  Ewald energy   TEWEN  =     -4141.68316538
  -Hartree energ DENC   =      -667.20592368
  -exchange      EXHF   =         0.00000000
  -V(xc)+E(xc)   XCENC  =      -207.96571413
  PAW double counting   =      8176.61858685    -7710.71200655
  entropy T*S    EENTRO =         0.00000000
  eigenvalues    EBANDS =      -100.56897313
  atomic energy  EATOM  =      4512.07312557
  Solvation  Ediel_sol  =         0.00000000
  ---------------------------------------------------
  free energy    TOTEN  =       -94.59003953 eV

  energy without entropy =      -94.59003953  energy(sigma->0) =      -94.59003953


--------------------------------------------------------------------------------------------------------




--------------------------------------- Iteration      1(   5)  ---------------------------------------


     EDDAV:  cpu time      1.6017: real time      1.6232
 BZINTS: Fermi energy:    4.459718;  112.000000 electrons
         Band energy:-0.100594E+03;  BLOECHL correction:    0.000000
       DOS:  cpu time      0.0147: real time      0.0148
    --------------------------------------------
      LOOP:  cpu time      1.6164: real time      1.6380

 eigenvalue-minimisations  :  4200
 total energy-change (2. order) :-0.2518851E-01  (-0.2518479E-01)
 number of electron     111.9999996 magnetization 
 augmentation part      111.9999996 magnetization 

 Free energy of the ion-electron system (eV)
  ---------------------------------------------------
  alpha Z        PSCENC =        44.85403091
  Ewald energy   TEWEN  =     -4141.68316538
  -Hartree energ DENC   =      -667.20592368
  -exchange      EXHF   =         0.00000000
  -V(xc)+E(xc)   XCENC  =      -207.96571413
  PAW double counting   =      8176.61858685    -7710.71200655
  entropy T*S    EENTRO =         0.00000000
  eigenvalues    EBANDS =      -100.59416164
  atomic energy  EATOM  =      4512.07312557
  Solvation  Ediel_sol  =         0.00000000
  ---------------------------------------------------
  free energy    TOTEN  =       -94.61522804 eV

  energy without entropy =      -94.61522804  energy(sigma->0) =      -94.61522804


--------------------------------------------------------------------------------------------------------




--------------------------------------- Iteration      1(   6)  ---------------------------------------


    EDDIAG:  cpu time      0.3398: real time      0.3557
  RMM-DIIS:  cpu time      0.7884: real time      0.7907
    ORTHCH:  cpu time      0.0567: real time      0.0569
 BZINTS: Fermi energy:    4.452081;  112.000000 electrons
         Band energy:-0.100595E+03;  BLOECHL correction:    0.000000
       DOS:  cpu time      0.0146: real time      0.0146
    --------------------------------------------
      LOOP:  cpu time      1.1996: real time      1.2178

 eigenvalue-minimisations  :  3655
 total energy-change (2. order) :-0.6273421E-03  (-0.6273421E-03)
 number of electron     111.9999996 magnetization 
 augmentation part      111.9999996 magnetization 

 Free energy of the ion-electron system (eV)
  ---------------------------------------------------
  alpha Z        PSCENC =        44.85403091
  Ewald energy   TEWEN  =     -4141.68316538
  -Hartree energ DENC   =      -667.20592368
  -exchange      EXHF   =         0.00000000
  -V(xc)+E(xc)   XCENC  =      -207.96571413
  PAW double counting   =      8176.61858685    -7710.71200655
  entropy T*S    EENTRO =         0.00000000
  eigenvalues    EBANDS =      -100.59478898
  atomic energy  EATOM  =      4512.07312557
  Solvation  Ediel_sol  =         0.00000000
  ---------------------------------------------------
  free energy    TOTEN  =       -94.61585538 eV

  energy without entropy =      -94.61585538  energy(sigma->0) =      -94.61585538


--------------------------------------------------------------------------------------------------------




--------------------------------------- Iteration      1(   7)  ---------------------------------------


    EDDIAG:  cpu time      0.4150: real time      0.4289
  RMM-DIIS:  cpu time      1.0716: real time      1.0745
    ORTHCH:  cpu time      0.0589: real time      0.0590
 BZINTS: Fermi energy:    4.460693;  112.000000 electrons
         Band energy:-0.100595E+03;  BLOECHL correction:    0.000000
       DOS:  cpu time      0.0146: real time      0.0146
    --------------------------------------------
      LOOP:  cpu time      1.5600: real time      1.5770

 eigenvalue-minimisations  :  4669
 total energy-change (2. order) :-0.1335191E-03  (-0.1307426E-03)
 number of electron     111.9999996 magnetization 
 augmentation part      111.9999996 magnetization 

 Free energy of the ion-electron system (eV)
  ---------------------------------------------------
  alpha Z        PSCENC =        44.85403091
  Ewald energy   TEWEN  =     -4141.68316538
  -Hartree energ DENC   =      -667.20592368
  -exchange      EXHF   =         0.00000000
  -V(xc)+E(xc)   XCENC  =      -207.96571413
  PAW double counting   =      8176.61858685    -7710.71200655
  entropy T*S    EENTRO =         0.00000000
  eigenvalues    EBANDS =      -100.59492250
  atomic energy  EATOM  =      4512.07312557
  Solvation  Ediel_sol  =         0.00000000
  ---------------------------------------------------
  free energy    TOTEN  =       -94.61598890 eV

  energy without entropy =      -94.61598890  energy(sigma->0) =      -94.61598890


--------------------------------------------------------------------------------------------------------




--------------------------------------- Iteration      1(   8)  ---------------------------------------


    EDDIAG:  cpu time      0.3539: real time      0.3698
  RMM-DIIS:  cpu time      1.0774: real time      1.0802
    ORTHCH:  cpu time      0.0589: real time      0.0590
 BZINTS: Fermi energy:    4.457679;  112.000000 electrons
         Band energy:-0.100595E+03;  BLOECHL correction:    0.000000
       DOS:  cpu time      0.0148: real time      0.0149
    --------------------------------------------
      LOOP:  cpu time      1.5050: real time      1.5239

 eigenvalue-minimisations  :  4810
 total energy-change (2. order) :-0.2865556E-04  (-0.2837016E-04)
 number of electron     111.9999996 magnetization 
 augmentation part      111.9999996 magnetization 

 Free energy of the ion-electron system (eV)
  ---------------------------------------------------
  alpha Z        PSCENC =        44.85403091
  Ewald energy   TEWEN  =     -4141.68316538
  -Hartree energ DENC   =      -667.20592368
  -exchange      EXHF   =         0.00000000
  -V(xc)+E(xc)   XCENC  =      -207.96571413
  PAW double counting   =      8176.61858685    -7710.71200655
  entropy T*S    EENTRO =         0.00000000
  eigenvalues    EBANDS =      -100.59495115
  atomic energy  EATOM  =      4512.07312557
  Solvation  Ediel_sol  =         0.00000000
  ---------------------------------------------------
  free energy    TOTEN  =       -94.61601756 eV

  energy without entropy =      -94.61601756  energy(sigma->0) =      -94.61601756


--------------------------------------------------------------------------------------------------------




--------------------------------------- Iteration      1(   9)  ---------------------------------------


    EDDIAG:  cpu time      0.3618: real time      0.3783
  RMM-DIIS:  cpu time      0.8161: real time      0.8184
    ORTHCH:  cpu time      0.0576: real time      0.0577
 BZINTS: Fermi energy:    4.454186;  112.000000 electrons
         Band energy:-0.100595E+03;  BLOECHL correction:    0.000000
       DOS:  cpu time      0.0147: real time      0.0147
    --------------------------------------------
      LOOP:  cpu time      1.2501: real time      1.2692

 eigenvalue-minimisations  :  3450
 total energy-change (2. order) :-0.1723393E-05  (-0.1712627E-05)
 number of electron     111.9999996 magnetization 
 augmentation part      111.9999996 magnetization 

 Free energy of the ion-electron system (eV)
  ---------------------------------------------------
  alpha Z        PSCENC =        44.85403091
  Ewald energy   TEWEN  =     -4141.68316538
  -Hartree energ DENC   =      -667.20592368
  -exchange      EXHF   =         0.00000000
  -V(xc)+E(xc)   XCENC  =      -207.96571413
  PAW double counting   =      8176.61858685    -7710.71200655
  entropy T*S    EENTRO =         0.00000000
  eigenvalues    EBANDS =      -100.59495288
  atomic energy  EATOM  =      4512.07312557
  Solvation  Ediel_sol  =         0.00000000
  ---------------------------------------------------
  free energy    TOTEN  =       -94.61601928 eV

  energy without entropy =      -94.61601928  energy(sigma->0) =      -94.61601928


--------------------------------------------------------------------------------------------------------




 average (electrostatic) potential at core
  the test charge radii are     1.1712  0.9698
  (the norm of the test charge is              1.0000)
       1 -88.0394       2 -88.0394       3 -88.0394       4 -88.0394       5 -88.0956
       6 -88.0956       7 -88.0956       8 -88.0956       9 -86.4283      10 -86.4283
      11 -86.4283      12 -86.4283      13 -86.4583      14 -86.4583      15 -86.4583
      16 -86.4583      17 -86.5004      18 -86.5004      19 -86.5004      20 -86.5004
 
 
 
 E-fermi :   4.4542     XC(G=0):  -9.2976     alpha+bet :-10.3158

 Fermi energy:         4.4541862242

 k-point     1 :       0.0000    0.0000    0.0000
  band No.  band energies     occupation 
      1      -9.6379      2.00000
      2      -9.4633      2.00000
      3      -8.9714      2.00000
      4      -8.8710      2.00000
      5      -8.7344      2.00000
      6      -8.5899      2.00000
      7      -7.8947      2.00000
      8      -7.6251      2.00000
      9      -7.6036      2.00000
     10      -7.4036      2.00000
     11      -7.3648      2.00000
     12      -7.2865      2.00000
     13      -4.3697      2.00000
     14      -4.1611      2.00000
     15      -3.9594      2.00000
     16      -3.5059      2.00000
     17      -3.3170      2.00000
     18      -3.2543      2.00000
     19      -2.1618      2.00000
     20      -1.7110      2.00000
     21      -0.0340      2.00000
     22       0.0482      2.00000
     23       0.3634      2.00000
     24       0.5368      2.00000
     25       0.8692      2.00000
     26       1.1005      2.00000
     27       1.1017      2.00000
     28       1.1143      2.00000
     29       1.3326      2.00000
     30       1.5347      2.00000
     31       1.6707      2.00000
     32       1.7913      2.00000
     33       1.7960      2.00000
     34       1.9040      2.00000
     35       2.0431      2.00000
     36       2.1740      2.00000
     37       2.2484      2.00000
     38       2.3503      2.00000
     39       2.5554      2.00000
     40       2.6446      2.00000
     41       2.7910      2.00000
     42       3.1202      2.00000
     43       3.2159      2.00000
     44       3.2224      2.00000
     45       3.3563      2.00000
     46       3.4119      2.00000
     47       3.4867      2.00000
     48       3.4886      2.00000
     49       3.5510      2.00000
     50       3.5720      2.00000
     51       4.0169      2.00000
     52       4.0512      2.00000
     53       4.2742      2.00000
     54       4.2969      2.00000
     55       4.3628      2.00000
     56       4.4487      2.00000
     57       5.9351      0.00000
     58       6.0083      0.00000
     59       6.0204      0.00000
     60       6.1603      0.00000
     61       6.5163      0.00000
     62       6.5597      0.00000
     63       6.8990      0.00000
     64       7.1540      0.00000
     65       7.1720      0.00000
     66       7.2777      0.00000
     67       7.3088      0.00000
     68       7.4904      0.00000
     69       7.7069      0.00000
     70       7.7070      0.00000
     71       7.8011      0.00000
     72       7.9297      0.00000
     73       7.9614      0.00000
     74       8.0676      0.00000
     75       8.3095      0.00000
     76       8.5823      0.00000
     77       8.7508      0.00000
     78       9.0444      0.00000
     79       9.3551      0.00000
     80       9.4852      0.00000
     81       9.5883      0.00000
     82       9.6061      0.00000
     83      10.8342      0.00000
     84      11.0240      0.00000
     85      11.1312      0.00000
     86      11.6546      0.00000
     87      11.7165      0.00000
     88      11.7897      0.00000
     89      11.9319      0.00000
     90      12.0238      0.00000
     91      12.1897      0.00000
     92      12.5885      0.00000
     93      12.6893      0.00000
     94      12.6936      0.00000
     95      12.7757      0.00000
     96      12.8042      0.00000
     97      12.8555      0.00000
     98      12.9237      0.00000
     99      12.9684      0.00000
    100      13.0823      0.00000
    101      13.2378      0.00000
    102      13.5925      0.00000
    103      13.6509      0.00000
    104      13.8325      0.00000
    105      13.9649      0.00000
    106      14.0040      0.00000
    107      14.0580      0.00000
    108      14.1980      0.00000

 k-point     2 :       0.1429    0.0000    0.0000
  band No.  band energies     occupation 
      1      -9.4850      2.00000
      2      -9.3157      2.00000
      3      -8.8319      2.00000
      4      -8.7353      2.00000
      5      -8.5898      2.00000
      6      -8.4578      2.00000
      7      -7.7844      2.00000
      8      -7.5509      2.00000
      9      -7.5463      2.00000
     10      -7.3575      2.00000
     11      -7.3175      2.00000
     12      -7.2703      2.00000
     13      -4.4562      2.00000
     14      -4.2734      2.00000
     15      -3.9287      2.00000
     16      -3.5603      2.00000
     17      -3.3774      2.00000
     18      -3.3214      2.00000
     19      -2.3035      2.00000
     20      -2.0048      2.00000
     21      -0.0461      2.00000
     22       0.1153      2.00000
     23       0.3450      2.00000
     24       0.3502      2.00000
     25       0.3707      2.00000
     26       0.5167      2.00000
     27       0.7627      2.00000
     28       0.7858      2.00000
     29       0.8069      2.00000
     30       1.0078      2.00000
     31       1.2283      2.00000
     32       1.3514      2.00000
     33       1.6921      2.00000
     34       1.8336      2.00000
     35       1.8529      2.00000
     36       2.1694      2.00000
     37       2.2518      2.00000
     38       2.3484      2.00000
     39       2.4256      2.00000
     40       2.4671      2.00000
     41       2.6004      2.00000
     42       2.6782      2.00000
     43       2.9285      2.00000
     44       3.0398      2.00000
     45       3.1652      2.00000
     46       3.4545      2.00000
     47       3.5206      2.00000
     48       3.5587      2.00000
     49       3.6564      2.00000
     50       3.8313      2.00000
     51       3.9972      2.00000
     52       4.0392      2.00000
     53       4.2237      2.00000
     54       4.2678      2.00000
     55       4.2791      2.00000
     56       4.3411      2.00000
     57       6.2061      0.00000
     58       6.3817      0.00000
     59       6.5065      0.00000
     60       6.7477      0.00000
     61       6.8813      0.00000
     62       6.8979      0.00000
     63       7.0838      0.00000
     64       7.2087      0.00000
     65       7.2620      0.00000
     66       7.3152      0.00000
     67       7.3374      0.00000
     68       7.3585      0.00000
     69       7.6380      0.00000
     70       7.8835      0.00000
     71       7.9071      0.00000
     72       8.2088      0.00000
     73       8.3883      0.00000
     74       8.4550      0.00000
     75       8.5606      0.00000
     76       8.6753      0.00000
     77       8.7981      0.00000
     78       8.9863      0.00000
     79       9.4516      0.00000
     80       9.5919      0.00000
     81       9.7622      0.00000
     82      10.0924      0.00000
     83      10.8417      0.00000
     84      10.9694      0.00000
     85      11.0302      0.00000
     86      11.1135      0.00000
     87      11.3054      0.00000
     88      11.6045      0.00000
     89      11.6284      0.00000
     90      11.7992      0.00000
     91      11.8123      0.00000
     92      11.9983      0.00000
     93      12.3099      0.00000
     94      12.3679      0.00000
     95      12.5633      0.00000
     96      12.8473      0.00000
     97      12.9165      0.00000
     98      13.0090      0.00000
     99      13.1817      0.00000
    100      13.4168      0.00000
    101      13.5956      0.00000
    102      13.6079      0.00000
    103      13.7289      0.00000
    104      14.0135      0.00000
    105      14.0822      0.00000
    106      14.1932      0.00000
    107      14.3823      0.00000
    108      14.4164      0.00000

 k-point     3 :       0.2857   -0.0000    0.0000
  band No.  band energies     occupation 
      1      -9.0464      2.00000
      2      -8.8948      2.00000
      3      -8.4460      2.00000
      4      -8.3619      2.00000
      5      -8.1895      2.00000
      6      -8.1031      2.00000
      7      -7.5278      2.00000
      8      -7.4614      2.00000
      9      -7.4425      2.00000
     10      -7.3270      2.00000
     11      -7.2868      2.00000
     12      -7.2335      2.00000
     13      -4.6253      2.00000
     14      -4.5435      2.00000
     15      -3.9399      2.00000
     16      -3.8373      2.00000
     17      -3.6776      2.00000
     18      -3.5474      2.00000
     19      -2.8634      2.00000
     20      -2.8440      2.00000
     21      -0.4461      2.00000
     22      -0.3777      2.00000
     23      -0.3380      2.00000
     24      -0.2363      2.00000
     25       0.1472      2.00000
     26       0.3112      2.00000
     27       0.3960      2.00000
     28       0.4533      2.00000
     29       0.7293      2.00000
     30       0.8752      2.00000
     31       0.9795      2.00000
     32       1.1915      2.00000
     33       1.2124      2.00000
     34       1.3117      2.00000
     35       1.5921      2.00000
     36       1.6562      2.00000
     37       1.8447      2.00000
     38       1.8584      2.00000
     39       2.0282      2.00000
     40       2.4322      2.00000
     41       2.4876      2.00000
     42       2.5697      2.00000
     43       2.7558      2.00000
     44       2.9284      2.00000
     45       3.0240      2.00000
     46       3.0952      2.00000
     47       3.3268      2.00000
     48       3.3342      2.00000
     49       3.4928      2.00000
     50       3.5904      2.00000
     51       3.6131      2.00000
     52       3.6501      2.00000
     53       4.0355      2.00000
     54       4.0451      2.00000
     55       4.0476      2.00000
     56       4.0915      2.00000
     57       6.1429      0.00000
     58       6.5869      0.00000
     59       6.7110      0.00000
     60       6.9371      0.00000
     61       7.1067      0.00000
     62       7.2518      0.00000
     63       7.4100      0.00000
     64       7.5130      0.00000
     65       7.5859      0.00000
     66       7.6661      0.00000
     67       7.7357      0.00000
     68       7.8381      0.00000
     69       8.0284      0.00000
     70       8.3160      0.00000
     71       8.3161      0.00000
     72       8.3970      0.00000
     73       8.4124      0.00000
     74       8.4288      0.00000
     75       8.8113      0.00000
     76       9.0334      0.00000
     77       9.2613      0.00000
     78       9.4501      0.00000
     79       9.4675      0.00000
     80       9.5680      0.00000
     81      10.1494      0.00000
     82      10.3634      0.00000
     83      10.4961      0.00000
     84      10.8224      0.00000
     85      10.9036      0.00000
     86      11.1201      0.00000
     87      11.4620      0.00000
     88      11.4929      0.00000
     89      11.6056      0.00000
     90      12.0793      0.00000
     91      12.1282      0.00000
     92      12.3286      0.00000
     93      12.4801      0.00000
     94      12.5615      0.00000
     95      12.7736      0.00000
     96      12.7981      0.00000
     97      12.8309      0.00000
     98      12.9764      0.00000
     99      13.0984      0.00000
    100      13.2302      0.00000
    101      13.4926      0.00000
    102      13.5467      0.00000
    103      13.7169      0.00000
    104      14.0088      0.00000
    105      14.0101      0.00000
    106      14.1114      0.00000
    107      14.3475      0.00000
    108      14.6544      0.00000

 k-point     4 :       0.4286    0.0000    0.0000
  band No.  band energies     occupation 
      1      -8.3984      2.00000
      2      -8.2848      2.00000
      3      -7.9422      2.00000
      4      -7.8863      2.00000
      5      -7.7258      2.00000
      6      -7.7148      2.00000
      7      -7.6836      2.00000
      8      -7.6834      2.00000
      9      -7.5151      2.00000
     10      -7.3406      2.00000
     11      -7.3398      2.00000
     12      -7.2725      2.00000
     13      -4.5465      2.00000
     14      -4.5055      2.00000
     15      -4.2320      2.00000
     16      -4.1368      2.00000
     17      -4.0816      2.00000
     18      -3.8538      2.00000
     19      -3.7302      2.00000
     20      -3.7078      2.00000
     21      -0.7068      2.00000
     22      -0.6825      2.00000
     23      -0.6456      2.00000
     24      -0.5924      2.00000
     25       0.2402      2.00000
     26       0.3946      2.00000
     27       0.4494      2.00000
     28       0.4835      2.00000
     29       0.5853      2.00000
     30       0.7701      2.00000
     31       0.9508      2.00000
     32       1.1559      2.00000
     33       1.1721      2.00000
     34       1.2152      2.00000
     35       1.3516      2.00000
     36       1.4677      2.00000
     37       1.6412      2.00000
     38       1.6678      2.00000
     39       1.7855      2.00000
     40       1.9142      2.00000
     41       2.1320      2.00000
     42       2.1615      2.00000
     43       2.2904      2.00000
     44       2.4182      2.00000
     45       3.0491      2.00000
     46       3.0730      2.00000
     47       3.0830      2.00000
     48       3.1320      2.00000
     49       3.1915      2.00000
     50       3.2575      2.00000
     51       3.4183      2.00000
     52       3.4625      2.00000
     53       3.8657      2.00000
     54       3.9334      2.00000
     55       4.0972      2.00000
     56       4.2804      2.00000
     57       6.5778      0.00000
     58       6.6778      0.00000
     59       6.7486      0.00000
     60       6.7547      0.00000
     61       6.9458      0.00000
     62       6.9608      0.00000
     63       7.1422      0.00000
     64       7.1755      0.00000
     65       7.4713      0.00000
     66       7.6887      0.00000
     67       7.9407      0.00000
     68       7.9943      0.00000
     69       8.0233      0.00000
     70       8.2568      0.00000
     71       8.3833      0.00000
     72       8.5060      0.00000
     73       8.5301      0.00000
     74       8.5570      0.00000
     75       8.6487      0.00000
     76       8.9175      0.00000
     77       9.4096      0.00000
     78       9.6945      0.00000
     79       9.7434      0.00000
     80       9.7531      0.00000
     81      10.0691      0.00000
     82      10.1339      0.00000
     83      10.3810      0.00000
     84      10.5838      0.00000
     85      11.0180      0.00000
     86      11.1885      0.00000
     87      11.3428      0.00000
     88      11.4445      0.00000
     89      11.9581      0.00000
     90      11.9998      0.00000
     91      12.5695      0.00000
     92      12.8835      0.00000
     93      12.9228      0.00000
     94      13.0472      0.00000
     95      13.3145      0.00000
     96      13.3760      0.00000
     97      13.4587      0.00000
     98      13.4972      0.00000
     99      13.8111      0.00000
    100      14.0551      0.00000
    101      14.2773      0.00000
    102      14.4877      0.00000
    103      14.5086      0.00000
    104      14.6325      0.00000
    105      14.6439      0.00000
    106      14.7963      0.00000
    107      14.8873      0.00000
    108      14.9844      0.00000

 k-point     5 :       0.0000    0.5000    0.0000
  band No.  band energies     occupation 
      1      -9.5198      2.00000
      2      -9.5198      2.00000
      3      -9.1128      2.00000
      4      -9.1128      2.00000
      5      -8.3413      2.00000
      6      -8.3413      2.00000
      7      -8.0297      2.00000
      8      -8.0297      2.00000
      9      -7.3928      2.00000
     10      -7.3928      2.00000
     11      -7.3259      2.00000
     12      -7.3259      2.00000
     13      -4.2367      2.00000
     14      -4.2367      2.00000
     15      -3.9934      2.00000
     16      -3.9934      2.00000
     17      -2.9198      2.00000
     18      -2.9198      2.00000
     19      -2.0570      2.00000
     20      -2.0570      2.00000
     21       0.0416      2.00000
     22       0.0416      2.00000
     23       0.2153      2.00000
     24       0.2153      2.00000
     25       0.8310      2.00000
     26       0.8310      2.00000
     27       1.2795      2.00000
     28       1.2795      2.00000
     29       1.4809      2.00000
     30       1.4809      2.00000
     31       1.9040      2.00000
     32       1.9040      2.00000
     33       2.0044      2.00000
     34       2.0044      2.00000
     35       2.1841      2.00000
     36       2.1841      2.00000
     37       2.2489      2.00000
     38       2.2489      2.00000
     39       2.5921      2.00000
     40       2.5921      2.00000
     41       2.7735      2.00000
     42       2.7735      2.00000
     43       3.1781      2.00000
     44       3.1781      2.00000
     45       3.4323      2.00000
     46       3.4323      2.00000
     47       3.5133      2.00000
     48       3.5133      2.00000
     49       3.5547      2.00000
     50       3.5547      2.00000
     51       3.8930      2.00000
     52       3.8930      2.00000
     53       4.2759      2.00000
     54       4.2759      2.00000
     55       4.4082      2.00000
     56       4.4082      2.00000
     57       5.7058      0.00000
     58       5.7058      0.00000
     59       6.5698      0.00000
     60       6.5698      0.00000
     61       6.7416      0.00000
     62       6.7416      0.00000
     63       7.0651      0.00000
     64       7.0651      0.00000
     65       7.1045      0.00000
     66       7.1045      0.00000
     67       7.1613      0.00000
     68       7.1613      0.00000
     69       7.4312      0.00000
     70       7.4312      0.00000
     71       7.9401      0.00000
     72       7.9401      0.00000
     73       8.1450      0.00000
     74       8.1450      0.00000
     75       8.8138      0.00000
     76       8.8138      0.00000
     77       8.9906      0.00000
     78       8.9906      0.00000
     79       9.0288      0.00000
     80       9.0288      0.00000
     81       9.4991      0.00000
     82       9.4991      0.00000
     83      10.8420      0.00000
     84      10.8420      0.00000
     85      11.4290      0.00000
     86      11.4290      0.00000
     87      11.7567      0.00000
     88      11.7567      0.00000
     89      12.1042      0.00000
     90      12.1042      0.00000
     91      12.6199      0.00000
     92      12.6199      0.00000
     93      12.6670      0.00000
     94      12.6671      0.00000
     95      12.7127      0.00000
     96      12.7127      0.00000
     97      12.9562      0.00000
     98      12.9563      0.00000
     99      13.1094      0.00000
    100      13.1107      0.00000
    101      13.3194      0.00000
    102      13.3214      0.00000
    103      13.7396      0.00000
    104      13.7405      0.00000
    105      13.7450      0.00000
    106      13.7535      0.00000
    107      13.8577      0.00000
    108      13.8793      0.00000

 k-point     6 :       0.1429    0.5000    0.0000
  band No.  band energies     occupation 
      1      -9.3712      2.00000
      2      -9.3712      2.00000
      3      -8.9651      2.00000
      4      -8.9651      2.00000
      5      -8.2190      2.00000
      6      -8.2190      2.00000
      7      -7.9221      2.00000
      8      -7.9221      2.00000
      9      -7.3483      2.00000
     10      -7.3483      2.00000
     11      -7.2956      2.00000
     12      -7.2956      2.00000
     13      -4.3073      2.00000
     14      -4.3073      2.00000
     15      -4.0294      2.00000
     16      -4.0294      2.00000
     17      -2.9876      2.00000
     18      -2.9876      2.00000
     19      -2.2843      2.00000
     20      -2.2843      2.00000
     21       0.1063      2.00000
     22       0.1063      2.00000
     23       0.1843      2.00000
     24       0.1843      2.00000
     25       0.3112      2.00000
     26       0.3112      2.00000
     27       0.8194      2.00000
     28       0.8194      2.00000
     29       1.1369      2.00000
     30       1.1369      2.00000
     31       1.4408      2.00000
     32       1.4408      2.00000
     33       1.6754      2.00000
     34       1.6754      2.00000
     35       1.9055      2.00000
     36       1.9055      2.00000
     37       2.2763      2.00000
     38       2.2763      2.00000
     39       2.4509      2.00000
     40       2.4509      2.00000
     41       2.6142      2.00000
     42       2.6142      2.00000
     43       2.8708      2.00000
     44       2.8708      2.00000
     45       3.2395      2.00000
     46       3.2395      2.00000
     47       3.5683      2.00000
     48       3.5683      2.00000
     49       3.9330      2.00000
     50       3.9330      2.00000
     51       4.1424      2.00000
     52       4.1424      2.00000
     53       4.1717      2.00000
     54       4.1717      2.00000
     55       4.2782      2.00000
     56       4.2782      2.00000
     57       6.4545      0.00000
     58       6.4545      0.00000
     59       6.7347      0.00000
     60       6.7347      0.00000
     61       6.7721      0.00000
     62       6.7721      0.00000
     63       7.0357      0.00000
     64       7.0357      0.00000
     65       7.2463      0.00000
     66       7.2463      0.00000
     67       7.3169      0.00000
     68       7.3169      0.00000
     69       7.6132      0.00000
     70       7.6132      0.00000
     71       7.9957      0.00000
     72       7.9957      0.00000
     73       8.4160      0.00000
     74       8.4160      0.00000
     75       8.7674      0.00000
     76       8.7674      0.00000
     77       9.0417      0.00000
     78       9.0417      0.00000
     79       9.5185      0.00000
     80       9.5185      0.00000
     81       9.8016      0.00000
     82       9.8016      0.00000
     83      10.8887      0.00000
     84      10.8887      0.00000
     85      11.0855      0.00000
     86      11.0855      0.00000
     87      11.4297      0.00000
     88      11.4297      0.00000
     89      11.7822      0.00000
     90      11.7822      0.00000
     91      12.1255      0.00000
     92      12.1255      0.00000
     93      12.4310      0.00000
     94      12.4310      0.00000
     95      12.8427      0.00000
     96      12.8427      0.00000
     97      12.9872      0.00000
     98      12.9872      0.00000
     99      13.0873      0.00000
    100      13.0874      0.00000
    101      13.3027      0.00000
    102      13.3032      0.00000
    103      13.7104      0.00000
    104      13.7120      0.00000
    105      14.0130      0.00000
    106      14.0218      0.00000
    107      14.2068      0.00000
    108      14.2733      0.00000

 k-point     7 :       0.2857    0.5000    0.0000
  band No.  band energies     occupation 
      1      -8.9466      2.00000
      2      -8.9466      2.00000
      3      -8.5505      2.00000
      4      -8.5505      2.00000
      5      -7.9070      2.00000
      6      -7.9070      2.00000
      7      -7.6557      2.00000
      8      -7.6557      2.00000
      9      -7.3544      2.00000
     10      -7.3544      2.00000
     11      -7.2482      2.00000
     12      -7.2482      2.00000
     13      -4.4799      2.00000
     14      -4.4799      2.00000
     15      -4.1938      2.00000
     16      -4.1938      2.00000
     17      -3.3101      2.00000
     18      -3.3101      2.00000
     19      -2.9507      2.00000
     20      -2.9507      2.00000
     21      -0.4352      2.00000
     22      -0.4352      2.00000
     23      -0.2224      2.00000
     24      -0.2224      2.00000
     25       0.1950      2.00000
     26       0.1950      2.00000
     27       0.5499      2.00000
     28       0.5499      2.00000
     29       0.5803      2.00000
     30       0.5803      2.00000
     31       1.0854      2.00000
     32       1.0854      2.00000
     33       1.3547      2.00000
     34       1.3547      2.00000
     35       1.6572      2.00000
     36       1.6572      2.00000
     37       1.8496      2.00000
     38       1.8496      2.00000
     39       2.1445      2.00000
     40       2.1445      2.00000
     41       2.5148      2.00000
     42       2.5148      2.00000
     43       2.7195      2.00000
     44       2.7195      2.00000
     45       3.1831      2.00000
     46       3.1831      2.00000
     47       3.2679      2.00000
     48       3.2679      2.00000
     49       3.5744      2.00000
     50       3.5744      2.00000
     51       3.7745      2.00000
     52       3.7745      2.00000
     53       4.0325      2.00000
     54       4.0325      2.00000
     55       4.0929      2.00000
     56       4.0929      2.00000
     57       6.4211      0.00000
     58       6.4211      0.00000
     59       6.5797      0.00000
     60       6.5797      0.00000
     61       7.0655      0.00000
     62       7.0655      0.00000
     63       7.5337      0.00000
     64       7.5337      0.00000
     65       7.6019      0.00000
     66       7.6019      0.00000
     67       7.9202      0.00000
     68       7.9202      0.00000
     69       8.1484      0.00000
     70       8.1484      0.00000
     71       8.1654      0.00000
     72       8.1654      0.00000
     73       8.6898      0.00000
     74       8.6898      0.00000
     75       9.1290      0.00000
     76       9.1290      0.00000
     77       9.3131      0.00000
     78       9.3131      0.00000
     79       9.3993      0.00000
     80       9.3993      0.00000
     81      10.0757      0.00000
     82      10.0757      0.00000
     83      10.7274      0.00000
     84      10.7274      0.00000
     85      11.2024      0.00000
     86      11.2024      0.00000
     87      11.4253      0.00000
     88      11.4253      0.00000
     89      11.9109      0.00000
     90      11.9109      0.00000
     91      12.1332      0.00000
     92      12.1332      0.00000
     93      12.4010      0.00000
     94      12.4010      0.00000
     95      12.7844      0.00000
     96      12.7844      0.00000
     97      12.9198      0.00000
     98      12.9198      0.00000
     99      13.5069      0.00000
    100      13.5080      0.00000
    101      13.6038      0.00000
    102      13.6083      0.00000
    103      13.7849      0.00000
    104      13.7865      0.00000
    105      14.1187      0.00000
    106      14.1542      0.00000
    107      14.2817      0.00000
    108      14.4049      0.00000

 k-point     8 :       0.4286    0.5000    0.0000
  band No.  band energies     occupation 
      1      -8.3270      2.00000
      2      -8.3270      2.00000
      3      -7.9893      2.00000
      4      -7.9893      2.00000
      5      -7.7076      2.00000
      6      -7.7076      2.00000
      7      -7.6291      2.00000
      8      -7.6291      2.00000
      9      -7.4106      2.00000
     10      -7.4106      2.00000
     11      -7.3289      2.00000
     12      -7.3289      2.00000
     13      -4.4475      2.00000
     14      -4.4475      2.00000
     15      -4.3569      2.00000
     16      -4.3569      2.00000
     17      -3.8664      2.00000
     18      -3.8664      2.00000
     19      -3.7252      2.00000
     20      -3.7252      2.00000
     21      -0.7339      2.00000
     22      -0.7339      2.00000
     23      -0.4911      2.00000
     24      -0.4911      2.00000
     25       0.2113      2.00000
     26       0.2113      2.00000
     27       0.3117      2.00000
     28       0.3117      2.00000
     29       0.6567      2.00000
     30       0.6567      2.00000
     31       0.9603      2.00000
     32       0.9603      2.00000
     33       1.2259      2.00000
     34       1.2259      2.00000
     35       1.5019      2.00000
     36       1.5019      2.00000
     37       1.6938      2.00000
     38       1.6938      2.00000
     39       2.0478      2.00000
     40       2.0478      2.00000
     41       2.3065      2.00000
     42       2.3065      2.00000
[...]
   26.743380    0.652471    0.652397    0.649194    0.000000   -0.000000   -0.000000
   26.758287    0.652890    0.652818    0.649623    0.000000   -0.000000   -0.000000
   26.773194    0.653309    0.653238    0.650051    0.000000   -0.000000   -0.000000
   26.788101    0.653727    0.653657    0.650478    0.000000   -0.000000   -0.000000
   26.803008    0.654144    0.654075    0.650904    0.000000   -0.000000   -0.000000
   26.817916    0.654560    0.654493    0.651330    0.000000   -0.000000   -0.000000
   26.832823    0.654975    0.654910    0.651754    0.000000   -0.000000   -0.000000
   26.847730    0.655390    0.655326    0.652178    0.000000   -0.000000   -0.000000
   26.862637    0.655803    0.655741    0.652601    0.000000   -0.000000   -0.000000
   26.877544    0.656216    0.656155    0.653024    0.000000   -0.000000   -0.000000
   26.892451    0.656629    0.656569    0.653445    0.000000   -0.000000   -0.000000
   26.907358    0.657040    0.656982    0.653866    0.000000   -0.000000   -0.000000
   26.922265    0.657451    0.657394    0.654285    0.000000   -0.000000   -0.000000
   26.937173    0.657861    0.657805    0.654705    0.000000   -0.000000   -0.000000
   26.952080    0.658270    0.658216    0.655123    0.000000   -0.000000   -0.000000
   26.966987    0.658678    0.658625    0.655540    0.000000   -0.000000   -0.000000
   26.981894    0.659086    0.659034    0.655957    0.000000   -0.000000   -0.000000
   26.996801    0.659493    0.659443    0.656373    0.000000   -0.000000   -0.000000
   27.011708    0.659899    0.659850    0.656788    0.000000   -0.000000   -0.000000
   27.026615    0.660304    0.660257    0.657202    0.000000   -0.000000   -0.000000
   27.041522    0.660709    0.660663    0.657616    0.000000   -0.000000   -0.000000
   27.056430    0.661113    0.661068    0.658028    0.000000   -0.000000   -0.000000
   27.071337    0.661516    0.661472    0.658440    0.000000   -0.000000   -0.000000
   27.086244    0.661918    0.661876    0.658851    0.000000   -0.000000   -0.000000
   27.101151    0.662320    0.662279    0.659262    0.000000   -0.000000   -0.000000
   27.116058    0.662721    0.662681    0.659671    0.000000   -0.000000   -0.000000
   27.130965    0.663121    0.663083    0.660080    0.000000   -0.000000   -0.000000
   27.145872    0.663520    0.663483    0.660488    0.000000   -0.000000   -0.000000
   27.160779    0.663919    0.663883    0.660896    0.000000   -0.000000   -0.000000
   27.175687    0.664317    0.664282    0.661302    0.000000   -0.000000   -0.000000
   27.190594    0.664714    0.664681    0.661708    0.000000   -0.000000   -0.000000
   27.205501    0.665110    0.665079    0.662113    0.000000   -0.000000   -0.000000
   27.220408    0.665506    0.665476    0.662517    0.000000   -0.000000   -0.000000
   27.235315    0.665901    0.665872    0.662921    0.000000   -0.000000   -0.000000
   27.250222    0.666295    0.666267    0.663324    0.000000   -0.000000   -0.000000
   27.265129    0.666689    0.666662    0.663726    0.000000   -0.000000   -0.000000
   27.280036    0.667082    0.667056    0.664127    0.000000   -0.000000   -0.000000
   27.294944    0.667474    0.667449    0.664527    0.000000   -0.000000   -0.000000
   27.309851    0.667865    0.667842    0.664927    0.000000   -0.000000   -0.000000
   27.324758    0.668256    0.668234    0.665326    0.000000   -0.000000   -0.000000
   27.339665    0.668646    0.668625    0.665724    0.000000   -0.000000   -0.000000
   27.354572    0.669035    0.669016    0.666122    0.000000   -0.000000   -0.000000
   27.369479    0.669423    0.669405    0.666519    0.000000   -0.000000   -0.000000
   27.384386    0.669811    0.669794    0.666915    0.000000   -0.000000   -0.000000
   27.399293    0.670198    0.670183    0.667310    0.000000   -0.000000   -0.000000
   27.414201    0.670585    0.670570    0.667705    0.000000   -0.000000   -0.000000
   27.429108    0.670970    0.670957    0.668099    0.000000   -0.000000   -0.000000
   27.444015    0.671355    0.671343    0.668492    0.000000   -0.000000   -0.000000
   27.458922    0.671740    0.671729    0.668884    0.000000   -0.000000   -0.000000
   27.473829    0.672123    0.672114    0.669276    0.000000   -0.000000   -0.000000
   27.488736    0.672506    0.672498    0.669667    0.000000   -0.000000   -0.000000
   27.503643    0.672888    0.672881    0.670057    0.000000   -0.000000   -0.000000
   27.518550    0.673270    0.673264    0.670447    0.000000   -0.000000   -0.000000
   27.533457    0.673651    0.673646    0.670835    0.000000   -0.000000   -0.000000
   27.548365    0.674031    0.674027    0.671224    0.000000   -0.000000   -0.000000
   27.563272    0.674410    0.674408    0.671611    0.000000   -0.000000   -0.000000
   27.578179    0.674789    0.674787    0.671998    0.000000   -0.000000   -0.000000
   27.593086    0.675167    0.675167    0.672384    0.000000   -0.000000   -0.000000
   27.607993    0.675544    0.675545    0.672769    0.000000   -0.000000   -0.000000
   27.622900    0.675921    0.675923    0.673153    0.000000   -0.000000   -0.000000
   27.637807    0.676297    0.676300    0.673537    0.000000   -0.000000   -0.000000
   27.652714    0.676673    0.676677    0.673920    0.000000   -0.000000   -0.000000
   27.667622    0.677047    0.677052    0.674303    0.000000   -0.000000   -0.000000
   27.682529    0.677421    0.677427    0.674684    0.000000   -0.000000   -0.000000
   27.697436    0.677794    0.677802    0.675066    0.000000   -0.000000   -0.000000
   27.712343    0.678167    0.678176    0.675446    0.000000   -0.000000   -0.000000
   27.727250    0.678539    0.678549    0.675826    0.000000   -0.000000   -0.000000
   27.742157    0.678910    0.678921    0.676204    0.000000   -0.000000   -0.000000
   27.757064    0.679281    0.679293    0.676583    0.000000   -0.000000   -0.000000
   27.771971    0.679651    0.679664    0.676960    0.000000   -0.000000   -0.000000
   27.786879    0.680020    0.680034    0.677337    0.000000   -0.000000   -0.000000
   27.801786    0.680389    0.680404    0.677713    0.000000   -0.000000   -0.000000
   27.816693    0.680757    0.680773    0.678089    0.000000   -0.000000   -0.000000
   27.831600    0.681124    0.681142    0.678464    0.000000   -0.000000   -0.000000
   27.846507    0.681491    0.681509    0.678838    0.000000   -0.000000   -0.000000
   27.861414    0.681857    0.681876    0.679211    0.000000   -0.000000   -0.000000
   27.876321    0.682222    0.682243    0.679584    0.000000   -0.000000   -0.000000
   27.891228    0.682587    0.682609    0.679956    0.000000   -0.000000   -0.000000
   27.906136    0.682951    0.682974    0.680328    0.000000   -0.000000   -0.000000
   27.921043    0.683315    0.683338    0.680699    0.000000   -0.000000   -0.000000
   27.935950    0.683677    0.683702    0.681069    0.000000   -0.000000   -0.000000
   27.950857    0.684039    0.684065    0.681438    0.000000   -0.000000   -0.000000
   27.965764    0.684401    0.684428    0.681807    0.000000   -0.000000   -0.000000
   27.980671    0.684762    0.684790    0.682175    0.000000   -0.000000   -0.000000
   27.995578    0.685122    0.685151    0.682543    0.000000   -0.000000   -0.000000
   28.010485    0.685482    0.685511    0.682909    0.000000   -0.000000   -0.000000
   28.025393    0.685841    0.685871    0.683275    0.000000   -0.000000   -0.000000
   28.040300    0.686199    0.686231    0.683641    0.000000   -0.000000   -0.000000
   28.055207    0.686556    0.686589    0.684006    0.000000   -0.000000   -0.000000
   28.070114    0.686914    0.686947    0.684370    0.000000   -0.000000   -0.000000
   28.085021    0.687270    0.687305    0.684733    0.000000   -0.000000   -0.000000
   28.099928    0.687626    0.687661    0.685096    0.000000   -0.000000   -0.000000
   28.114835    0.687981    0.688018    0.685459    0.000000   -0.000000   -0.000000
   28.129742    0.688335    0.688373    0.685820    0.000000   -0.000000   -0.000000
   28.144650    0.688689    0.688728    0.686181    0.000000   -0.000000   -0.000000
   28.159557    0.689043    0.689082    0.686541    0.000000   -0.000000   -0.000000
   28.174464    0.689395    0.689436    0.686901    0.000000   -0.000000   -0.000000
   28.189371    0.689747    0.689789    0.687260    0.000000   -0.000000   -0.000000
   28.204278    0.690099    0.690141    0.687618    0.000000   -0.000000   -0.000000
   28.219185    0.690449    0.690493    0.687976    0.000000   -0.000000   -0.000000
   28.234092    0.690800    0.690844    0.688333    0.000000   -0.000000   -0.000000
   28.248999    0.691149    0.691195    0.688690    0.000000   -0.000000   -0.000000
   28.263907    0.691498    0.691545    0.689045    0.000000   -0.000000   -0.000000
   28.278814    0.691846    0.691894    0.689401    0.000000   -0.000000   -0.000000
   28.293721    0.692194    0.692243    0.689755    0.000000   -0.000000   -0.000000
   28.308628    0.692541    0.692591    0.690109    0.000000   -0.000000   -0.000000
   28.323535    0.692888    0.692938    0.690462    0.000000   -0.000000   -0.000000
   28.338442    0.693234    0.693285    0.690815    0.000000   -0.000000   -0.000000
   28.353349    0.693579    0.693631    0.691167    0.000000   -0.000000   -0.000000
   28.368256    0.693924    0.693977    0.691518    0.000000   -0.000000   -0.000000
   28.383164    0.694268    0.694322    0.691869    0.000000   -0.000000   -0.000000
   28.398071    0.694611    0.694666    0.692219    0.000000   -0.000000   -0.000000
   28.412978    0.694954    0.695010    0.692569    0.000000   -0.000000   -0.000000
   28.427885    0.695297    0.695353    0.692918    0.000000   -0.000000   -0.000000
   28.442792    0.695638    0.695696    0.693266    0.000000   -0.000000   -0.000000
   28.457699    0.695980    0.696038    0.693614    0.000000   -0.000000   -0.000000
   28.472606    0.696320    0.696379    0.693961    0.000000   -0.000000   -0.000000
   28.487513    0.696660    0.696720    0.694308    0.000000   -0.000000   -0.000000
   28.502421    0.696999    0.697061    0.694653    0.000000   -0.000000   -0.000000
   28.517328    0.697338    0.697400    0.694999    0.000000   -0.000000   -0.000000
   28.532235    0.697676    0.697739    0.695343    0.000000   -0.000000   -0.000000
   28.547142    0.698014    0.698078    0.695687    0.000000   -0.000000   -0.000000
   28.562049    0.698351    0.698416    0.696031    0.000000   -0.000000   -0.000000
   28.576956    0.698687    0.698753    0.696374    0.000000   -0.000000   -0.000000
   28.591863    0.699023    0.699090    0.696716    0.000000   -0.000000   -0.000000
   28.606770    0.699359    0.699426    0.697058    0.000000   -0.000000   -0.000000
   28.621678    0.699693    0.699761    0.697399    0.000000   -0.000000   -0.000000
   28.636585    0.700027    0.700096    0.697739    0.000000   -0.000000   -0.000000
   28.651492    0.700361    0.700431    0.698079    0.000000   -0.000000   -0.000000
   28.666399    0.700694    0.700765    0.698418    0.000000   -0.000000   -0.000000
   28.681306    0.701026    0.701098    0.698757    0.000000   -0.000000   -0.000000
   28.696213    0.701358    0.701431    0.699095    0.000000   -0.000000   -0.000000
   28.711120    0.701689    0.701763    0.699433    0.000000   -0.000000   -0.000000
   28.726027    0.702020    0.702094    0.699770    0.000000   -0.000000   -0.000000
   28.740935    0.702350    0.702425    0.700106    0.000000   -0.000000   -0.000000
   28.755842    0.702680    0.702756    0.700442    0.000000   -0.000000   -0.000000
   28.770749    0.703009    0.703085    0.700777    0.000000   -0.000000   -0.000000
   28.785656    0.703337    0.703415    0.701112    0.000000   -0.000000   -0.000000
   28.800563    0.703665    0.703743    0.701446    0.000000   -0.000000   -0.000000
   28.815470    0.703992    0.704071    0.701779    0.000000   -0.000000   -0.000000
   28.830377    0.704319    0.704399    0.702112    0.000000   -0.000000   -0.000000
   28.845284    0.704645    0.704726    0.702444    0.000000   -0.000000   -0.000000
   28.860192    0.704971    0.705052    0.702776    0.000000   -0.000000   -0.000000
   28.875099    0.705296    0.705378    0.703107    0.000000   -0.000000   -0.000000
   28.890006    0.705621    0.705704    0.703438    0.000000   -0.000000   -0.000000
   28.904913    0.705945    0.706028    0.703768    0.000000   -0.000000   -0.000000
   28.919820    0.706268    0.706353    0.704097    0.000000   -0.000000   -0.000000
   28.934727    0.706591    0.706676    0.704426    0.000000   -0.000000   -0.000000
   28.949634    0.706913    0.706999    0.704754    0.000000   -0.000000   -0.000000
   28.964541    0.707235    0.707322    0.705082    0.000000   -0.000000   -0.000000
   28.979448    0.707556    0.707644    0.705409    0.000000   -0.000000   -0.000000
   28.994356    0.707877    0.707966    0.705736    0.000000   -0.000000   -0.000000
   29.009263    0.708197    0.708286    0.706062    0.000000   -0.000000   -0.000000
   29.024170    0.708517    0.708607    0.706387    0.000000   -0.000000   -0.000000
   29.039077    0.708836    0.708927    0.706712    0.000000   -0.000000   -0.000000
   29.053984    0.709154    0.709246    0.707036    0.000000   -0.000000   -0.000000
   29.068891    0.709472    0.709565    0.707360    0.000000   -0.000000   -0.000000
   29.083798    0.709790    0.709883    0.707684    0.000000   -0.000000   -0.000000
   29.098705    0.710107    0.710201    0.708006    0.000000   -0.000000   -0.000000
   29.113613    0.710423    0.710518    0.708328    0.000000   -0.000000   -0.000000
   29.128520    0.710739    0.710834    0.708650    0.000000   -0.000000   -0.000000
   29.143427    0.711054    0.711150    0.708971    0.000000   -0.000000   -0.000000
   29.158334    0.711369    0.711466    0.709292    0.000000   -0.000000   -0.000000
   29.173241    0.711683    0.711781    0.709612    0.000000   -0.000000   -0.000000
   29.188148    0.711997    0.712095    0.709931    0.000000   -0.000000   -0.000000
   29.203055    0.712310    0.712409    0.710250    0.000000   -0.000000   -0.000000
   29.217962    0.712623    0.712723    0.710568    0.000000   -0.000000   -0.000000
   29.232870    0.712935    0.713036    0.710886    0.000000   -0.000000   -0.000000
   29.247777    0.713247    0.713348    0.711203    0.000000   -0.000000   -0.000000
   29.262684    0.713558    0.713660    0.711520    0.000000   -0.000000   -0.000000
   29.277591    0.713869    0.713971    0.711836    0.000000   -0.000000   -0.000000
   29.292498    0.714179    0.714282    0.712152    0.000000   -0.000000   -0.000000
   29.307405    0.714488    0.714592    0.712467    0.000000   -0.000000   -0.000000
   29.322312    0.714797    0.714902    0.712781    0.000000   -0.000000   -0.000000
   29.337219    0.715106    0.715211    0.713095    0.000000   -0.000000   -0.000000
   29.352127    0.715414    0.715520    0.713409    0.000000   -0.000000   -0.000000
   29.367034    0.715721    0.715828    0.713722    0.000000   -0.000000   -0.000000
   29.381941    0.716028    0.716136    0.714034    0.000000   -0.000000   -0.000000
   29.396848    0.716335    0.716443    0.714346    0.000000   -0.000000   -0.000000
   29.411755    0.716641    0.716750    0.714658    0.000000   -0.000000   -0.000000
   29.426662    0.716946    0.717056    0.714969    0.000000   -0.000000   -0.000000
   29.441569    0.717251    0.717361    0.715279    0.000000   -0.000000   -0.000000
   29.456476    0.717556    0.717667    0.715589    0.000000   -0.000000   -0.000000
   29.471384    0.717860    0.717971    0.715898    0.000000   -0.000000   -0.000000
   29.486291    0.718163    0.718275    0.716207    0.000000   -0.000000   -0.000000
   29.501198    0.718466    0.718579    0.716515    0.000000   -0.000000   -0.000000
   29.516105    0.718768    0.718882    0.716823    0.000000   -0.000000   -0.000000
   29.531012    0.719070    0.719185    0.717130    0.000000   -0.000000   -0.000000
   29.545919    0.719372    0.719487    0.717437    0.000000   -0.000000   -0.000000
   29.560826    0.719673    0.719788    0.717743    0.000000   -0.000000   -0.000000
   29.575733    0.719973    0.720089    0.718049    0.000000   -0.000000   -0.000000
   29.590641    0.720273    0.720390    0.718354    0.000000   -0.000000   -0.000000
   29.605548    0.720572    0.720690    0.718658    0.000000   -0.000000   -0.000000
   29.620455    0.720871    0.720990    0.718963    0.000000   -0.000000   -0.000000
   29.635362    0.721170    0.721289    0.719266    0.000000   -0.000000   -0.000000
   29.650269    0.721468    0.721587    0.719569    0.000000   -0.000000   -0.000000
   29.665176    0.721765    0.721885    0.719872    0.000000   -0.000000   -0.000000
   29.680083    0.722062    0.722183    0.720174    0.000000   -0.000000   -0.000000
   29.694990    0.722359    0.722480    0.720476    0.000000   -0.000000   -0.000000
   29.709898    0.722655    0.722777    0.720777    0.000000   -0.000000   -0.000000
   29.724805    0.722950    0.723073    0.721078    0.000000   -0.000000   -0.000000
   29.739712    0.723245    0.723369    0.721378    0.000000   -0.000000   -0.000000
   29.754619    0.723540    0.723664    0.721677    0.000000   -0.000000   -0.000000
   29.769526    0.723834    0.723958    0.721976    0.000000   -0.000000   -0.000000
   29.784433    0.724127    0.724253    0.722275    0.000000   -0.000000   -0.000000
   29.799340    0.724421    0.724546    0.722573    0.000000   -0.000000   -0.000000
 
 The outermost node in the dielectric function lies at epsilon=  17.3


--------------------------------------------------------------------------------------------------------


    OPTICS:  cpu time     21.2791: real time     21.3429
    4ORBIT:  cpu time      0.0000: real time      0.0000



 total charge

# of ion       s       p       d       tot
------------------------------------------
    1        1.295   0.910   0.072   2.278
    2        1.295   0.910   0.072   2.278
    3        1.295   0.910   0.072   2.278
    4        1.295   0.910   0.072   2.278
    5        1.284   0.935   0.066   2.285
    6        1.284   0.935   0.066   2.285
    7        1.284   0.935   0.066   2.285
    8        1.284   0.935   0.066   2.285
    9        1.355   2.297   0.000   3.652
   10        1.355   2.297   0.000   3.652
   11        1.355   2.297   0.000   3.652
   12        1.355   2.297   0.000   3.652
   13        1.356   2.302   0.000   3.659
   14        1.356   2.302   0.000   3.659
   15        1.356   2.302   0.000   3.659
   16        1.356   2.302   0.000   3.659
   17        1.360   2.293   0.000   3.654
   18        1.360   2.293   0.000   3.654
   19        1.360   2.293   0.000   3.654
   20        1.360   2.293   0.000   3.654
--------------------------------------------------
tot         26.602  34.952   0.553  62.108
 
 BZINTS: Fermi energy:    4.454186;  112.000000 electrons
         Band energy:-0.100595E+03;  BLOECHL correction:    0.000000

 total amount of memory used by VASP MPI-rank0    48842. kBytes
=======================================================================

   base      :      30000. kBytes
   nonl-proj :       7704. kBytes
   fftplans  :       2416. kBytes
   grid      :       3785. kBytes
   one-center:         16. kBytes
   wavefun   :       4921. kBytes
 
  
  
 General timing and accounting informations for this job:
 ========================================================
  
                  Total CPU time used (sec):       85.909
                            User time (sec):       81.433
                          System time (sec):        4.477
                         Elapsed time (sec):       87.053
  
                   Maximum memory used (kb):      257020.
                   Average memory used (kb):          N/A
  
                          Minor page faults:        70149
                          Major page faults:            0
                 Voluntary context switches:         2928
