 vasp.6.4.2 20Jul23 (build Mar 15 2024 16:31:38) complex                        
  
 executed on             LinuxIFC date 2025.03.26  18:59:31
 running  120 mpi-ranks, on    3 nodes
 distrk:  each k-point on  120 cores,    1 groups
 distr:  one band on NCORE=  10 cores,   12 groups


--------------------------------------------------------------------------------------------------------


 INCAR:
   ALGO = Normal
   EDIFF = 1e-05
   ENAUG = 1360
   ENCUT = 680
   GGA = Pe
   HFSCREEN = 0.2
   ISMEAR = 0
   ISPIN = 2
   LAECHG = True
   LASPH = True
   LCHARG = True
   LDAU = False
   LELF = False
   LHFCALC = True
   LMAXMIX = 4
   LMIXTAU = True
   LORBIT = 11
   LREAL = False
   LVTOT = True
   LWAVE = True
   MAGMOM = 16*0.6
   NCORE = 10
   NELM = 200
   NSW = 0
   PREC = Accurate
   PRECFOCK = Accurate
   SIGMA = 0.01

 POTCAR:    PAW_PBE Cu 22Jun2005                  
 POTCAR:    PAW_PBE Sb 06Sep2000                  
 POTCAR:    PAW_PBE S 06Sep2000                   
 WARNING: For LVTOT=.TRUE., VASP.5.x writes the TOTAL local potential to the
     file LOCPOT. If you want only the Hartree contributions, use LVHAR=.TRUE.
     instead. 

 POTCAR:    PAW_PBE Cu 22Jun2005                  
   VRHFIN =Cu: d10 p1                                                                               
   LEXCH  = PE                                                                                      
   EATOM  =  1390.9808 eV,  102.2342 Ry                                                             
                                                                                                    
   TITEL  = PAW_PBE Cu 22Jun2005                                                                    
   LULTRA =        F    use ultrasoft PP ?                                                          
   IUNSCR =        1    unscreen: 0-lin 1-nonlin 2-no                                               
   RPACOR =    2.000    partial core radius                                                         
   POMASS =   63.546; ZVAL   =   11.000    mass and valenz                                          
   RCORE  =    2.300    outmost cutoff radius                                                       
   RWIGS  =    2.200; RWIGS  =    1.164    wigner-seitz radius (au A)                               
   ENMAX  =  295.446; ENMIN  =  221.585 eV                                                          
   ICORE  =        3    local potential                                                             
   LCOR   =        T    correct aug charges                                                         
   LPAW   =        T    paw PP                                                                      
   EAUG   =  586.980                                                                                
   DEXC   =    0.000                                                                                
   RMAX   =    2.344    core radius for proj-oper                                                   
   RAUG   =    1.300    factor for augmentation sphere                                              
   RDEP   =    2.302    radius for radial grids                                                     
   RDEPT  =    1.771    core radius for aug-charge                                                  
                                                                                                    
   Atomic configuration                                                                             
    9 entries                                                                                       
     n  l   j            E        occ.                                                              
     1  0  0.50     -8850.2468   2.0000                                                             
     2  0  0.50     -1062.3498   2.0000                                                             
     2  1  1.50      -916.8226   6.0000                                                             
     3  0  0.50      -114.6929   2.0000                                                             
     3  1  1.50       -72.1325   6.0000                                                             
     3  2  2.50        -5.0394  10.0000                                                             
     4  0  0.50        -4.6097   1.0000                                                             
     4  1  0.50        -4.0817   0.0000                                                             
     4  3  2.50        -1.3606   0.0000                                                             
   Description                                                                                      
     l       E           TYP  RCUT    TYP  RCUT                                                     
     2     -5.0393973     23  2.200                                                                 
     2     10.8846608     23  2.200                                                                 
     0     -4.6097109     23  2.200                                                                 
     0      8.2520465     23  2.200                                                                 
     1     -2.7211652     23  2.200                                                                 
     1     21.7055443     23  2.200                                                                 
     3      2.7211652     23  2.300                                                                 
  local pseudopotential read in
  partial core-charges read in
  partial kinetic energy density read in
  atomic valenz-charges read in
  non local Contribution for L=           2  read in
    real space projection operators read in
  non local Contribution for L=           2  read in
    real space projection operators read in
  non local Contribution for L=           0  read in
    real space projection operators read in
  non local Contribution for L=           0  read in
    real space projection operators read in
  non local Contribution for L=           1  read in
    real space projection operators read in
  non local Contribution for L=           1  read in
    real space projection operators read in
    PAW grid and wavefunctions read in
 
   number of l-projection  operators is LMAX  =           6
   number of lm-projection operators is LMMAX =          18
 
 POTCAR:    PAW_PBE Sb 06Sep2000                  
   VRHFIN =Sb: s2p3                                                                                 
   LEXCH  = PE                                                                                      
   EATOM  =   149.9515 eV,   11.0211 Ry                                                             
                                                                                                    
   TITEL  = PAW_PBE Sb 06Sep2000                                                                    
   LULTRA =        F    use ultrasoft PP ?                                                          
   IUNSCR =        1    unscreen: 0-lin 1-nonlin 2-no                                               
   RPACOR =    2.200    partial core radius                                                         
   POMASS =  121.750; ZVAL   =    5.000    mass and valenz                                          
   RCORE  =    2.300    outmost cutoff radius                                                       
   RWIGS  =    2.980; RWIGS  =    1.577    wigner-seitz radius (au A)                               
   ENMAX  =  172.069; ENMIN  =  129.052 eV                                                          
   ICORE  =        3    local potential                                                             
   LCOR   =        T    correct aug charges                                                         
   LPAW   =        T    paw PP                                                                      
   EAUG   =  380.513                                                                                
   DEXC   =    0.000                                                                                
   RMAX   =    2.346    core radius for proj-oper                                                   
   RAUG   =    1.300    factor for augmentation sphere                                              
   RDEP   =    2.360    radius for radial grids                                                     
   RDEPT  =    2.192    core radius for aug-charge                                                  
                                                                                                    
   Atomic configuration                                                                             
   13 entries                                                                                       
     n  l   j            E        occ.                                                              
     1  0  0.50    -30298.2797   2.0000                                                             
     2  0  0.50     -4610.2252   2.0000                                                             
     2  1  1.50     -4138.3407   6.0000                                                             
     3  0  0.50      -903.8815   2.0000                                                             
     3  1  1.50      -750.1337   6.0000                                                             
     3  2  2.50      -515.7092  10.0000                                                             
     4  0  0.50      -148.8034   2.0000                                                             
     4  1  1.50      -101.7581   6.0000                                                             
     4  2  2.50       -33.5048  10.0000                                                             
     5  0  0.50       -12.8298   2.0000                                                             
     5  1  0.50        -4.8276   3.0000                                                             
     5  2  1.50        -4.0817   0.0000                                                             
     4  3  2.50        -4.0817   0.0000                                                             
   Description                                                                                      
     l       E           TYP  RCUT    TYP  RCUT                                                     
     0    -12.8297861     23  2.300                                                                 
     0     13.6058260     23  2.300                                                                 
     1     -4.8275512     23  2.300                                                                 
     1     -0.7245443     23  2.300                                                                 
     2     -4.0817478     23  2.300                                                                 
     3     -1.3605826     23  2.300                                                                 
  local pseudopotential read in
  partial core-charges read in
  partial kinetic energy density read in
  atomic valenz-charges read in
  non local Contribution for L=           0  read in
    real space projection operators read in
  non local Contribution for L=           0  read in
    real space projection operators read in
  non local Contribution for L=           1  read in
    real space projection operators read in
  non local Contribution for L=           1  read in
    real space projection operators read in
  non local Contribution for L=           2  read in
    real space projection operators read in
    PAW grid and wavefunctions read in
 
   number of l-projection  operators is LMAX  =           5
   number of lm-projection operators is LMMAX =          13
 
 POTCAR:    PAW_PBE S 06Sep2000                   
   VRHFIN =S : s2p4                                                                                 
   LEXCH  = PE                                                                                      
   EATOM  =   276.8230 eV,   20.3459 Ry                                                             
                                                                                                    
   TITEL  = PAW_PBE S 06Sep2000                                                                     
   LULTRA =        F    use ultrasoft PP ?                                                          
   IUNSCR =        1    unscreen: 0-lin 1-nonlin 2-no                                               
   RPACOR =    1.500    partial core radius                                                         
   POMASS =   32.066; ZVAL   =    6.000    mass and valenz                                          
   RCORE  =    1.900    outmost cutoff radius                                                       
   RWIGS  =    2.200; RWIGS  =    1.164    wigner-seitz radius (au A)                               
   ENMAX  =  258.689; ENMIN  =  194.016 eV                                                          
   ICORE  =        2    local potential                                                             
   LCOR   =        T    correct aug charges                                                         
   LPAW   =        T    paw PP                                                                      
   EAUG   =  335.092                                                                                
   DEXC   =    0.000                                                                                
   RMAX   =    1.942    core radius for proj-oper                                                   
   RAUG   =    1.300    factor for augmentation sphere                                              
   RDEP   =    1.954    radius for radial grids                                                     
   RDEPT  =    1.744    core radius for aug-charge                                                  
                                                                                                    
   Atomic configuration                                                                             
    6 entries                                                                                       
     n  l   j            E        occ.                                                              
     1  0  0.50     -2405.8406   2.0000                                                             
     2  0  0.50      -211.7007   2.0000                                                             
     2  1  1.50      -156.4958   6.0000                                                             
     3  0  0.50       -17.2562   2.0000                                                             
     3  1  0.50        -7.0085   4.0000                                                             
     3  2  1.50        -6.8029   0.0000                                                             
   Description                                                                                      
     l       E           TYP  RCUT    TYP  RCUT                                                     
     0    -17.2561641     23  1.900                                                                 
     0    -15.8743224     23  1.900                                                                 
     1     -7.0085400     23  1.900                                                                 
     1     -2.7779785     23  1.900                                                                 
     2     -6.8029130     23  1.900                                                                 
  local pseudopotential read in
  partial core-charges read in
  partial kinetic energy density read in
  atomic valenz-charges read in
  non local Contribution for L=           0  read in
    real space projection operators read in
  non local Contribution for L=           0  read in
    real space projection operators read in
  non local Contribution for L=           1  read in
    real space projection operators read in
  non local Contribution for L=           1  read in
    real space projection operators read in
    PAW grid and wavefunctions read in
 
   number of l-projection  operators is LMAX  =           4
   number of lm-projection operators is LMMAX =           8
 
  PAW_PBE Cu 22Jun2005                  :
 energy of atom  1       EATOM=-1390.9808
 kinetic energy error for atom=    0.0018 (will be added to EATOM!!)
  PAW_PBE Sb 06Sep2000                  :
 energy of atom  2       EATOM= -149.9515
 kinetic energy error for atom=    0.0002 (will be added to EATOM!!)
  PAW_PBE S 06Sep2000                   :
 energy of atom  3       EATOM= -276.8230
 kinetic energy error for atom=    0.0008 (will be added to EATOM!!)
 
 
 POSCAR: Cu4 Sb4 S8
  positions in direct lattice
  No initial velocities read in
 exchange correlation table for  LEXCH =        8
   RHO(1)=    0.500       N(1)  =     2000
   RHO(2)=  100.500       N(2)  =     4000
 


--------------------------------------------------------------------------------------------------------


 ion  position               nearest neighbor table
   1  0.250  0.250  0.828-  14 2.28  16 2.30  12 2.31  12 2.31
   2  0.250  0.750  0.672-  16 2.28  14 2.30  10 2.31  10 2.31
   3  0.750  0.750  0.172-  15 2.28  13 2.30  11 2.31  11 2.31
   4  0.750  0.250  0.328-  13 2.28  15 2.30   9 2.31   9 2.31
   5  0.250  0.729  0.435-   9 2.45  13 2.59  13 2.59  10 3.18  10 3.18
   6  0.750  0.271  0.565-  10 2.45  16 2.59  16 2.59   9 3.18   9 3.18
   7  0.250  0.229  0.065-  11 2.45  15 2.59  15 2.59  12 3.18  12 3.18
   8  0.750  0.771  0.935-  12 2.45  14 2.59  14 2.59  11 3.18  11 3.18
   9  0.250  0.124  0.401-   4 2.31   4 2.31   5 2.45   6 3.18   6 3.18
  10  0.750  0.876  0.599-   2 2.31   2 2.31   6 2.45   5 3.18   5 3.18
  11  0.250  0.624  0.099-   3 2.31   3 2.31   7 2.45   8 3.18   8 3.18
  12  0.750  0.376  0.901-   1 2.31   1 2.31   8 2.45   7 3.18   7 3.18
  13  0.750  0.624  0.322-   4 2.28   3 2.30   5 2.59   5 2.59
  14  0.250  0.876  0.822-   1 2.28   2 2.30   8 2.59   8 2.59
  15  0.750  0.124  0.178-   3 2.28   4 2.30   7 2.59   7 2.59
  16  0.250  0.376  0.678-   2 2.28   1 2.30   6 2.59   6 2.59
 
  LATTYP: Found a simple orthorhombic cell.
 ALAT       =     3.8015747400
 B/A-ratio  =     1.5978432559
 C/A-ratio  =     3.8120414489
  
  Lattice vectors:
  
 A1 = (   3.8015747400,   0.0000000000,   0.0000000000)
 A2 = (  -0.0000000000,   6.0743205600,   0.0000000000)
 A3 = (   0.0000000000,   0.0000000000,  14.4917604800)


Analysis of symmetry for initial positions (statically):
=====================================================================
 Subroutine PRICEL returns:
 Original cell was already a primitive cell.
 

 Routine SETGRP: Setting up the symmetry group for a 
 simple orthorhombic supercell.


 Subroutine GETGRP returns: Found  8 space group operations
 (whereof  2 operations were pure point group operations)
 out of a pool of  8 trial point group operations.


The static configuration has the point symmetry S_2 .
 The point group associated with its full space group is D_2h.


Analysis of symmetry for dynamics (positions and initial velocities):
=====================================================================
 Subroutine PRICEL returns:
 Original cell was already a primitive cell.
 

 Routine SETGRP: Setting up the symmetry group for a 
 simple orthorhombic supercell.


 Subroutine GETGRP returns: Found  8 space group operations
 (whereof  2 operations were pure point group operations)
 out of a pool of  8 trial point group operations.


The dynamic configuration has the point symmetry S_2 .
 The point group associated with its full space group is D_2h.


Analysis of structural, dynamic, and magnetic symmetry:
=====================================================================
 Subroutine PRICEL returns:
 Original cell was already a primitive cell.
 

 Routine SETGRP: Setting up the symmetry group for a 
 simple orthorhombic supercell.


 Subroutine GETGRP returns: Found  8 space group operations
 (whereof  2 operations were pure point group operations)
 out of a pool of  8 trial point group operations.


The overall configuration has the point symmetry S_2 .
 The point group associated with its full space group is D_2h.


 Subroutine INISYM returns: Found  8 space group operations
 (whereof  2 operations are pure point group operations),
 and found     1 'primitive' translations


----------------------------------------------------------------------------------------

                                     Primitive cell                                     

  volume of cell :     334.6435

  direct lattice vectors                    reciprocal lattice vectors
     3.801574740  0.000000000  0.000000000     0.263048886  0.000000000  0.000000000
    -0.000000000  6.074320560  0.000000000     0.000000000  0.164627466  0.000000000
     0.000000000  0.000000000 14.491760480    -0.000000000 -0.000000000  0.069004729

  length of vectors
     3.801574740  6.074320560 14.491760480     0.263048886  0.164627466  0.069004729

  position of ions in fractional coordinates (direct lattice)
     0.250000000  0.250101620  0.828218420
     0.250000000  0.750101620  0.671781580
     0.750000000  0.749898380  0.171781580
     0.750000000  0.249898380  0.328218420
     0.250000000  0.728812000  0.434587410
     0.750000000  0.271188000  0.565412590
     0.250000000  0.228812000  0.065412590
     0.750000000  0.771188000  0.934587410
     0.250000000  0.123685860  0.401045160
     0.750000000  0.876314140  0.598954840
     0.250000000  0.623685860  0.098954840
     0.750000000  0.376314140  0.901045160
     0.750000000  0.624272650  0.321577210
     0.250000000  0.875727350  0.821577210
     0.750000000  0.124272650  0.178422790
     0.250000000  0.375727350  0.678422790

  ion indices of the primitive-cell ions
   primitive index   ion index
                 1           1
                 2           2
                 3           3
                 4           4
                 5           5
                 6           6
                 7           7
                 8           8
                 9           9
                10          10
                11          11
                12          12
                13          13
                14          14
                15          15
                16          16

----------------------------------------------------------------------------------------

 
 
 KPOINTS: k-points for static calculation at exact

Read explicit list of k-points.

 Found      2 k-points:

 Following reciprocal coordinates:
            Coordinates               Weight
  0.000000  0.000000  0.000000      0.500000
  0.000000  0.250000  0.000000      0.500000

 Following cartesian coordinates:
            Coordinates               Weight
  0.000000  0.000000  0.000000      0.500000
  0.000000  0.041157  0.000000      0.500000
 
 
 Subroutine IBZKPT_HF returns following result:
 ==============================================
 
 Found      3 k-points in 1st BZ
 the following      3 k-points will be used (e.g. in the exchange kernel)
 Following reciprocal coordinates:   # in IRBZ
  0.000000  0.000000  0.000000    0.50000000   1 t-inv F
  0.000000  0.250000  0.000000    0.25000000   2 t-inv F
  0.000000 -0.250000  0.000000    0.25000000   2 t-inv F


--------------------------------------------------------------------------------------------------------




 Dimension of arrays:
   k-points           NKPTS =      2   k-points in BZ     NKDIM =      3   number of bands    NBANDS=     72
   number of dos      NEDOS =    301   number of ions     NIONS =     16
   non local maximal  LDIM  =      6   non local SUM 2l+1 LMDIM =     18
   total plane-waves  NPLWV = 217728
   max r-space proj   IRMAX =      1   max aug-charges    IRDMAX=  36303
   dimension x,y,z NGX =    32 NGY =   54 NGZ =  126
   dimension x,y,z NGXF=    64 NGYF=  108 NGZF=  252
   support grid    NGXF=    64 NGYF=  108 NGZF=  252
   ions per type =               4   4   8
   NGX,Y,Z   is equivalent  to a cutoff of  13.99, 14.78, 14.45 a.u.
   NGXF,Y,Z  is equivalent  to a cutoff of  27.99, 29.56, 28.91 a.u.

 SYSTEM =  unknown system                          
 POSCAR =  Cu4 Sb4 S8                              

 Startparameter for this run:
   NWRITE =      2    write-flag & timer
   PREC   = accura    normal or accurate (medium, high low for compatibility)
   ISTART =      0    job   : 0-new  1-cont  2-samecut
   ICHARG =      2    charge: 1-file 2-atom 10-const
   ISPIN  =      2    spin polarized calculation?
   LNONCOLLINEAR =      F non collinear calculations
   LSORBIT =      F    spin-orbit coupling
   INIWAV =      1    electr: 0-lowe 1-rand  2-diag
   LASPH  =      T    aspherical Exc in radial PAW
 Electronic Relaxation 1
   ENCUT  =  680.0 eV  49.98 Ry    7.07 a.u.   8.08 12.92 30.81*2*pi/ulx,y,z
   ENINI  =  680.0     initial cutoff
   ENAUG  = 1360.0 eV  augmentation charge cutoff
   NELM   =    200;   NELMIN=  2; NELMDL=  0     # of ELM steps 
   EDIFF  = 0.1E-04   stopping-criterion for ELM
   LREAL  =      F    real-space projection
   NLSPLINE    = F    spline interpolate recip. space projectors
   LCOMPAT=      F    compatible to vasp.4.4
   GGA_COMPAT  = T    GGA compatible to vasp.4.4-vasp.4.6
   LMAXPAW     = -100 max onsite density
   LMAXMIX     =    4 max onsite mixed and CHGCAR
   VOSKOWN=      0    Vosko Wilk Nusair interpolation
   ROPT   =    0.00000   0.00000   0.00000
 Ionic relaxation
   EDIFFG = 0.1E-03   stopping-criterion for IOM
   NSW    =      0    number of steps for IOM
   NBLOCK =      1;   KBLOCK =      1    inner block; outer block 
   IBRION =     -1    ionic relax: 0-MD 1-quasi-New 2-CG
   NFREE  =      0    steps in history (QN), initial steepest desc. (CG)
   ISIF   =      0    stress and relaxation
   IWAVPR =     10    prediction:  0-non 1-charg 2-wave 3-comb
   ISYM   =      3    0-nonsym 1-usesym 2-fastsym
   LCORR  =      T    Harris-Foulkes like correction to forces

   POTIM  = 0.5000    time-step for ionic-motion
   TEIN   =    0.0    initial temperature
   TEBEG  =    0.0;   TEEND  =   0.0 temperature during run
   SMASS  =  -3.00    Nose mass-parameter (am)
   estimated Nose-frequenzy (Omega)   =  0.10E-29 period in steps = 0.13E+47 mass=  -0.330E-27a.u.
   SCALEE = 1.0000    scale energy and forces
   NPACO  =    256;   APACO  = 10.0  distance and # of slots for P.C.
   PSTRESS=    0.0 pullay stress

  Mass of Ions in am
   POMASS =  63.55121.75 32.07
  Ionic Valenz
   ZVAL   =  11.00  5.00  6.00
  Atomic Wigner-Seitz radii
   RWIGS  =  -1.00 -1.00 -1.00
  virtual crystal weights 
   VCA    =   1.00  1.00  1.00
   NELECT =     112.0000    total number of electrons
   NUPDOWN=      -1.0000    fix difference up-down

 DOS related values:
   EMIN   =  10.00;   EMAX   =-10.00  energy-range for DOS
   EFERMI =   0.00;   METHOD = LEGACY      
   ISMEAR =     0;   SIGMA  =   0.01  broadening in eV -4-tet -1-fermi 0-gaus

 Electronic relaxation 2 (details)
   IALGO  =     38    algorithm
   LDIAG  =      T    sub-space diagonalisation (order eigenvalues)
   LSUBROT=      F    optimize rotation matrix (better conditioning)
   TURBO    =      0    0=normal 1=particle mesh
   IRESTART =      0    0=no restart 2=restart with 2 vectors
   NREBOOT  =      0    no. of reboots
   NMIN     =      0    reboot dimension
   EREF     =   0.00    reference energy to select bands
   IMIX   =      1    mixing-type and parameters
     AMIX     =   0.40;   BMIX     =  1.00
     AMIX_MAG =   1.60;   BMIX_MAG =  1.00
     AMIN     =   0.10
     WC   =   100.;   INIMIX=   1;  MIXPRE=   1;  MAXMIX= -45

 Intra band minimization:
   WEIMIN = 0.0000     energy-eigenvalue tresh-hold
   EBREAK =  0.35E-07  absolut break condition
   DEPER  =   0.30     relativ break condition  

   TIME   =   0.40     timestep for ELM

  volume/ion in A,a.u.               =      20.92       141.14
  Fermi-wavevector in a.u.,A,eV,Ry     =   1.136632  2.147924 17.577819  1.291933
  Thomas-Fermi vector in A             =   2.273338
 
 Write flags
   LWAVE        =      T    write WAVECAR
   LDOWNSAMPLE  =      F    k-point downsampling of WAVECAR
   LCHARG       =      T    write CHGCAR
   LVTOT        =      T    write LOCPOT, total local potential
   LVHAR        =      F    write LOCPOT, Hartree potential only
   LELF         =      F    write electronic localiz. function (ELF)
   LORBIT       =     11    0 simple, 1 ext, 2 COOP (PROOUT), +10 PAW based schemes


 Dipole corrections
   LMONO  =      F    monopole corrections only (constant potential shift)
   LDIPOL =      F    correct potential (dipole corrections)
   IDIPOL =      0    1-x, 2-y, 3-z, 4-all directions 
   EPSILON=  1.0000000 bulk dielectric constant

 Exchange correlation treatment:
   GGA     =    PE    GGA type
   LEXCH   =     8    internal setting for exchange type
   LIBXC   =     F    Libxc                    
   VOSKOWN =     0    Vosko Wilk Nusair interpolation
   EXXOEP  =     0    0=HF, 1=EXX-LHF (local Hartree Fock) 2=EXX OEP
   LHFCALC =     T    Hartree Fock is set to
   LSYMGRAD=     F    symmetrize gradient (conserves proper symmetry)
   PRECFOCK=accur.    Normal, Fast or Accurate (Low or Medium for compatibility)
   LRHFCALC=     F    long range Hartree Fock
   LRSCOR  =     F    long range correlation only (use DFT for short range part)
   LTHOMAS =     F    Thomas Fermi screening in HF
   LMODELHF=     F    short range full HF, long range fraction AEXX
   FOCKCORR=     1    mode to apply convergence corrections
   LFOCKACE=     T    use Adeptively-Compressed-Exchange operator
   ENCUT4O =  -1.0   cutoff for four orbital integrals eV
   LMAXFOCK=     4    L truncation for augmentation on plane wave grid
   LMAXFOCKAE=  -1    L truncation for all-electron charge restoration on plane wave grid
   NMAXFOCKAE=   1    number of basis functions for all-electron charge restoration
   LFOCKAEDFT=     F  apply the AE augmentation even for DFT
   NKREDX  =     1    reduce k-point grid by
   NKREDY  =     1    reduce k-point grid by
   NKREDZ  =     1    reduce k-point grid by
   SHIFTRED=     F    shift reduced grid of Gamma
   HFKIDENT=     F    idential grid for each k-point
   ODDONLY =     F    use only odd q-grid points
   EVENONLY=     F    use only even q-grid points
   HFALPHA =   -1.0000 decay constant for conv. correction
   MCALPHA =    0.0000 extent of test-charge in conv. correction in multipole expansion
   AEXX    =    0.2500 exact exchange contribution
   HFSCREEN=    0.2000 screening length (either q_TF or 0.3 A-1)
   HFSCREENC=   0.2000 screening length for correlation (either q_TF or 0.3 A-1)
   HFRCUT  =    0.0000 spherical cutoff for potential kernel
   ALDAX   =    0.7500 LDA exchange part
   AGGAX   =    0.7500 GGA exchange part
   ALDAC   =    1.0000 LDA correlation
   AGGAC   =    1.0000 GGA correlation
   ENCUTFOCK=  -1.0 apply spherical cutoff to Coloumb kernel
   NBANDSGWLOW=     1    first orbital included in HF term
   NBLOCK_FOCK=    64    blocking factor in FOCK_ACC

 Linear response parameters
   LEPSILON=     F    determine dielectric tensor
   LRPA    =     F    only Hartree local field effects (RPA)
   LNABLA  =     F    use nabla operator in PAW spheres
   LVEL    =     F    velocity operator in full k-point grid
   CSHIFT  =0.1000    complex shift for real part using Kramers Kronig
   OMEGAMAX=  -1.0    maximum frequency
   DEG_THRESHOLD= 0.2000000E-02 threshold for treating states as degnerate
   RTIME   =   -0.100 relaxation time in fs
  (WPLASMAI=    0.000 imaginary part of plasma frequency in eV, 0.658/RTIME)
   DFIELD  = 0.0000000 0.0000000 0.0000000 field for delta impulse in time
 
  Optional k-point grid parameters
   LKPOINTS_OPT  =     F    use optional k-point grid
   KPOINTS_OPT_MODE=     1    mode for optional k-point grid
 
 Orbital magnetization related:
   ORBITALMAG=     F  switch on orbital magnetization
   LCHIMAG   =     F  perturbation theory with respect to B field
   DQ        =  0.001000  dq finite difference perturbation B field
   LLRAUG    =     F  two centre corrections for induced B field
   LBONE     =     F  B-component reconstruction in AE one-centre
   LVGVCALC  =     T  calculate vGv susceptibility
   LVGVAPPL  =     F  apply vGv susceptibility instead of pGv for G=0

 Random number generation:
   RANDOM_GENERATOR = DEFAULT
   PCG_SEED         = not used


--------------------------------------------------------------------------------------------------------


 Static calculation
 charge density and potential will be updated during run
 spin polarized calculation
 Variant of blocked Davidson
 Davidson routine will perform the subspace rotation
 perform sub-space diagonalisation
    after iterative eigenvector-optimisation
 Kerker-like  mixing scheme
 using additional bands           16
 reciprocal scheme for non local part
 use partial core corrections
 calculate Harris-corrections to forces 
   (improved forces if not selfconsistent)
 use gradient corrections 
 use of overlap-Matrix (Vanderbilt PP)
 Gauss-broadening in eV      SIGMA  =   0.01


--------------------------------------------------------------------------------------------------------


  energy-cutoff  :      680.00
  volume of cell :      334.64
      direct lattice vectors                 reciprocal lattice vectors
     3.801574740  0.000000000  0.000000000     0.263048886  0.000000000  0.000000000
    -0.000000000  6.074320560  0.000000000     0.000000000  0.164627466  0.000000000
     0.000000000  0.000000000 14.491760480    -0.000000000 -0.000000000  0.069004729

  length of vectors
     3.801574740  6.074320560 14.491760480     0.263048886  0.164627466  0.069004729


 
 k-points in units of 2pi/SCALE and weight: k-points for static calculation at exact
   0.00000000  0.00000000  0.00000000       0.500
   0.00000000  0.04115687  0.00000000       0.500
 
 k-points in reciprocal lattice and weights: k-points for static calculation at exact
   0.00000000  0.00000000  0.00000000       0.500
   0.00000000  0.25000000  0.00000000       0.500
 
 position of ions in fractional coordinates (direct lattice) 
   0.25000000  0.25010162  0.82821842
   0.25000000  0.75010162  0.67178158
   0.75000000  0.74989838  0.17178158
   0.75000000  0.24989838  0.32821842
   0.25000000  0.72881200  0.43458741
   0.75000000  0.27118800  0.56541259
   0.25000000  0.22881200  0.06541259
   0.75000000  0.77118800  0.93458741
   0.25000000  0.12368586  0.40104516
   0.75000000  0.87631414  0.59895484
   0.25000000  0.62368586  0.09895484
   0.75000000  0.37631414  0.90104516
   0.75000000  0.62427265  0.32157721
   0.25000000  0.87572735  0.82157721
   0.75000000  0.12427265  0.17842279
   0.25000000  0.37572735  0.67842279
 
 position of ions in cartesian coordinates  (Angst):
   0.95039368  1.51919741 12.00234297
   0.95039368  4.55635769  9.73529775
   2.85118105  4.55512315  2.48941751
   2.85118106  1.51796287  4.75646273
   0.95039368  4.42703772  6.29793665
   2.85118106  1.64728284  8.19382383
   0.95039368  1.38987744  0.94794359
   2.85118105  4.68444312 13.54381689
   0.95039368  0.75130756  5.81185040
   2.85118105  5.32301300  8.67991008
   0.95039368  3.78846784  1.43402984
   2.85118105  2.28585272 13.05773064
   2.85118105  3.79203219  4.66021990
   0.95039368  5.31944865 11.90610014
   2.85118106  0.75487191  2.58566034
   0.95039368  2.28228837  9.83154058
 


--------------------------------------------------------------------------------------------------------


 k-point   1 :   0.0000 0.0000 0.0000  plane waves:   13425
 k-point   2 :   0.0000 0.2500 0.0000  plane waves:   13448

 maximum and minimum number of plane-waves per node :      1365     1327

 maximum number of plane-waves:     13448
 maximum index in each direction: 
   IXMAX=    8   IYMAX=   12   IZMAX=   30
   IXMIN=   -8   IYMIN=  -13   IZMIN=  -30


 parallel 3D FFT for wavefunctions:
    minimum data exchange during FFTs selected (reduces bandwidth)
 parallel 3D FFT for charge:
    minimum data exchange during FFTs selected (reduces bandwidth)

 
 Radii for the augmentation spheres in the non-local exchange
 for species   1 augmentation radius   1.179 (default was   0.943)
       energy cutoff for augmentation   2720.0
 for species   2 augmentation radius   1.464 (default was   1.171)
       energy cutoff for augmentation   2720.0
 for species   3 augmentation radius   1.212 (default was   0.970)
       energy cutoff for augmentation   2720.0

 real space projection operators:
  total allocation   :      12882.47 KBytes
  max/ min on nodes  :       1600.88       1186.50

 Maximum index for augmentation-charges in exchange         1159
  SETUP_FOCK is finished

 total amount of memory used by VASP MPI-rank0    43722. kBytes
=======================================================================

   base      :      30000. kBytes
   nonl-proj :       1545. kBytes
   fftplans  :       2487. kBytes
   grid      :       4594. kBytes
   one-center:         62. kBytes
   HF        :        129. kBytes
   nonlr-proj:       4362. kBytes
   wavefun   :        543. kBytes
 
     INWAV:  cpu time      0.0001: real time      0.0006
 initial charge density was supplied:
 charge density of overlapping atoms calculated
 number of electron     112.0000000 magnetization       9.6000000
 keeping initial charge density in first step


--------------------------------------------------------------------------------------------------------


 Maximum index for augmentation-charges          455 (set IRDMAX)


--------------------------------------------------------------------------------------------------------


 First call to EWALD:  gamma=   0.255
 Maximum number of real-space cells 5x 3x 2
 Maximum number of reciprocal cells 2x 2x 5

    FEWALD:  cpu time      0.0031: real time      0.0031


--------------------------------------- Ionic step        1  -------------------------------------------




--------------------------------------- Iteration      1(   1)  ---------------------------------------


    POTLOK:  cpu time      0.0623: real time      0.1463
    SETDIJ:  cpu time      0.4013: real time      0.4027
     EDDAV:  cpu time      1.7072: real time      2.2150
       DOS:  cpu time      0.0049: real time      0.0054
    --------------------------------------------
      LOOP:  cpu time      2.1759: real time      2.7695

 eigenvalue-minimisations  :   576
 total energy-change (2. order) :-0.6165910E+04  (-0.5317251E+04)
 number of electron     112.0000000 magnetization       9.6000000
 augmentation part      112.0000000 magnetization       9.6000000

 Free energy of the ion-electron system (eV)
  ---------------------------------------------------
  alpha Z        PSCENC =       140.40642575
  Ewald energy   TEWEN  =     -5671.52231121
  -Hartree energ DENC   =     -2980.89971617
  -exchange      EXHF   =         0.00000000
  -V(xc)+E(xc)   XCENC  =        97.39382403
  PAW double counting   =      7306.92580695   -14570.49902142
  entropy T*S    EENTRO =        -0.00044341
  eigenvalues    EBANDS =      1162.44057606
  atomic energy  EATOM  =      8349.84459897
  Solvation  Ediel_sol  =         0.00000000
  ---------------------------------------------------
  free energy    TOTEN  =     -6165.91026045 eV

  energy without entropy =    -6165.90981704  energy(sigma->0) =    -6165.91003875
  exchange ACFDT corr.  =         0.00000000  see jH, gK, PRB 81, 115126


--------------------------------------------------------------------------------------------------------




--------------------------------------- Iteration      1(   2)  ---------------------------------------


     EDDAV:  cpu time      0.1758: real time      0.2115
       DOS:  cpu time      0.0002: real time      0.0002
    --------------------------------------------
      LOOP:  cpu time      0.1759: real time      0.2116

 eigenvalue-minimisations  :   576
 total energy-change (2. order) :-0.9721405E+03  (-0.9281963E+03)
 number of electron     112.0000000 magnetization       9.6000000
 augmentation part      112.0000000 magnetization       9.6000000

 Free energy of the ion-electron system (eV)
  ---------------------------------------------------
  alpha Z        PSCENC =       140.40642575
  Ewald energy   TEWEN  =     -5671.52231121
  -Hartree energ DENC   =     -2980.89971617
  -exchange      EXHF   =         0.00000000
  -V(xc)+E(xc)   XCENC  =        97.39382403
  PAW double counting   =      7306.92580695   -14570.49902142
  entropy T*S    EENTRO =        -0.00000000
  eigenvalues    EBANDS =       190.29963568
  atomic energy  EATOM  =      8349.84459897
  Solvation  Ediel_sol  =         0.00000000
  ---------------------------------------------------
  free energy    TOTEN  =     -7138.05075743 eV

  energy without entropy =    -7138.05075743  energy(sigma->0) =    -7138.05075743
  exchange ACFDT corr.  =         0.00000000  see jH, gK, PRB 81, 115126


--------------------------------------------------------------------------------------------------------




--------------------------------------- Iteration      1(   3)  ---------------------------------------


     EDDAV:  cpu time      0.2296: real time      0.3403
       DOS:  cpu time      0.0002: real time      0.0002
    --------------------------------------------
      LOOP:  cpu time      0.2298: real time      0.3405

 eigenvalue-minimisations  :   816
 total energy-change (2. order) :-0.2106888E+03  (-0.2031728E+03)
 number of electron     112.0000000 magnetization       9.6000000
 augmentation part      112.0000000 magnetization       9.6000000

 Free energy of the ion-electron system (eV)
  ---------------------------------------------------
  alpha Z        PSCENC =       140.40642575
  Ewald energy   TEWEN  =     -5671.52231121
  -Hartree energ DENC   =     -2980.89971617
  -exchange      EXHF   =         0.00000000
  -V(xc)+E(xc)   XCENC  =        97.39382403
  PAW double counting   =      7306.92580695   -14570.49902142
  entropy T*S    EENTRO =        -0.00000000
  eigenvalues    EBANDS =       -20.38920183
  atomic energy  EATOM  =      8349.84459897
  Solvation  Ediel_sol  =         0.00000000
  ---------------------------------------------------
  free energy    TOTEN  =     -7348.73959493 eV

  energy without entropy =    -7348.73959493  energy(sigma->0) =    -7348.73959493
  exchange ACFDT corr.  =         0.00000000  see jH, gK, PRB 81, 115126


--------------------------------------------------------------------------------------------------------




--------------------------------------- Iteration      1(   4)  ---------------------------------------


     EDDAV:  cpu time      0.2098: real time      0.2104
       DOS:  cpu time      0.0003: real time      0.0003
    --------------------------------------------
      LOOP:  cpu time      0.2100: real time      0.2106

 eigenvalue-minimisations  :   744
 total energy-change (2. order) :-0.1617743E+02  (-0.1598017E+02)
 number of electron     112.0000000 magnetization       9.6000000
 augmentation part      112.0000000 magnetization       9.6000000

 Free energy of the ion-electron system (eV)
  ---------------------------------------------------
  alpha Z        PSCENC =       140.40642575
  Ewald energy   TEWEN  =     -5671.52231121
  -Hartree energ DENC   =     -2980.89971617
  -exchange      EXHF   =         0.00000000
  -V(xc)+E(xc)   XCENC  =        97.39382403
  PAW double counting   =      7306.92580695   -14570.49902142
  entropy T*S    EENTRO =        -0.00000000
  eigenvalues    EBANDS =       -36.56663416
  atomic energy  EATOM  =      8349.84459897
  Solvation  Ediel_sol  =         0.00000000
  ---------------------------------------------------
  free energy    TOTEN  =     -7364.91702727 eV

  energy without entropy =    -7364.91702727  energy(sigma->0) =    -7364.91702727
  exchange ACFDT corr.  =         0.00000000  see jH, gK, PRB 81, 115126


--------------------------------------------------------------------------------------------------------




--------------------------------------- Iteration      1(   5)  ---------------------------------------


    POTLOK:  cpu time      0.0829: real time      0.0832
    SETDIJ:  cpu time      0.9182: real time      0.9203
     EDDAV:  cpu time      7.4799: real time      7.5158
       DOS:  cpu time      0.0004: real time      0.0004
    CHARGE:  cpu time      0.0252: real time      0.0342
    MIXING:  cpu time      0.0007: real time      0.0007
    --------------------------------------------
      LOOP:  cpu time      8.5073: real time      8.5546

 eigenvalue-minimisations  :   780
 total energy-change (2. order) : 0.7294801E+04  (-0.5376320E+01)
 number of electron     111.9999989 magnetization      -5.7600000
 augmentation part       19.1473672 magnetization      -5.6367406

 Free energy of the ion-electron system (eV)
  ---------------------------------------------------
  alpha Z        PSCENC =       140.40642575
  Ewald energy   TEWEN  =     -5671.52231121
  -Hartree energ DENC   =     -2980.89971617
  -exchange      EXHF   =       247.88742960
  -V(xc)+E(xc)   XCENC  =        65.32664155
  PAW double counting   =      7333.63275765    -7526.87894962
  entropy T*S    EENTRO =        -0.00000000
  eigenvalues    EBANDS =       -27.91261230
  atomic energy  EATOM  =      8349.84459897
  Solvation  Ediel_sol  =         0.00000000
  ---------------------------------------------------
  free energy    TOTEN  =       -70.11573580 eV

  energy without entropy =      -70.11573580  energy(sigma->0) =      -70.11573580
  exchange ACFDT corr.  =         0.00000000  see jH, gK, PRB 81, 115126


--------------------------------------------------------------------------------------------------------




--------------------------------------- Iteration      1(   6)  ---------------------------------------


    POTLOK:  cpu time      0.0838: real time      0.0846
    SETDIJ:  cpu time      0.9212: real time      0.9233
     EDDAV:  cpu time      7.3144: real time      7.3452
       DOS:  cpu time      0.0003: real time      0.0002
    CHARGE:  cpu time      0.0208: real time      0.0209
    MIXING:  cpu time      0.0006: real time      0.0006
    --------------------------------------------
      LOOP:  cpu time      8.3410: real time      8.3748

 eigenvalue-minimisations  :   840
 total energy-change (2. order) : 0.6047292E+01  (-0.1170125E+01)
 number of electron     111.9999982 magnetization       3.4560000
 augmentation part       18.7084427 magnetization       3.4601772

 Free energy of the ion-electron system (eV)
  ---------------------------------------------------
  alpha Z        PSCENC =       140.40642575
  Ewald energy   TEWEN  =     -5671.52231121
  -Hartree energ DENC   =     -3031.90688335
  -exchange      EXHF   =       242.97073374
  -V(xc)+E(xc)   XCENC  =        67.37273249
  PAW double counting   =      9811.68619735   -10013.49941042
  entropy T*S    EENTRO =        -0.00000000
  eigenvalues    EBANDS =        40.57947314
  atomic energy  EATOM  =      8349.84459897
  Solvation  Ediel_sol  =         0.00000000
  ---------------------------------------------------
  free energy    TOTEN  =       -64.06844355 eV

  energy without entropy =      -64.06844355  energy(sigma->0) =      -64.06844355
  exchange ACFDT corr.  =         0.00000000  see jH, gK, PRB 81, 115126


--------------------------------------------------------------------------------------------------------




--------------------------------------- Iteration      1(   7)  ---------------------------------------


    POTLOK:  cpu time      0.0851: real time      0.0855
    SETDIJ:  cpu time      0.9674: real time      0.9697
     EDDAV:  cpu time      7.6692: real time      7.7018
       DOS:  cpu time      0.0004: real time      0.0004
    CHARGE:  cpu time      0.0218: real time      0.0218
    MIXING:  cpu time      0.0005: real time      0.0005
    --------------------------------------------
      LOOP:  cpu time      8.7444: real time      8.7796

 eigenvalue-minimisations  :   936
 total energy-change (2. order) :-0.1936527E+00  (-0.6745231E+00)
 number of electron     111.9999978 magnetization      -2.0736000
 augmentation part       19.3254242 magnetization      -2.0533652

 Free energy of the ion-electron system (eV)
  ---------------------------------------------------
  alpha Z        PSCENC =       140.40642575
  Ewald energy   TEWEN  =     -5671.52231121
  -Hartree energ DENC   =     -3014.36003642
  -exchange      EXHF   =       236.53506380
  -V(xc)+E(xc)   XCENC  =        67.19869427
  PAW double counting   =     12749.01991791   -12946.91937514
  entropy T*S    EENTRO =        -0.00000000
  eigenvalues    EBANDS =        25.53492589
  atomic energy  EATOM  =      8349.84459897
  Solvation  Ediel_sol  =         0.00000000
  ---------------------------------------------------
  free energy    TOTEN  =       -64.26209620 eV

  energy without entropy =      -64.26209620  energy(sigma->0) =      -64.26209620
  exchange ACFDT corr.  =         0.00000000  see jH, gK, PRB 81, 115126


--------------------------------------------------------------------------------------------------------




--------------------------------------- Iteration      1(   8)  ---------------------------------------


    POTLOK:  cpu time      0.1025: real time      0.1035
    SETDIJ:  cpu time      0.9398: real time      0.9420
     EDDAV:  cpu time      7.4552: real time      7.4863
       DOS:  cpu time      0.0003: real time      0.0003
    CHARGE:  cpu time      0.0214: real time      0.0215
    MIXING:  cpu time      0.0003: real time      0.0003
    --------------------------------------------
      LOOP:  cpu time      8.5194: real time      8.5538

 eigenvalue-minimisations  :   876
 total energy-change (2. order) :-0.3078431E+00  (-0.1732921E+00)
 number of electron     111.9999976 magnetization       1.2441600
 augmentation part       19.2988795 magnetization       1.2485167

 Free energy of the ion-electron system (eV)
  ---------------------------------------------------
  alpha Z        PSCENC =       140.40642575
  Ewald energy   TEWEN  =     -5671.52231121
  -Hartree energ DENC   =     -3017.40938219
  -exchange      EXHF   =       236.17562814
  -V(xc)+E(xc)   XCENC  =        67.41144128
  PAW double counting   =     15289.44544870   -15492.48111749
  entropy T*S    EENTRO =        -0.00000000
  eigenvalues    EBANDS =        33.55932873
  atomic energy  EATOM  =      8349.84459897
  Solvation  Ediel_sol  =         0.00000000
  ---------------------------------------------------
  free energy    TOTEN  =       -64.56993933 eV

  energy without entropy =      -64.56993933  energy(sigma->0) =      -64.56993933
  exchange ACFDT corr.  =         0.00000000  see jH, gK, PRB 81, 115126


--------------------------------------------------------------------------------------------------------




--------------------------------------- Iteration      1(   9)  ---------------------------------------


    POTLOK:  cpu time      0.0814: real time      0.0818
    SETDIJ:  cpu time      0.9248: real time      0.9270
     EDDAV:  cpu time      7.3110: real time      7.3413
       DOS:  cpu time      0.0004: real time      0.0004
    CHARGE:  cpu time      0.0213: real time      0.0213
    MIXING:  cpu time      0.0004: real time      0.0004
    --------------------------------------------
      LOOP:  cpu time      8.3393: real time      8.3722

 eigenvalue-minimisations  :   888
 total energy-change (2. order) : 0.5733091E-01  (-0.2111881E-01)
 number of electron     111.9999975 magnetization      -0.7464960
 augmentation part       19.2294729 magnetization      -0.7432213

 Free energy of the ion-electron system (eV)
  ---------------------------------------------------
  alpha Z        PSCENC =       140.40642575
  Ewald energy   TEWEN  =     -5671.52231121
  -Hartree energ DENC   =     -3014.15895812
  -exchange      EXHF   =       235.41165542
  -V(xc)+E(xc)   XCENC  =        67.35331669
  PAW double counting   =     17207.66017470   -17412.81174961
  entropy T*S    EENTRO =        -0.00000000
  eigenvalues    EBANDS =        33.30423901
  atomic energy  EATOM  =      8349.84459897
  Solvation  Ediel_sol  =         0.00000000
  ---------------------------------------------------
  free energy    TOTEN  =       -64.51260841 eV

  energy without entropy =      -64.51260841  energy(sigma->0) =      -64.51260841
  exchange ACFDT corr.  =         0.00000000  see jH, gK, PRB 81, 115126


--------------------------------------------------------------------------------------------------------




--------------------------------------- Iteration      1(  10)  ---------------------------------------


    POTLOK:  cpu time      0.0821: real time      0.0832
    SETDIJ:  cpu time      0.9230: real time      0.9252
     EDDAV:  cpu time      7.3414: real time      7.3715
       DOS:  cpu time      0.0003: real time      0.0003
    CHARGE:  cpu time      0.0208: real time      0.0209
    MIXING:  cpu time      0.0007: real time      0.0007
    --------------------------------------------
      LOOP:  cpu time      8.3683: real time      8.4018

 eigenvalue-minimisations  :   816
 total energy-change (2. order) :-0.1859883E-01  (-0.1353783E-01)
 number of electron     111.9999974 magnetization       0.4478976
 augmentation part       19.2266349 magnetization       0.4497583

 Free energy of the ion-electron system (eV)
  ---------------------------------------------------
  alpha Z        PSCENC =       140.40642575
  Ewald energy   TEWEN  =     -5671.52231121
  -Hartree energ DENC   =     -3011.52694550
  -exchange      EXHF   =       235.53511475
  -V(xc)+E(xc)   XCENC  =        67.30667479
  PAW double counting   =     18278.40118533   -18484.12021156
  entropy T*S    EENTRO =        -0.00000000
  eigenvalues    EBANDS =        31.14426144
  atomic energy  EATOM  =      8349.84459897
  Solvation  Ediel_sol  =         0.00000000
  ---------------------------------------------------
  free energy    TOTEN  =       -64.53120724 eV

  energy without entropy =      -64.53120724  energy(sigma->0) =      -64.53120724
  exchange ACFDT corr.  =         0.00000000  see jH, gK, PRB 81, 115126


--------------------------------------------------------------------------------------------------------




--------------------------------------- Iteration      1(  11)  ---------------------------------------


    POTLOK:  cpu time      0.0832: real time      0.0836
    SETDIJ:  cpu time      0.9249: real time      0.9271
     EDDAV:  cpu time      7.3162: real time      7.3467
       DOS:  cpu time      0.0003: real time      0.0003
    CHARGE:  cpu time      0.0229: real time      0.0229
    MIXING:  cpu time      0.0005: real time      0.0005
    --------------------------------------------
      LOOP:  cpu time      8.3480: real time      8.3811

 eigenvalue-minimisations  :   720
 total energy-change (2. order) :-0.6233430E-02  (-0.1910018E-02)
 number of electron     111.9999973 magnetization      -0.2687386
 augmentation part       19.2274887 magnetization      -0.2677231

 Free energy of the ion-electron system (eV)
  ---------------------------------------------------
  alpha Z        PSCENC =       140.40642575
  Ewald energy   TEWEN  =     -5671.52231121
  -Hartree energ DENC   =     -3012.27083117
  -exchange      EXHF   =       235.87967369
  -V(xc)+E(xc)   XCENC  =        67.36617501
  PAW double counting   =     18824.78558877   -19031.08774063
  entropy T*S    EENTRO =        -0.00000000
  eigenvalues    EBANDS =        32.06098016
  atomic energy  EATOM  =      8349.84459897
  Solvation  Ediel_sol  =         0.00000000
  ---------------------------------------------------
  free energy    TOTEN  =       -64.53744067 eV

  energy without entropy =      -64.53744067  energy(sigma->0) =      -64.53744067
  exchange ACFDT corr.  =         0.00000000  see jH, gK, PRB 81, 115126


--------------------------------------------------------------------------------------------------------




--------------------------------------- Iteration      1(  12)  ---------------------------------------


    POTLOK:  cpu time      0.1059: real time      0.1063
    SETDIJ:  cpu time      0.9322: real time      0.9344
     EDDAV:  cpu time      7.5822: real time      7.6130
       DOS:  cpu time      0.0003: real time      0.0003
    CHARGE:  cpu time      0.0207: real time      0.0208
    MIXING:  cpu time      0.0003: real time      0.0003
    --------------------------------------------
      LOOP:  cpu time      8.6417: real time      8.6752

 eigenvalue-minimisations  :   792
 total energy-change (2. order) :-0.1516314E-02  (-0.8076343E-03)
 number of electron     111.9999973 magnetization       0.1612431
 augmentation part       19.2234714 magnetization       0.1618226

 Free energy of the ion-electron system (eV)
  ---------------------------------------------------
  alpha Z        PSCENC =       140.40642575
  Ewald energy   TEWEN  =     -5671.52231121
  -Hartree energ DENC   =     -3013.04347224
  -exchange      EXHF   =       235.90991923
  -V(xc)+E(xc)   XCENC  =        67.41820641
  PAW double counting   =     19161.48162717   -19368.15540536
  entropy T*S    EENTRO =        -0.00000000
  eigenvalues    EBANDS =        33.12145429
  atomic energy  EATOM  =      8349.84459897
  Solvation  Ediel_sol  =         0.00000000
  ---------------------------------------------------
  free energy    TOTEN  =       -64.53895699 eV

  energy without entropy =      -64.53895699  energy(sigma->0) =      -64.53895699
  exchange ACFDT corr.  =         0.00000000  see jH, gK, PRB 81, 115126


--------------------------------------------------------------------------------------------------------




--------------------------------------- Iteration      1(  13)  ---------------------------------------


    POTLOK:  cpu time      0.0859: real time      0.0862
    SETDIJ:  cpu time      0.9267: real time      0.9289
     EDDAV:  cpu time      7.3262: real time      7.3564
       DOS:  cpu time      0.0003: real time      0.0004
    CHARGE:  cpu time      0.0217: real time      0.0217
    MIXING:  cpu time      0.0003: real time      0.0003
    --------------------------------------------
      LOOP:  cpu time      8.3612: real time      8.3939

 eigenvalue-minimisations  :   780
 total energy-change (2. order) :-0.1316610E-02  (-0.2647672E-03)
 number of electron     111.9999973 magnetization      -0.0967459
 augmentation part       19.2245425 magnetization      -0.0962020

 Free energy of the ion-electron system (eV)
  ---------------------------------------------------
  alpha Z        PSCENC =       140.40642575
  Ewald energy   TEWEN  =     -5671.52231121
  -Hartree energ DENC   =     -3013.11036351
  -exchange      EXHF   =       235.85254286
  -V(xc)+E(xc)   XCENC  =        67.43924401
  PAW double counting   =     19380.03695017   -19586.88058025
  entropy T*S    EENTRO =        -0.00000000
  eigenvalues    EBANDS =        33.39321962
  atomic energy  EATOM  =      8349.84459897
  Solvation  Ediel_sol  =         0.00000000
  ---------------------------------------------------
  free energy    TOTEN  =       -64.54027360 eV

  energy without entropy =      -64.54027360  energy(sigma->0) =      -64.54027360
  exchange ACFDT corr.  =         0.00000000  see jH, gK, PRB 81, 115126


--------------------------------------------------------------------------------------------------------




--------------------------------------- Iteration      1(  14)  ---------------------------------------


    POTLOK:  cpu time      0.0820: real time      0.0829
    SETDIJ:  cpu time      0.9280: real time      0.9302
     EDDAV:  cpu time      7.3907: real time      7.4215
       DOS:  cpu time      0.0003: real time      0.0003
    CHARGE:  cpu time      0.0210: real time      0.0210
    MIXING:  cpu time      0.0003: real time      0.0003
    --------------------------------------------
      LOOP:  cpu time      8.4223: real time      8.4563

 eigenvalue-minimisations  :   840
 total energy-change (2. order) :-0.4736224E-03  (-0.6043102E-04)
 number of electron     111.9999973 magnetization       0.0580475
 augmentation part       19.2247246 magnetization       0.0583038

 Free energy of the ion-electron system (eV)
  ---------------------------------------------------
  alpha Z        PSCENC =       140.40642575
  Ewald energy   TEWEN  =     -5671.52231121
  -Hartree energ DENC   =     -3013.10759474
  -exchange      EXHF   =       235.83338870
  -V(xc)+E(xc)   XCENC  =        67.44979342
  PAW double counting   =     19513.74145151   -19720.71131155
  entropy T*S    EENTRO =        -0.00000000
  eigenvalues    EBANDS =        33.52481194
  atomic energy  EATOM  =      8349.84459897
  Solvation  Ediel_sol  =         0.00000000
  ---------------------------------------------------
  free energy    TOTEN  =       -64.54074722 eV

  energy without entropy =      -64.54074722  energy(sigma->0) =      -64.54074722
  exchange ACFDT corr.  =         0.00000000  see jH, gK, PRB 81, 115126


--------------------------------------------------------------------------------------------------------




--------------------------------------- Iteration      1(  15)  ---------------------------------------


    POTLOK:  cpu time      0.0822: real time      0.0831
    SETDIJ:  cpu time      0.9300: real time      0.9322
     EDDAV:  cpu time      7.3330: real time      7.3634
       DOS:  cpu time      0.0003: real time      0.0003
    CHARGE:  cpu time      0.0216: real time      0.0216
    MIXING:  cpu time      0.0006: real time      0.0006
    --------------------------------------------
      LOOP:  cpu time      8.3677: real time      8.4012

 eigenvalue-minimisations  :   768
 total energy-change (2. order) :-0.2300124E-03  (-0.2821261E-04)
 number of electron     111.9999972 magnetization      -0.0348285
 augmentation part       19.2236414 magnetization      -0.0346759

 Free energy of the ion-electron system (eV)
  ---------------------------------------------------
  alpha Z        PSCENC =       140.40642575
  Ewald energy   TEWEN  =     -5671.52231121
  -Hartree energ DENC   =     -3013.13813513
  -exchange      EXHF   =       235.83154656
  -V(xc)+E(xc)   XCENC  =        67.45639917
  PAW double counting   =     19592.46816967   -19799.51994955
  entropy T*S    EENTRO =        -0.00000000
  eigenvalues    EBANDS =        33.63227854
  atomic energy  EATOM  =      8349.84459897
  Solvation  Ediel_sol  =         0.00000000
  ---------------------------------------------------
  free energy    TOTEN  =       -64.54097723 eV

  energy without entropy =      -64.54097723  energy(sigma->0) =      -64.54097723
  exchange ACFDT corr.  =         0.00000000  see jH, gK, PRB 81, 115126


--------------------------------------------------------------------------------------------------------




--------------------------------------- Iteration      1(  16)  ---------------------------------------


    POTLOK:  cpu time      0.0825: real time      0.0828
    SETDIJ:  cpu time      0.9270: real time      0.9292
     EDDAV:  cpu time      7.5035: real time      7.5343
       DOS:  cpu time      0.0003: real time      0.0003
    CHARGE:  cpu time      0.0218: real time      0.0219
    MIXING:  cpu time      0.0008: real time      0.0008
    --------------------------------------------
      LOOP:  cpu time      8.5360: real time      8.5693

 eigenvalue-minimisations  :   684
 total energy-change (2. order) :-0.1109309E-03  (-0.8777430E-05)
 number of electron     111.9999972 magnetization       0.0208971
 augmentation part       19.2234035 magnetization       0.0209598

 Free energy of the ion-electron system (eV)
  ---------------------------------------------------
  alpha Z        PSCENC =       140.40642575
  Ewald energy   TEWEN  =     -5671.52231121
  -Hartree energ DENC   =     -3013.15950951
  -exchange      EXHF   =       235.83180323
  -V(xc)+E(xc)   XCENC  =        67.46018719
  PAW double counting   =     19637.60130496   -19844.69088685
  entropy T*S    EENTRO =        -0.00000000
  eigenvalues    EBANDS =        33.68729932
  atomic energy  EATOM  =      8349.84459897
  Solvation  Ediel_sol  =         0.00000000
  ---------------------------------------------------
  free energy    TOTEN  =       -64.54108816 eV

  energy without entropy =      -64.54108816  energy(sigma->0) =      -64.54108816
  exchange ACFDT corr.  =         0.00000000  see jH, gK, PRB 81, 115126


--------------------------------------------------------------------------------------------------------




--------------------------------------- Iteration      1(  17)  ---------------------------------------


    POTLOK:  cpu time      0.0927: real time      0.0931
    SETDIJ:  cpu time      0.9823: real time      0.9846
     EDDAV:  cpu time      7.5518: real time      7.5825
       DOS:  cpu time      0.0003: real time      0.0003
    CHARGE:  cpu time      0.0231: real time      0.0232
    MIXING:  cpu time      0.0005: real time      0.0005
    --------------------------------------------
      LOOP:  cpu time      8.6508: real time      8.6842

 eigenvalue-minimisations  :   600
 total energy-change (2. order) :-0.4716441E-04  (-0.2512796E-05)
 number of electron     111.9999972 magnetization      -0.0125383
 augmentation part       19.2232937 magnetization      -0.0125821

 Free energy of the ion-electron system (eV)
  ---------------------------------------------------
  alpha Z        PSCENC =       140.40642575
  Ewald energy   TEWEN  =     -5671.52231121
  -Hartree energ DENC   =     -3013.19414776
  -exchange      EXHF   =       235.83392514
  -V(xc)+E(xc)   XCENC  =        67.46314784
  PAW double counting   =     19663.56767388   -19870.67976628
  entropy T*S    EENTRO =        -0.00000000
  eigenvalues    EBANDS =        33.73931835
  atomic energy  EATOM  =      8349.84459897
  Solvation  Ediel_sol  =         0.00000000
  ---------------------------------------------------
  free energy    TOTEN  =       -64.54113533 eV

  energy without entropy =      -64.54113533  energy(sigma->0) =      -64.54113533
  exchange ACFDT corr.  =         0.00000000  see jH, gK, PRB 81, 115126


--------------------------------------------------------------------------------------------------------




--------------------------------------- Iteration      1(  18)  ---------------------------------------


    POTLOK:  cpu time      0.0878: real time      0.0881
    SETDIJ:  cpu time      0.9284: real time      0.9306
     EDDAV:  cpu time      7.2888: real time      7.3189
       DOS:  cpu time      0.0003: real time      0.0003
    CHARGE:  cpu time      0.0189: real time      0.0190
    MIXING:  cpu time      0.0004: real time      0.0003
    --------------------------------------------
      LOOP:  cpu time      8.3244: real time      8.3571

 eigenvalue-minimisations  :   480
 total energy-change (2. order) :-0.2311045E-04  (-0.1301763E-05)
 number of electron     111.9999972 magnetization       0.0075230
 augmentation part       19.2233430 magnetization       0.0076244

 Free energy of the ion-electron system (eV)
  ---------------------------------------------------
  alpha Z        PSCENC =       140.40642575
  Ewald energy   TEWEN  =     -5671.52231121
  -Hartree energ DENC   =     -3013.21966408
  -exchange      EXHF   =       235.83395960
  -V(xc)+E(xc)   XCENC  =        67.46510996
  PAW double counting   =     19679.28017165   -19886.40487206
  entropy T*S    EENTRO =        -0.00000000
  eigenvalues    EBANDS =        33.77542300
  atomic energy  EATOM  =      8349.84459897
  Solvation  Ediel_sol  =         0.00000000
  ---------------------------------------------------
  free energy    TOTEN  =       -64.54115844 eV

  energy without entropy =      -64.54115844  energy(sigma->0) =      -64.54115844
  exchange ACFDT corr.  =         0.00000000  see jH, gK, PRB 81, 115126


--------------------------------------------------------------------------------------------------------




--------------------------------------- Iteration      1(  19)  ---------------------------------------


    POTLOK:  cpu time      0.0816: real time      0.0820
    SETDIJ:  cpu time      0.9353: real time      0.9376
     EDDAV:  cpu time      7.2584: real time      7.2883
       DOS:  cpu time      0.0003: real time      0.0003
    CHARGE:  cpu time      0.0228: real time      0.0228
    MIXING:  cpu time      0.0003: real time      0.0003
    --------------------------------------------
      LOOP:  cpu time      8.2987: real time      8.3313

 eigenvalue-minimisations  :   456
 total energy-change (2. order) :-0.1137463E-04  (-0.7032516E-06)
 number of electron     111.9999972 magnetization      -0.0045138
 augmentation part       19.2231987 magnetization      -0.0045469

 Free energy of the ion-electron system (eV)
  ---------------------------------------------------
  alpha Z        PSCENC =       140.40642575
  Ewald energy   TEWEN  =     -5671.52231121
  -Hartree energ DENC   =     -3013.23730971
  -exchange      EXHF   =       235.83358718
  -V(xc)+E(xc)   XCENC  =        67.46638971
  PAW double counting   =     19688.94230857   -19896.07534021
  entropy T*S    EENTRO =        -0.00000000
  eigenvalues    EBANDS =        33.80048114
  atomic energy  EATOM  =      8349.84459897
  Solvation  Ediel_sol  =         0.00000000
  ---------------------------------------------------
  free energy    TOTEN  =       -64.54116981 eV

  energy without entropy =      -64.54116981  energy(sigma->0) =      -64.54116981
  exchange ACFDT corr.  =         0.00000000  see jH, gK, PRB 81, 115126


--------------------------------------------------------------------------------------------------------




--------------------------------------- Iteration      1(  20)  ---------------------------------------


    POTLOK:  cpu time      0.0822: real time      0.0832
    SETDIJ:  cpu time      0.9339: real time      0.9361
     EDDAV:  cpu time      7.2729: real time      7.3031
       DOS:  cpu time      0.0003: real time      0.0003
    --------------------------------------------
      LOOP:  cpu time      8.2893: real time      8.3226

 eigenvalue-minimisations  :   432
 total energy-change (2. order) :-0.5469166E-05  (-0.3745751E-06)
 number of electron     111.9999972 magnetization      -0.0045138
 augmentation part       19.2231987 magnetization      -0.0045469

 Free energy of the ion-electron system (eV)
  ---------------------------------------------------
  alpha Z        PSCENC =       140.40642575
  Ewald energy   TEWEN  =     -5671.52231121
  -Hartree energ DENC   =     -3013.24383465
  -exchange      EXHF   =       235.83303078
  -V(xc)+E(xc)   XCENC  =        67.46702510
  PAW double counting   =     19694.89097416   -19902.02693981
  entropy T*S    EENTRO =        -0.00000000
  eigenvalues    EBANDS =        33.80985563
  atomic energy  EATOM  =      8349.84459897
  Solvation  Ediel_sol  =         0.00000000
  ---------------------------------------------------
  free energy    TOTEN  =       -64.54117528 eV

  energy without entropy =      -64.54117528  energy(sigma->0) =      -64.54117528
  exchange ACFDT corr.  =         0.00000000  see jH, gK, PRB 81, 115126


--------------------------------------------------------------------------------------------------------




 average (electrostatic) potential at core
  the test charge radii are     0.9430  1.1712  0.9698
  (the norm of the test charge is              1.0000)
       1 -56.3611       2 -56.3612       3 -56.3611       4 -56.3612       5 -84.3422
       6 -84.3422       7 -84.3422       8 -84.3422       9 -81.6566      10 -81.6566
      11 -81.6566      12 -81.6566      13 -81.7500      14 -81.7500      15 -81.7500
      16 -81.7500
 
 
 
 E-fermi :   5.5314     XC(G=0):  -8.1050     alpha+bet :-11.0670

 Fermi energy:         5.5313640619

 spin component 1

 k-point     1 :       0.0000    0.0000    0.0000
  band No.  band energies     occupation 
      1     -10.5409      1.00000
      2     -10.2546      1.00000
      3     -10.0253      1.00000
      4      -9.6065      1.00000
      5      -8.6746      1.00000
      6      -8.5688      1.00000
      7      -8.4516      1.00000
      8      -8.2497      1.00000
      9      -4.5872      1.00000
     10      -4.3949      1.00000
     11      -4.3464      1.00000
     12      -3.8713      1.00000
     13      -1.3968      1.00000
     14      -0.9978      1.00000
     15      -0.3229      1.00000
     16       0.0753      1.00000
     17       0.1260      1.00000
     18       0.6530      1.00000
     19       0.7393      1.00000
     20       0.8289      1.00000
     21       1.1636      1.00000
     22       1.1834      1.00000
     23       1.1843      1.00000
     24       1.2080      1.00000
     25       1.3238      1.00000
     26       1.3913      1.00000
     27       1.4000      1.00000
     28       1.5404      1.00000
     29       1.5607      1.00000
     30       1.6389      1.00000
     31       1.6604      1.00000
     32       1.6944      1.00000
     33       2.3133      1.00000
     34       2.4526      1.00000
     35       2.6815      1.00000
     36       2.6818      1.00000
     37       2.7005      1.00000
     38       2.7983      1.00000
     39       2.8187      1.00000
     40       2.9766      1.00000
     41       3.1582      1.00000
     42       3.1701      1.00000
     43       3.2452      1.00000
     44       3.3807      1.00000
     45       3.6799      1.00000
     46       3.6897      1.00000
     47       4.0241      1.00000
     48       4.5445      1.00000
     49       4.5880      1.00000
     50       4.8827      1.00000
     51       5.0835      1.00000
     52       5.1130      1.00000
     53       5.2129      1.00000
     54       5.4240      1.00000
     55       5.4429      1.00000
     56       5.4723      1.00000
     57       7.0866      0.00000
     58       7.4955      0.00000
     59       7.5034      0.00000
     60       7.9906      0.00000
     61       8.2465      0.00000
     62       8.5544      0.00000
     63       8.7385      0.00000
     64       8.8481      0.00000
     65       8.9890      0.00000
     66       9.0640      0.00000
     67       9.5007      0.00000
     68       9.5845      0.00000
     69      10.7059      0.00000
     70      10.8765      0.00000
     71      11.4498      0.00000
     72      11.9825      0.00000

 k-point     2 :       0.0000    0.2500    0.0000
  band No.  band energies     occupation 
      1     -10.3843      1.00000
      2     -10.1300      1.00000
      3      -9.9101      1.00000
      4      -9.5944      1.00000
      5      -8.8763      1.00000
      6      -8.7801      1.00000
      7      -8.6047      1.00000
      8      -8.3884      1.00000
      9      -4.9460      1.00000
     10      -4.6669      1.00000
     11      -3.9944      1.00000
     12      -3.6663      1.00000
     13      -0.8265      1.00000
     14      -0.3310      1.00000
     15      -0.2148      1.00000
     16       0.1189      1.00000
     17       0.1382      1.00000
     18       0.7069      1.00000
     19       0.7557      1.00000
     20       0.8193      1.00000
     21       1.0638      1.00000
     22       1.1417      1.00000
     23       1.1835      1.00000
     24       1.1961      1.00000
     25       1.2148      1.00000
     26       1.3474      1.00000
     27       1.4888      1.00000
     28       1.5298      1.00000
     29       1.6095      1.00000
     30       1.6834      1.00000
     31       1.7867      1.00000
     32       1.8206      1.00000
     33       2.4711      1.00000
     34       2.4723      1.00000
     35       2.5909      1.00000
     36       2.7531      1.00000
     37       2.7772      1.00000
     38       2.8259      1.00000
     39       2.8945      1.00000
     40       3.0795      1.00000
     41       3.1563      1.00000
     42       3.1859      1.00000
     43       3.2958      1.00000
     44       3.5234      1.00000
     45       3.8535      1.00000
     46       3.9730      1.00000
     47       4.0725      1.00000
     48       4.3393      1.00000
     49       4.6626      1.00000
     50       4.7085      1.00000
     51       4.7779      1.00000
     52       4.8455      1.00000
     53       4.9002      1.00000
     54       5.1281      1.00000
     55       5.1516      1.00000
     56       5.4707      1.00000
     57       7.0067      0.00000
     58       7.0113      0.00000
     59       7.5564      0.00000
     60       8.0945      0.00000
     61       8.1307      0.00000
     62       8.1474      0.00000
     63       8.2252      0.00000
     64       8.6050      0.00000
     65       9.1589      0.00000
     66       9.4921      0.00000
     67       9.5271      0.00000
     68      10.0007      0.00000
     69      10.5576      0.00000
     70      10.6519      0.00000
     71      11.4076      0.00000
     72      11.6577      0.00000
 Fermi energy:         5.5313640619

 spin component 2

 k-point     1 :       0.0000    0.0000    0.0000
  band No.  band energies     occupation 
      1     -10.5410      1.00000
      2     -10.2547      1.00000
      3     -10.0254      1.00000
      4      -9.6067      1.00000
      5      -8.6747      1.00000
      6      -8.5689      1.00000
      7      -8.4518      1.00000
      8      -8.2499      1.00000
      9      -4.5873      1.00000
     10      -4.3951      1.00000
     11      -4.3466      1.00000
     12      -3.8714      1.00000
     13      -1.3970      1.00000
     14      -0.9980      1.00000
     15      -0.3230      1.00000
     16       0.0751      1.00000
     17       0.1258      1.00000
     18       0.6528      1.00000
     19       0.7392      1.00000
     20       0.8287      1.00000
     21       1.1635      1.00000
     22       1.1832      1.00000
     23       1.1841      1.00000
     24       1.2078      1.00000
     25       1.3237      1.00000
     26       1.3912      1.00000
     27       1.3999      1.00000
     28       1.5402      1.00000
     29       1.5606      1.00000
     30       1.6388      1.00000
     31       1.6603      1.00000
     32       1.6942      1.00000
     33       2.3132      1.00000
     34       2.4525      1.00000
     35       2.6814      1.00000
     36       2.6817      1.00000
     37       2.7004      1.00000
     38       2.7982      1.00000
     39       2.8186      1.00000
     40       2.9764      1.00000
     41       3.1581      1.00000
     42       3.1700      1.00000
     43       3.2451      1.00000
     44       3.3805      1.00000
     45       3.6797      1.00000
     46       3.6895      1.00000
     47       4.0240      1.00000
     48       4.5443      1.00000
     49       4.5879      1.00000
     50       4.8826      1.00000
     51       5.0833      1.00000
     52       5.1128      1.00000
     53       5.2128      1.00000
     54       5.4239      1.00000
     55       5.4427      1.00000
     56       5.4722      1.00000
     57       7.0865      0.00000
     58       7.4953      0.00000
     59       7.5032      0.00000
     60       7.9904      0.00000
     61       8.2464      0.00000
     62       8.5542      0.00000
     63       8.7384      0.00000
     64       8.8479      0.00000
     65       8.9889      0.00000
     66       9.0638      0.00000
     67       9.5005      0.00000
     68       9.5843      0.00000
[...]
     30       1.6832      1.00000
     31       1.7865      1.00000
     32       1.8204      1.00000
     33       2.4710      1.00000
     34       2.4722      1.00000
     35       2.5908      1.00000
     36       2.7530      1.00000
     37       2.7771      1.00000
     38       2.8258      1.00000
     39       2.8944      1.00000
     40       3.0793      1.00000
     41       3.1562      1.00000
     42       3.1858      1.00000
     43       3.2956      1.00000
     44       3.5232      1.00000
     45       3.8534      1.00000
     46       3.9729      1.00000
     47       4.0724      1.00000
     48       4.3392      1.00000
     49       4.6625      1.00000
     50       4.7084      1.00000
     51       4.7778      1.00000
     52       4.8454      1.00000
     53       4.9000      1.00000
     54       5.1279      1.00000
     55       5.1515      1.00000
     56       5.4706      1.00000
     57       7.0065      0.00000
     58       7.0111      0.00000
     59       7.5562      0.00000
     60       8.0944      0.00000
     61       8.1305      0.00000
     62       8.1472      0.00000
     63       8.2250      0.00000
     64       8.6048      0.00000
     65       9.1588      0.00000
     66       9.4919      0.00000
     67       9.5270      0.00000
     68      10.0006      0.00000
     69      10.5574      0.00000
     70      10.6516      0.00000
     71      11.4073      0.00000
     72      11.6571      0.00000


--------------------------------------------------------------------------------------------------------


 soft charge-density along one line, spin component           1
         0         1         2         3         4         5         6         7         8         9
 total charge-density along one line
 
 soft charge-density along one line, spin component           2
         0         1         2         3         4         5         6         7         8         9
 total charge-density along one line
 
 pseudopotential strength for first ion, spin component:           1
  0.019   0.000   0.000   0.004   0.000  -7.201  -0.000  -0.000
  0.000   0.046   0.001   0.000   0.000  -0.000  -7.226  -0.002
  0.000   0.001   0.042  -0.000   0.019  -0.000  -0.002  -7.221
  0.004   0.000  -0.000   0.029   0.000  -0.001  -0.000   0.000
  0.000   0.000   0.019   0.000  -0.001  -0.000   0.001  -0.013
 -7.201  -0.000  -0.000  -0.001  -0.000  12.199   0.000   0.000
 -0.000  -7.226  -0.002  -0.000   0.001   0.000  12.217   0.002
 -0.000  -0.002  -7.221   0.000  -0.013   0.000   0.002  12.214
 -0.001  -0.000   0.000  -7.209  -0.000  -0.001   0.000  -0.000
 -0.000   0.001  -0.013  -0.000  -7.191   0.000  -0.001   0.006
  0.000  -0.005  -0.010  -0.000   0.007  -0.000   0.002   0.005
  0.000  -0.009  -0.019  -0.000   0.013  -0.000   0.003   0.008
 -0.000   0.017  -0.002  -0.000   0.000  -0.000  -0.008   0.002
 -0.000   0.009   0.015   0.000   0.004   0.000  -0.005  -0.006
  0.013  -0.000   0.000   0.025  -0.000  -0.008   0.000  -0.000
  0.000   0.019  -0.001  -0.000   0.004  -0.000  -0.008   0.002
 -0.000   0.012   0.014   0.000   0.007   0.000  -0.006  -0.005
  0.018  -0.000   0.000   0.033  -0.000  -0.010   0.000  -0.000
 pseudopotential strength for first ion, spin component:           2
  0.019   0.000  -0.000   0.004  -0.000  -7.201  -0.000   0.000
  0.000   0.046   0.001  -0.000   0.000  -0.000  -7.225  -0.002
 -0.000   0.001   0.042   0.000   0.019   0.000  -0.002  -7.221
  0.004  -0.000   0.000   0.029   0.000  -0.001   0.000  -0.000
 -0.000   0.000   0.019   0.000  -0.001   0.000   0.001  -0.013
 -7.201  -0.000   0.000  -0.001   0.000  12.199   0.000  -0.000
 -0.000  -7.225  -0.002   0.000   0.001   0.000  12.217   0.002
  0.000  -0.002  -7.221  -0.000  -0.013  -0.000   0.002  12.214
 -0.001   0.000  -0.000  -7.209  -0.000  -0.001  -0.000   0.000
  0.000   0.001  -0.013  -0.000  -7.191  -0.000  -0.001   0.006
 -0.000  -0.005  -0.010  -0.000   0.007   0.000   0.002   0.005
 -0.000  -0.009  -0.019  -0.000   0.013   0.000   0.003   0.008
 -0.000   0.017  -0.002   0.000   0.000  -0.000  -0.008   0.002
  0.000   0.009   0.015  -0.000   0.004  -0.000  -0.005  -0.006
  0.013   0.000  -0.000   0.025  -0.000  -0.008  -0.000   0.000
  0.000   0.019  -0.001   0.000   0.004  -0.000  -0.008   0.002
  0.000   0.012   0.014  -0.000   0.007  -0.000  -0.006  -0.005
  0.018   0.000  -0.000   0.033  -0.000  -0.010  -0.000   0.000
 total augmentation occupancy for first ion, spin component:           1
  1.984  -0.000   0.000   0.001   0.000  -0.013   0.000   0.000  -0.008  -0.000   0.000  -0.000   0.000  -0.000  -0.019  -0.000
 -0.000   1.972   0.000  -0.000   0.002  -0.000  -0.004   0.002  -0.000  -0.003   0.031   0.006  -0.009  -0.010   0.000   0.017
  0.000   0.000   1.969   0.000   0.016   0.000   0.002  -0.010   0.000  -0.008   0.050   0.007   0.015   0.014  -0.000  -0.009
  0.001  -0.000   0.000   1.981  -0.000  -0.008  -0.000  -0.000  -0.013   0.000  -0.000   0.000  -0.000   0.000  -0.026   0.000
  0.000   0.002   0.016  -0.000   1.935   0.000  -0.003  -0.008  -0.000   0.012  -0.064   0.005  -0.036  -0.037   0.000  -0.017
 -0.013  -0.000   0.000  -0.008   0.000   0.019  -0.000   0.000   0.021   0.000   0.000  -0.000   0.000  -0.000   0.057  -0.000
  0.000  -0.004   0.002  -0.000  -0.003  -0.000   0.014  -0.012  -0.000   0.004  -0.027   0.003  -0.009   0.028   0.000   0.001
  0.000   0.002  -0.010  -0.000  -0.008   0.000  -0.012   0.035  -0.000  -0.000  -0.038   0.006   0.031  -0.055   0.000  -0.004
 -0.008  -0.000   0.000  -0.013  -0.000   0.021  -0.000  -0.000   0.032  -0.000   0.000  -0.000  -0.000   0.000   0.079   0.000
 -0.000  -0.003  -0.008   0.000   0.012   0.000   0.004  -0.000  -0.000   0.038   0.024  -0.007   0.072   0.033   0.000  -0.009
  0.000   0.031   0.050  -0.000  -0.064   0.000  -0.027  -0.038   0.000   0.024   2.003  -0.409  -0.078  -0.119  -0.000   0.011
 -0.000   0.006   0.007   0.000   0.005  -0.000   0.003   0.006  -0.000  -0.007  -0.409   0.089   0.013   0.016   0.000  -0.002
  0.000  -0.009   0.015  -0.000  -0.036   0.000  -0.009   0.031  -0.000   0.072  -0.078   0.013   0.271  -0.020   0.000  -0.033
 -0.000  -0.010   0.014   0.000  -0.037  -0.000   0.028  -0.055   0.000   0.033  -0.119   0.016  -0.020   0.231  -0.000   0.002
 -0.019   0.000  -0.000  -0.026   0.000   0.057   0.000   0.000   0.079   0.000  -0.000   0.000   0.000  -0.000   0.243   0.000
 -0.000   0.017  -0.009   0.000  -0.017  -0.000   0.001  -0.004   0.000  -0.009   0.011  -0.002  -0.033   0.002   0.000   0.005
  0.000   0.000   0.029  -0.000  -0.005   0.000  -0.004   0.006  -0.000  -0.004   0.016  -0.002   0.002  -0.030   0.000  -0.000
 -0.007   0.000  -0.000   0.001  -0.000  -0.006  -0.000  -0.000  -0.008  -0.000  -0.000   0.000  -0.000   0.000  -0.025   0.000
 total augmentation occupancy for first ion, spin component:           2
  0.000  -0.000   0.000   0.000  -0.000   0.000  -0.000  -0.000   0.000  -0.000   0.000  -0.000  -0.000  -0.000   0.000   0.000
 -0.000   0.000   0.000  -0.000  -0.000  -0.000   0.000   0.000   0.000  -0.000  -0.000  -0.000   0.000   0.000  -0.000  -0.000
  0.000   0.000   0.000  -0.000   0.000   0.000   0.000   0.000  -0.000   0.000  -0.000  -0.000   0.000   0.000   0.000  -0.000
  0.000  -0.000  -0.000   0.000   0.000   0.000  -0.000   0.000   0.000  -0.000  -0.000  -0.000   0.000   0.000   0.000  -0.000
 -0.000  -0.000   0.000   0.000  -0.000  -0.000  -0.000   0.000   0.000  -0.000   0.000   0.000  -0.000  -0.000  -0.000   0.000
  0.000  -0.000   0.000   0.000  -0.000   0.000  -0.000   0.000   0.000  -0.000   0.000  -0.000  -0.000  -0.000   0.000   0.000
 -0.000   0.000   0.000  -0.000  -0.000  -0.000   0.000   0.000  -0.000  -0.000  -0.000   0.000   0.000  -0.000  -0.000   0.000
 -0.000   0.000   0.000   0.000   0.000   0.000   0.000  -0.000  -0.000  -0.000  -0.000   0.000  -0.000   0.000   0.000   0.000
  0.000   0.000  -0.000   0.000   0.000   0.000  -0.000  -0.000   0.000   0.000  -0.000   0.000   0.000   0.000   0.000  -0.000
 -0.000  -0.000   0.000  -0.000  -0.000  -0.000  -0.000  -0.000   0.000   0.000   0.000  -0.000  -0.000   0.000  -0.000  -0.000
  0.000  -0.000  -0.000  -0.000   0.000   0.000  -0.000  -0.000  -0.000   0.000  -0.000  -0.000   0.000   0.000   0.000  -0.000
 -0.000  -0.000  -0.000  -0.000   0.000  -0.000   0.000   0.000   0.000  -0.000  -0.000   0.000  -0.000   0.000  -0.000  -0.000
 -0.000   0.000   0.000   0.000  -0.000  -0.000   0.000  -0.000   0.000  -0.000   0.000  -0.000   0.000   0.000  -0.000  -0.000
 -0.000   0.000   0.000   0.000  -0.000  -0.000  -0.000   0.000   0.000   0.000   0.000   0.000   0.000  -0.000   0.000  -0.000
  0.000  -0.000   0.000   0.000  -0.000   0.000  -0.000   0.000   0.000  -0.000   0.000  -0.000  -0.000   0.000  -0.000   0.000
  0.000  -0.000  -0.000  -0.000   0.000   0.000   0.000   0.000  -0.000  -0.000  -0.000  -0.000  -0.000  -0.000   0.000   0.000
 -0.000  -0.000  -0.000  -0.000   0.000   0.000   0.000   0.000  -0.000  -0.000  -0.000  -0.000  -0.000   0.000  -0.000   0.000
  0.000   0.000  -0.000   0.000   0.000  -0.000   0.000  -0.000  -0.000  -0.000  -0.000   0.000  -0.000  -0.000  -0.000   0.000


------------------------ aborting loop because EDIFF is reached ----------------------------------------





 total charge

# of ion       s       p       d       tot
------------------------------------------
    1        0.320   0.348   9.394  10.061
    2        0.320   0.348   9.394  10.061
    3        0.320   0.348   9.394  10.061
    4        0.320   0.348   9.394  10.061
    5        1.287   1.041   0.083   2.412
    6        1.287   1.041   0.083   2.412
    7        1.287   1.041   0.083   2.412
    8        1.287   1.041   0.083   2.412
    9        1.303   2.472   0.000   3.775
   10        1.303   2.472   0.000   3.775
   11        1.303   2.472   0.000   3.775
   12        1.303   2.472   0.000   3.775
   13        1.322   2.458   0.000   3.780
   14        1.322   2.458   0.000   3.780
   15        1.322   2.458   0.000   3.780
   16        1.322   2.458   0.000   3.780
--------------------------------------------------
tot         16.930  25.276  37.908  80.115



 magnetization (x)

# of ion       s       p       d       tot
------------------------------------------
    1        0.000   0.000   0.000   0.000
    2        0.000   0.000   0.000   0.000
    3        0.000   0.000   0.000   0.000
    4        0.000   0.000   0.000   0.000
    5        0.000  -0.000  -0.000  -0.000
    6        0.000  -0.000  -0.000  -0.000
    7        0.000  -0.000  -0.000  -0.000
    8        0.000  -0.000  -0.000  -0.000
    9        0.000   0.000   0.000   0.000
   10        0.000   0.000   0.000   0.000
   11        0.000   0.000   0.000   0.000
   12        0.000   0.000   0.000   0.000
   13        0.000   0.000   0.000   0.000
   14        0.000   0.000   0.000   0.000
   15        0.000   0.000   0.000   0.000
   16        0.000   0.000   0.000   0.000
--------------------------------------------------
tot          0.000   0.000   0.000   0.000
 
    CHARGE:  cpu time      0.0217: real time      0.0217
    FORLOC:  cpu time      0.0028: real time      0.0030
    FORHF :  cpu time      5.9728: real time      5.9966
    FORNL :  cpu time      0.0469: real time      0.0470
    FORCOR:  cpu time      1.0648: real time      1.0676
    FORHAR:  cpu time      0.0085: real time      0.0086
    MIXING:  cpu time      0.0003: real time      0.0003
    OFIELD:  cpu time      0.0008: real time      0.0010

 VOLUME and BASIS-vectors are now :
 -----------------------------------------------------------------------------
  energy-cutoff  :      680.00
  volume of cell :      334.64
      direct lattice vectors                 reciprocal lattice vectors
     3.801574740  0.000000000  0.000000000     0.263048886  0.000000000  0.000000000
    -0.000000000  6.074320560  0.000000000     0.000000000  0.164627466  0.000000000
     0.000000000  0.000000000 14.491760480    -0.000000000 -0.000000000  0.069004729

  length of vectors
     3.801574740  6.074320560 14.491760480     0.263048886  0.164627466  0.069004729


 FORCES acting on ions
    electron-ion (+dipol)            ewald-force                    non-local-force                 convergence-correction
 -----------------------------------------------------------------------------------------------
   -.192E-04 0.171E+01 -.786E+02   0.950E-14 -.276E+01 0.743E+02   -.348E-16 0.529E+00 0.308E+01   0.231E-04 -.525E-03 -.209E-02
   -.157E-04 0.171E+01 0.786E+02   0.680E-13 -.276E+01 -.743E+02   -.348E-16 0.529E+00 -.308E+01   0.123E-04 -.531E-03 0.236E-02
   0.589E-07 -.171E+01 0.786E+02   -.125E-14 0.276E+01 -.743E+02   0.348E-16 -.529E+00 -.308E+01   -.129E-05 0.538E-03 0.215E-02
   0.759E-05 -.171E+01 -.786E+02   -.490E-13 0.276E+01 0.743E+02   0.348E-16 -.529E+00 0.308E+01   0.126E-06 0.523E-03 -.240E-02
   0.132E-05 0.191E+02 -.408E+02   -.304E-13 -.248E+02 0.491E+02   -.406E-15 0.616E+01 -.821E+01   0.470E-07 -.602E-03 -.980E-03
   0.617E-05 -.191E+02 0.408E+02   0.217E-13 0.248E+02 -.491E+02   0.406E-15 -.616E+01 0.821E+01   -.796E-07 0.603E-03 0.931E-03
   0.248E-05 0.191E+02 0.408E+02   0.314E-13 -.248E+02 -.491E+02   -.406E-15 0.616E+01 0.821E+01   0.116E-05 -.599E-03 0.943E-03
   0.207E-05 -.191E+02 -.408E+02   -.353E-13 0.248E+02 0.491E+02   0.406E-15 -.616E+01 -.821E+01   -.182E-05 0.599E-03 -.893E-03
   -.182E-05 0.423E+02 -.121E+03   0.552E-13 -.413E+02 0.125E+03   0.155E-15 -.235E+01 -.117E+01   -.108E-05 -.137E-03 -.948E-03
   0.720E-05 -.423E+02 0.121E+03   -.484E-13 0.413E+02 -.125E+03   -.155E-15 0.235E+01 0.117E+01   -.278E-05 0.131E-03 0.898E-03
   -.113E-04 0.423E+02 0.121E+03   0.290E-13 -.413E+02 -.125E+03   0.155E-15 -.235E+01 0.117E+01   0.275E-05 -.125E-03 0.893E-03
   0.107E-04 -.423E+02 -.121E+03   -.254E-13 0.413E+02 0.125E+03   -.155E-15 0.235E+01 -.117E+01   -.457E-05 0.117E-03 -.840E-03
   -.854E-06 -.587E+02 -.107E+03   -.139E-13 0.583E+02 0.108E+03   -.617E-16 0.937E+00 -.154E+01   0.154E-05 0.295E-03 -.979E-04
   -.822E-06 0.587E+02 -.107E+03   0.340E-13 -.583E+02 0.108E+03   0.617E-16 -.937E+00 -.154E+01   0.195E-05 -.270E-03 0.663E-04
   0.216E-05 -.587E+02 0.107E+03   -.285E-13 0.583E+02 -.108E+03   -.617E-16 0.937E+00 0.154E+01   -.256E-06 0.271E-03 -.447E-04
   0.856E-05 0.587E+02 0.107E+03   0.183E-13 -.583E+02 -.108E+03   0.617E-16 -.937E+00 0.154E+01   -.927E-07 -.287E-03 0.744E-04
 -----------------------------------------------------------------------------------------------
   -.132E-05 0.220E-05 -.458E-04   0.349E-13 -.284E-13 0.000E+00   0.102E-20 0.000E+00 -.222E-14   0.310E-04 0.116E-05 0.262E-04
 
 
 POSITION                                       TOTAL-FORCE (eV/Angst)
 -----------------------------------------------------------------------------------
      0.95039      1.51920     12.00234         0.000000     -0.707109     -1.315883
      0.95039      4.55636      9.73530         0.000000     -0.707109      1.315883
      2.85118      4.55512      2.48942        -0.000000      0.707109      1.315883
      2.85118      1.51796      4.75646        -0.000000      0.707109     -1.315883
      0.95039      4.42704      6.29794        -0.000000      0.704000     -0.496467
      2.85118      1.64728      8.19382         0.000000     -0.704000      0.496467
      0.95039      1.38988      0.94794        -0.000000      0.704000      0.496467
      2.85118      4.68444     13.54382         0.000000     -0.704000     -0.496467
      0.95039      0.75131      5.81185         0.000000     -1.573036      2.069383
      2.85118      5.32301      8.67991        -0.000000      1.573036     -2.069383
      0.95039      3.78847      1.43403         0.000000     -1.573036     -2.069383
      2.85118      2.28585     13.05773        -0.000000      1.573036      2.069383
      2.85118      3.79203      4.66022        -0.000000      0.660161      0.201039
      0.95039      5.31945     11.90610         0.000000     -0.660161      0.201039
      2.85118      0.75487      2.58566        -0.000000      0.660161     -0.201039
      0.95039      2.28229      9.83154         0.000000     -0.660161     -0.201039
 -----------------------------------------------------------------------------------
    total drift:                                0.000030      0.000003     -0.000020


--------------------------------------------------------------------------------------------------------



  FREE ENERGIE OF THE ION-ELECTRON SYSTEM (eV)
  ---------------------------------------------------
  free  energy   TOTEN  =       -64.54117528 eV

  energy  without entropy=      -64.54117528  energy(sigma->0) =      -64.54117528
 


--------------------------------------------------------------------------------------------------------


    POTLOK:  cpu time      1.0743: real time      1.0773


--------------------------------------------------------------------------------------------------------


 writing wavefunctions
     LOOP+:  cpu time    149.2410: real time    150.6161
    4ORBIT:  cpu time      0.0000: real time      0.0000



 total charge

# of ion       s       p       d       tot
------------------------------------------
    1        0.320   0.348   9.394  10.061
    2        0.320   0.348   9.394  10.061
    3        0.320   0.348   9.394  10.061
    4        0.320   0.348   9.394  10.061
    5        1.287   1.041   0.083   2.412
    6        1.287   1.041   0.083   2.412
    7        1.287   1.041   0.083   2.412
    8        1.287   1.041   0.083   2.412
    9        1.303   2.472   0.000   3.775
   10        1.303   2.472   0.000   3.775
   11        1.303   2.472   0.000   3.775
   12        1.303   2.472   0.000   3.775
   13        1.322   2.458   0.000   3.780
   14        1.322   2.458   0.000   3.780
   15        1.322   2.458   0.000   3.780
   16        1.322   2.458   0.000   3.780
--------------------------------------------------
tot         16.930  25.276  37.908  80.115



 magnetization (x)

# of ion       s       p       d       tot
------------------------------------------
    1        0.000   0.000   0.000   0.000
    2        0.000   0.000   0.000   0.000
    3        0.000   0.000   0.000   0.000
    4        0.000   0.000   0.000   0.000
    5        0.000  -0.000  -0.000  -0.000
    6        0.000  -0.000  -0.000  -0.000
    7        0.000  -0.000  -0.000  -0.000
    8        0.000  -0.000  -0.000  -0.000
    9        0.000   0.000   0.000   0.000
   10        0.000   0.000   0.000   0.000
   11        0.000   0.000   0.000   0.000
   12        0.000   0.000   0.000   0.000
   13        0.000   0.000   0.000   0.000
   14        0.000   0.000   0.000   0.000
   15        0.000   0.000   0.000   0.000
   16        0.000   0.000   0.000   0.000
--------------------------------------------------
tot          0.000   0.000   0.000   0.000
 

 total amount of memory used by VASP MPI-rank0   109593. kBytes
=======================================================================

   base      :      30000. kBytes
   nonl-proj :       1545. kBytes
   fftplans  :       2487. kBytes
   grid      :       4594. kBytes
   one-center:         62. kBytes
   HF        :        129. kBytes
   nonlr-proj:      11595. kBytes
   wavefun   :        543. kBytes
   fock_wrk  :      58638. kBytes
 
  
  
 General timing and accounting informations for this job:
 ========================================================
  
                  Total CPU time used (sec):      170.495
                            User time (sec):      153.152
                          System time (sec):       17.343
                         Elapsed time (sec):      172.995
  
                   Maximum memory used (kb):      516000.
                   Average memory used (kb):          N/A
  
                          Minor page faults:       255773
                          Major page faults:            0
                 Voluntary context switches:         3519
