 vasp.6.4.2 20Jul23 (build Mar 15 2024 16:31:38) complex                        
  
 executed on             LinuxIFC date 2025.03.19  14:51:19
 running  120 mpi-ranks, on    3 nodes
 distrk:  each k-point on  120 cores,    1 groups
 distr:  one band on NCORE=  10 cores,   12 groups


--------------------------------------------------------------------------------------------------------


 INCAR:
   ALGO = Fast
   EDIFF = 1e-05
   ENAUG = 1360
   ENCUT = 680
   GGA = Ps
   ISMEAR = -5
   ISPIN = 2
   LAECHG = True
   LASPH = True
   LCHARG = True
   LELF = False
   LMAXMIX = 4
   LMIXTAU = True
   LORBIT = 11
   LREAL = False
   LVTOT = True
   LWAVE = True
   MAGMOM = 8*0.6
   NCORE = 10
   NELM = 200
   NSW = 0
   PREC = Accurate
   SIGMA = 0.2

 POTCAR:    PAW_PBE Zn 06Sep2000                  
 POTCAR:    PAW_PBE Cu 22Jun2005                  
 POTCAR:    PAW_PBE Sn_d 06Sep2000                
 POTCAR:    PAW_PBE S 06Sep2000                   
 WARNING: For LVTOT=.TRUE., VASP.5.x writes the TOTAL local potential to the
     file LOCPOT. If you want only the Hartree contributions, use LVHAR=.TRUE.
     instead. 

 POTCAR:    PAW_PBE Zn 06Sep2000                  
   VRHFIN =Zn: d10 p2                                                                               
   LEXCH  = PE                                                                                      
   EATOM  =  1748.8345 eV,  128.5357 Ry                                                             
                                                                                                    
   TITEL  = PAW_PBE Zn 06Sep2000                                                                    
   LULTRA =        F    use ultrasoft PP ?                                                          
   IUNSCR =        1    unscreen: 0-lin 1-nonlin 2-no                                               
   RPACOR =    2.000    partial core radius                                                         
   POMASS =   65.390; ZVAL   =   12.000    mass and valenz                                          
   RCORE  =    2.300    outmost cutoff radius                                                       
   RWIGS  =    2.400; RWIGS  =    1.270    wigner-seitz radius (au A)                               
   ENMAX  =  276.723; ENMIN  =  207.542 eV                                                          
   RCLOC  =    1.828    cutoff for local pot                                                        
   LCOR   =        T    correct aug charges                                                         
   LPAW   =        T    paw PP                                                                      
   EAUG   =  575.892                                                                                
   DEXC   =    0.000                                                                                
   RMAX   =    2.347    core radius for proj-oper                                                   
   RAUG   =    1.300    factor for augmentation sphere                                              
   RDEP   =    2.324    radius for radial grids                                                     
   RDEPT  =    1.788    core radius for aug-charge                                                  
                                                                                                    
   Atomic configuration                                                                             
    9 entries                                                                                       
     n  l   j            E        occ.                                                              
     1  0  0.50     -9524.6913   2.0000                                                             
     2  0  0.50     -1158.1882   2.0000                                                             
     2  1  1.50     -1003.8506   6.0000                                                             
     3  0  0.50      -129.2194   2.0000                                                             
     3  1  1.50       -83.3890   6.0000                                                             
     3  2  2.50       -10.1410  10.0000                                                             
     4  0  0.50        -5.9785   2.0000                                                             
     4  1  0.50        -4.0817   0.0000                                                             
     4  3  2.50        -1.3606   0.0000                                                             
   Description                                                                                      
     l       E           TYP  RCUT    TYP  RCUT                                                     
     2    -10.1410010     23  2.300                                                                 
     2    -11.5015836     23  2.300                                                                 
     0     -5.9785163     23  2.300                                                                 
     0      1.1858015     23  2.300                                                                 
     1     -2.7211652     23  2.300                                                                 
     1     13.2444212     23  2.300                                                                 
  local pseudopotential read in
  partial core-charges read in
  partial kinetic energy density read in
  atomic valenz-charges read in
  non local Contribution for L=           2  read in
    real space projection operators read in
  non local Contribution for L=           2  read in
    real space projection operators read in
  non local Contribution for L=           0  read in
    real space projection operators read in
  non local Contribution for L=           0  read in
    real space projection operators read in
  non local Contribution for L=           1  read in
    real space projection operators read in
  non local Contribution for L=           1  read in
    real space projection operators read in
    PAW grid and wavefunctions read in
 
   number of l-projection  operators is LMAX  =           6
   number of lm-projection operators is LMMAX =          18
 
 POTCAR:    PAW_PBE Cu 22Jun2005                  
   VRHFIN =Cu: d10 p1                                                                               
   LEXCH  = PE                                                                                      
   EATOM  =  1390.9808 eV,  102.2342 Ry                                                             
                                                                                                    
   TITEL  = PAW_PBE Cu 22Jun2005                                                                    
   LULTRA =        F    use ultrasoft PP ?                                                          
   IUNSCR =        1    unscreen: 0-lin 1-nonlin 2-no                                               
   RPACOR =    2.000    partial core radius                                                         
   POMASS =   63.546; ZVAL   =   11.000    mass and valenz                                          
   RCORE  =    2.300    outmost cutoff radius                                                       
   RWIGS  =    2.200; RWIGS  =    1.164    wigner-seitz radius (au A)                               
   ENMAX  =  295.446; ENMIN  =  221.585 eV                                                          
   ICORE  =        3    local potential                                                             
   LCOR   =        T    correct aug charges                                                         
   LPAW   =        T    paw PP                                                                      
   EAUG   =  586.980                                                                                
   DEXC   =    0.000                                                                                
   RMAX   =    2.344    core radius for proj-oper                                                   
   RAUG   =    1.300    factor for augmentation sphere                                              
   RDEP   =    2.302    radius for radial grids                                                     
   RDEPT  =    1.771    core radius for aug-charge                                                  
                                                                                                    
   Atomic configuration                                                                             
    9 entries                                                                                       
     n  l   j            E        occ.                                                              
     1  0  0.50     -8850.2468   2.0000                                                             
     2  0  0.50     -1062.3498   2.0000                                                             
     2  1  1.50      -916.8226   6.0000                                                             
     3  0  0.50      -114.6929   2.0000                                                             
     3  1  1.50       -72.1325   6.0000                                                             
     3  2  2.50        -5.0394  10.0000                                                             
     4  0  0.50        -4.6097   1.0000                                                             
     4  1  0.50        -4.0817   0.0000                                                             
     4  3  2.50        -1.3606   0.0000                                                             
   Description                                                                                      
     l       E           TYP  RCUT    TYP  RCUT                                                     
     2     -5.0393973     23  2.200                                                                 
     2     10.8846608     23  2.200                                                                 
     0     -4.6097109     23  2.200                                                                 
     0      8.2520465     23  2.200                                                                 
     1     -2.7211652     23  2.200                                                                 
     1     21.7055443     23  2.200                                                                 
     3      2.7211652     23  2.300                                                                 
  local pseudopotential read in
  partial core-charges read in
  partial kinetic energy density read in
  atomic valenz-charges read in
  non local Contribution for L=           2  read in
    real space projection operators read in
  non local Contribution for L=           2  read in
    real space projection operators read in
  non local Contribution for L=           0  read in
    real space projection operators read in
  non local Contribution for L=           0  read in
    real space projection operators read in
  non local Contribution for L=           1  read in
    real space projection operators read in
  non local Contribution for L=           1  read in
    real space projection operators read in
    PAW grid and wavefunctions read in
 
   number of l-projection  operators is LMAX  =           6
   number of lm-projection operators is LMMAX =          18
 
 POTCAR:    PAW_PBE Sn_d 06Sep2000                
   VRHFIN =Sn: s2p2                                                                                 
   LEXCH  = PE                                                                                      
   EATOM  =  1893.1092 eV,  139.1396 Ry                                                             
                                                                                                    
   TITEL  = PAW_PBE Sn_d 06Sep2000                                                                  
   LULTRA =        F    use ultrasoft PP ?                                                          
   IUNSCR =        1    unscreen: 0-lin 1-nonlin 2-no                                               
   RPACOR =    2.300    partial core radius                                                         
   POMASS =  118.710; ZVAL   =   14.000    mass and valenz                                          
   RCORE  =    2.500    outmost cutoff radius                                                       
   RWIGS  =    2.960; RWIGS  =    1.566    wigner-seitz radius (au A)                               
   ENMAX  =  241.083; ENMIN  =  180.812 eV                                                          
   ICORE  =        3    local potential                                                             
   LCOR   =        T    correct aug charges                                                         
   LPAW   =        T    paw PP                                                                      
   EAUG   =  439.825                                                                                
   DEXC   =    0.000                                                                                
   RMAX   =    2.560    core radius for proj-oper                                                   
   RAUG   =    1.300    factor for augmentation sphere                                              
   RDEP   =    2.659    radius for radial grids                                                     
   RDEPT  =    2.046    core radius for aug-charge                                                  
                                                                                                    
   Atomic configuration                                                                             
   12 entries                                                                                       
     n  l   j            E        occ.                                                              
     1  0  0.50    -29007.2859   2.0000                                                             
     2  0  0.50     -4378.8056   2.0000                                                             
     2  1  1.50     -3930.4293   6.0000                                                             
     3  0  0.50      -845.0264   2.0000                                                             
     3  1  1.50      -698.5725   6.0000                                                             
     3  2  2.50      -473.2839  10.0000                                                             
     4  0  0.50      -133.9036   2.0000                                                             
     4  1  1.50       -89.6752   6.0000                                                             
     4  2  2.50       -25.8375  10.0000                                                             
     5  0  0.50       -10.5484   2.0000                                                             
     5  1  0.50        -3.6940   2.0000                                                             
     4  3  2.50        -2.7416   0.0000                                                             
   Description                                                                                      
     l       E           TYP  RCUT    TYP  RCUT                                                     
     2    -25.8374624     23  2.500                                                                 
     2     -5.4423304     23  2.500                                                                 
     0    -10.5483727     23  2.500                                                                 
     0     13.6058260     23  2.500                                                                 
     1     -3.6939829     23  2.500                                                                 
     1      1.9821976     23  2.500                                                                 
     3     -1.3605826      7  2.500                                                                 
  local pseudopotential read in
  partial core-charges read in
  partial kinetic energy density read in
  atomic valenz-charges read in
  non local Contribution for L=           2  read in
    real space projection operators read in
  non local Contribution for L=           2  read in
    real space projection operators read in
  non local Contribution for L=           0  read in
    real space projection operators read in
  non local Contribution for L=           0  read in
    real space projection operators read in
  non local Contribution for L=           1  read in
    real space projection operators read in
  non local Contribution for L=           1  read in
    real space projection operators read in
    PAW grid and wavefunctions read in
 
   number of l-projection  operators is LMAX  =           6
   number of lm-projection operators is LMMAX =          18
 
 POTCAR:    PAW_PBE S 06Sep2000                   
   VRHFIN =S : s2p4                                                                                 
   LEXCH  = PE                                                                                      
   EATOM  =   276.8230 eV,   20.3459 Ry                                                             
                                                                                                    
   TITEL  = PAW_PBE S 06Sep2000                                                                     
   LULTRA =        F    use ultrasoft PP ?                                                          
   IUNSCR =        1    unscreen: 0-lin 1-nonlin 2-no                                               
   RPACOR =    1.500    partial core radius                                                         
   POMASS =   32.066; ZVAL   =    6.000    mass and valenz                                          
   RCORE  =    1.900    outmost cutoff radius                                                       
   RWIGS  =    2.200; RWIGS  =    1.164    wigner-seitz radius (au A)                               
   ENMAX  =  258.689; ENMIN  =  194.016 eV                                                          
   ICORE  =        2    local potential                                                             
   LCOR   =        T    correct aug charges                                                         
   LPAW   =        T    paw PP                                                                      
   EAUG   =  335.092                                                                                
   DEXC   =    0.000                                                                                
   RMAX   =    1.942    core radius for proj-oper                                                   
   RAUG   =    1.300    factor for augmentation sphere                                              
   RDEP   =    1.954    radius for radial grids                                                     
   RDEPT  =    1.744    core radius for aug-charge                                                  
                                                                                                    
   Atomic configuration                                                                             
    6 entries                                                                                       
     n  l   j            E        occ.                                                              
     1  0  0.50     -2405.8406   2.0000                                                             
     2  0  0.50      -211.7007   2.0000                                                             
     2  1  1.50      -156.4958   6.0000                                                             
     3  0  0.50       -17.2562   2.0000                                                             
     3  1  0.50        -7.0085   4.0000                                                             
     3  2  1.50        -6.8029   0.0000                                                             
   Description                                                                                      
     l       E           TYP  RCUT    TYP  RCUT                                                     
     0    -17.2561641     23  1.900                                                                 
     0    -15.8743224     23  1.900                                                                 
     1     -7.0085400     23  1.900                                                                 
     1     -2.7779785     23  1.900                                                                 
     2     -6.8029130     23  1.900                                                                 
  local pseudopotential read in
  partial core-charges read in
  partial kinetic energy density read in
  atomic valenz-charges read in
  non local Contribution for L=           0  read in
    real space projection operators read in
  non local Contribution for L=           0  read in
    real space projection operators read in
  non local Contribution for L=           1  read in
    real space projection operators read in
  non local Contribution for L=           1  read in
    real space projection operators read in
    PAW grid and wavefunctions read in
 
   number of l-projection  operators is LMAX  =           4
   number of lm-projection operators is LMMAX =           8
 
 -----------------------------------------------------------------------------
|                                                                             |
|               ----> ADVICE to this user running VASP <----                  |
|                                                                             |
|     You enforced a specific xc type in the INCAR file but a different       |
|     type was found in the POTCAR file.                                      |
|     I HOPE YOU KNOW WHAT YOU ARE DOING!                                     |
|                                                                             |
 -----------------------------------------------------------------------------

  PAW_PBE Zn 06Sep2000                  :
 energy of atom  1       EATOM=-1748.8345
 kinetic energy error for atom=    0.0008 (will be added to EATOM!!)
  PAW_PBE Cu 22Jun2005                  :
 energy of atom  2       EATOM=-1390.9808
 kinetic energy error for atom=    0.0018 (will be added to EATOM!!)
  PAW_PBE Sn_d 06Sep2000                :
 energy of atom  3       EATOM=-1893.1092
 kinetic energy error for atom=    0.0008 (will be added to EATOM!!)
  PAW_PBE S 06Sep2000                   :
 energy of atom  4       EATOM= -276.8230
 kinetic energy error for atom=    0.0008 (will be added to EATOM!!)
 
 
 POSCAR: Zn1 Cu2 Sn1 S4
  positions in direct lattice
  No initial velocities read in
 exchange correlation table for  LEXCH =       14
   RHO(1)=    0.500       N(1)  =     2000
   RHO(2)=  100.500       N(2)  =     4000
 


--------------------------------------------------------------------------------------------------------


 ion  position               nearest neighbor table
   1  0.750  0.250  0.500-   6 2.34   8 2.34   7 2.34   5 2.34
   2  0.000  0.000  0.000-   7 2.30   5 2.30   8 2.30   6 2.30
   3  0.250  0.750  0.500-   6 2.30   5 2.30   8 2.30   7 2.30
   4  0.500  0.500  0.000-   5 2.44   6 2.44   8 2.44   7 2.44
   5  0.364  0.371  0.478-   3 2.30   2 2.30   1 2.34   4 2.44
   6  0.894  0.887  0.522-   3 2.30   2 2.30   1 2.34   4 2.44
   7  0.113  0.636  0.007-   3 2.30   2 2.30   1 2.34   4 2.44
   8  0.629  0.106  0.993-   3 2.30   2 2.30   1 2.34   4 2.44
 
  LATTYP: Found a body centered tetragonal cell.
 ALAT       =     5.4102945305
 C/A-ratio  =     2.0003379298
  
  Lattice vectors:
  
 A1 = (   4.9390118450,   0.0000000000,  -4.4184821860)
 A2 = (  -0.9875353717,   4.8392780344,  -4.4184821860)
 A3 = (   0.0000000000,   0.0000000000,   6.6269769000)


Analysis of symmetry for initial positions (statically):
=====================================================================
 Subroutine PRICEL returns:
 Original cell was already a primitive cell.
 

 Routine SETGRP: Setting up the symmetry group for a 
 body centered tetragonal supercell.


 Subroutine GETGRP returns: Found  4 space group operations
 (whereof  4 operations were pure point group operations)
 out of a pool of 16 trial point group operations.


The static configuration has the point symmetry S_4 .


Analysis of symmetry for dynamics (positions and initial velocities):
=====================================================================
 Subroutine PRICEL returns:
 Original cell was already a primitive cell.
 

 Routine SETGRP: Setting up the symmetry group for a 
 body centered tetragonal supercell.


 Subroutine GETGRP returns: Found  4 space group operations
 (whereof  4 operations were pure point group operations)
 out of a pool of 16 trial point group operations.


The dynamic configuration has the point symmetry S_4 .


Analysis of structural, dynamic, and magnetic symmetry:
=====================================================================
 Subroutine PRICEL returns:
 Original cell was already a primitive cell.
 

 Routine SETGRP: Setting up the symmetry group for a 
 body centered tetragonal supercell.


 Subroutine GETGRP returns: Found  4 space group operations
 (whereof  4 operations were pure point group operations)
 out of a pool of 16 trial point group operations.


The overall configuration has the point symmetry S_4 .


 Subroutine INISYM returns: Found  4 space group operations
 (whereof  4 operations are pure point group operations),
 and found     1 'primitive' translations


----------------------------------------------------------------------------------------

                                     Primitive cell                                     

  volume of cell :     158.3930

  direct lattice vectors                    reciprocal lattice vectors
     4.939011845  0.000000000 -4.418482186     0.202469650  0.041317308  0.000000000
    -0.987535372  4.839278034 -4.418482186     0.000000000  0.206642394  0.000000000
     0.000000000  0.000000000  6.626976900     0.134994969  0.165325086  0.150898368

  length of vectors
     6.626976900  6.626976900  6.626976900     0.206642394  0.206642394  0.261393082

  position of ions in fractional coordinates (direct lattice)
     0.750000000  0.250000000  0.500000000
     0.000000000  0.000000000  0.000000000
     0.250000000  0.750000000  0.500000000
     0.500000000  0.500000000  0.000000000
     0.364327140  0.371240320  0.477580560
     0.893659770  0.886747590  0.522419440
     0.113252410  0.635672860  0.006912180
     0.628759680  0.106340230  0.993087820

  ion indices of the primitive-cell ions
   primitive index   ion index
                 1           1
                 2           2
                 3           3
                 4           4
                 5           5
                 6           6
                 7           7
                 8           8

----------------------------------------------------------------------------------------

 
 
 KPOINTS: pymatgen with grid density = 802 / numbe

Automatic generation of k-mesh.
 Grid dimensions read from file:
 generate k-points for:    4    4    4

 Generating k-lattice:

  Cartesian coordinates                     Fractional coordinates (reciprocal lattice)
     0.050617413  0.010329327  0.000000000     0.250000000 -0.000000000  0.000000000
     0.000000000  0.051660599  0.000000000     0.000000000  0.250000000  0.000000000
     0.033748742  0.041331272  0.037724592     0.000000000  0.000000000  0.250000000

  Length of vectors
     0.051660599  0.051660599  0.065348271

  Shift w.r.t. Gamma in fractional coordinates (k-lattice)
     0.000000000  0.000000000  0.000000000

 TETIRR: Found    117 inequivalent tetrahedra from      384
 
 Subroutine IBZKPT returns following result:
 ===========================================
 
 Found     14 irreducible k-points:
 
 Following reciprocal coordinates:
            Coordinates               Weight
  0.000000  0.000000  0.000000      1.000000
  0.250000  0.000000  0.000000      8.000000
  0.500000  0.000000  0.000000      4.000000
  0.250000  0.250000  0.000000      8.000000
  0.500000  0.250000  0.000000      8.000000
  0.500000 -0.250000 -0.250000      8.000000
 -0.250000  0.250000  0.000000      4.000000
  0.500000  0.500000  0.000000      2.000000
  0.250000  0.250000  0.250000      2.000000
 -0.250000  0.250000  0.250000      4.000000
  0.500000  0.500000  0.250000      4.000000
 -0.250000  0.500000  0.250000      8.000000
 -0.250000 -0.250000  0.250000      2.000000
  0.500000  0.500000  0.500000      1.000000
 
 Following cartesian coordinates:
            Coordinates               Weight
  0.000000  0.000000  0.000000      1.000000
  0.050617  0.010329  0.000000      8.000000
  0.101235  0.020659  0.000000      4.000000
  0.050617  0.061990  0.000000      8.000000
  0.101235  0.072319  0.000000      8.000000
  0.067486 -0.072333 -0.037725      8.000000
 -0.050617  0.041331  0.000000      4.000000
  0.101235  0.123980  0.000000      2.000000
  0.084366  0.103321  0.037725      2.000000
 -0.016869  0.082663  0.037725      4.000000
  0.134984  0.165311  0.037725      4.000000
 -0.016869  0.134323  0.037725      8.000000
 -0.016869 -0.020659  0.037725      2.000000
  0.168732  0.206642  0.075449      1.000000
 


--------------------------------------------------------------------------------------------------------




 Dimension of arrays:
   k-points           NKPTS =     14   k-points in BZ     NKDIM =     14   number of bands    NBANDS=     48
   number of dos      NEDOS =    301   number of ions     NIONS =      8
   non local maximal  LDIM  =      6   non local SUM 2l+1 LMDIM =     18
   total plane-waves  NPLWV = 175616
   max r-space proj   IRMAX =      1   max aug-charges    IRDMAX=  49708
   dimension x,y,z NGX =    56 NGY =   56 NGZ =   56
   dimension x,y,z NGXF=   112 NGYF=  112 NGZF=  112
   support grid    NGXF=   112 NGYF=  112 NGZF=  112
   ions per type =               1   2   1   4
   NGX,Y,Z   is equivalent  to a cutoff of  14.05, 14.05, 14.05 a.u.
   NGXF,Y,Z  is equivalent  to a cutoff of  28.10, 28.10, 28.10 a.u.

 SYSTEM =  unknown system                          
 POSCAR =  Zn1 Cu2 Sn1 S4                          

 Startparameter for this run:
   NWRITE =      2    write-flag & timer
   PREC   = accura    normal or accurate (medium, high low for compatibility)
   ISTART =      0    job   : 0-new  1-cont  2-samecut
   ICHARG =      2    charge: 1-file 2-atom 10-const
   ISPIN  =      2    spin polarized calculation?
   LNONCOLLINEAR =      F non collinear calculations
   LSORBIT =      F    spin-orbit coupling
   INIWAV =      1    electr: 0-lowe 1-rand  2-diag
   LASPH  =      T    aspherical Exc in radial PAW
 Electronic Relaxation 1
   ENCUT  =  680.0 eV  49.98 Ry    7.07 a.u.  14.09 14.09 14.09*2*pi/ulx,y,z
   ENINI  =  680.0     initial cutoff
   ENAUG  = 1360.0 eV  augmentation charge cutoff
   NELM   =    200;   NELMIN=  2; NELMDL= -5     # of ELM steps 
   EDIFF  = 0.1E-04   stopping-criterion for ELM
   LREAL  =      F    real-space projection
   NLSPLINE    = F    spline interpolate recip. space projectors
   LCOMPAT=      F    compatible to vasp.4.4
   GGA_COMPAT  = T    GGA compatible to vasp.4.4-vasp.4.6
   LMAXPAW     = -100 max onsite density
   LMAXMIX     =    4 max onsite mixed and CHGCAR
   VOSKOWN=      0    Vosko Wilk Nusair interpolation
   ROPT   =    0.00000   0.00000   0.00000   0.00000
 Ionic relaxation
   EDIFFG = 0.1E-03   stopping-criterion for IOM
   NSW    =      0    number of steps for IOM
   NBLOCK =      1;   KBLOCK =      1    inner block; outer block 
   IBRION =     -1    ionic relax: 0-MD 1-quasi-New 2-CG
   NFREE  =      0    steps in history (QN), initial steepest desc. (CG)
   ISIF   =      2    stress and relaxation
   IWAVPR =     10    prediction:  0-non 1-charg 2-wave 3-comb
   ISYM   =      2    0-nonsym 1-usesym 2-fastsym
   LCORR  =      T    Harris-Foulkes like correction to forces

   POTIM  = 0.5000    time-step for ionic-motion
   TEIN   =    0.0    initial temperature
   TEBEG  =    0.0;   TEEND  =   0.0 temperature during run
   SMASS  =  -3.00    Nose mass-parameter (am)
   estimated Nose-frequenzy (Omega)   =  0.10E-29 period in steps = 0.13E+47 mass=  -0.100E-26a.u.
   SCALEE = 1.0000    scale energy and forces
   NPACO  =    256;   APACO  = 10.0  distance and # of slots for P.C.
   PSTRESS=    0.0 pullay stress

  Mass of Ions in am
   POMASS =  65.39 63.55118.71 32.07
  Ionic Valenz
   ZVAL   =  12.00 11.00 14.00  6.00
  Atomic Wigner-Seitz radii
   RWIGS  =  -1.00 -1.00 -1.00 -1.00
  virtual crystal weights 
   VCA    =   1.00  1.00  1.00  1.00
   NELECT =      72.0000    total number of electrons
   NUPDOWN=      -1.0000    fix difference up-down

 DOS related values:
   EMIN   =  10.00;   EMAX   =-10.00  energy-range for DOS
   EFERMI =   0.00;   METHOD = LEGACY      
   ISMEAR =    -5;   SIGMA  =   0.20  broadening in eV -4-tet -1-fermi 0-gaus

 Electronic relaxation 2 (details)
   IALGO  =     68    algorithm
   LDIAG  =      T    sub-space diagonalisation (order eigenvalues)
   LSUBROT=      F    optimize rotation matrix (better conditioning)
   TURBO    =      0    0=normal 1=particle mesh
   IRESTART =      0    0=no restart 2=restart with 2 vectors
   NREBOOT  =      0    no. of reboots
   NMIN     =      0    reboot dimension
   EREF     =   0.00    reference energy to select bands
   IMIX   =      4    mixing-type and parameters
     AMIX     =   0.40;   BMIX     =  1.00
     AMIX_MAG =   1.60;   BMIX_MAG =  1.00
     AMIN     =   0.10
     WC   =   100.;   INIMIX=   1;  MIXPRE=   1;  MAXMIX= -45

 Intra band minimization:
   WEIMIN = 0.0000     energy-eigenvalue tresh-hold
   EBREAK =  0.52E-07  absolut break condition
   DEPER  =   0.30     relativ break condition  

   TIME   =   0.40     timestep for ELM

  volume/ion in A,a.u.               =      19.80       133.61
  Fermi-wavevector in a.u.,A,eV,Ry     =   1.258752  2.378697 21.557853  1.584457
  Thomas-Fermi vector in A             =   2.392346
 
 Write flags
   LWAVE        =      T    write WAVECAR
   LDOWNSAMPLE  =      F    k-point downsampling of WAVECAR
   LCHARG       =      T    write CHGCAR
   LVTOT        =      T    write LOCPOT, total local potential
   LVHAR        =      F    write LOCPOT, Hartree potential only
   LELF         =      F    write electronic localiz. function (ELF)
   LORBIT       =     11    0 simple, 1 ext, 2 COOP (PROOUT), +10 PAW based schemes


 Dipole corrections
   LMONO  =      F    monopole corrections only (constant potential shift)
   LDIPOL =      F    correct potential (dipole corrections)
   IDIPOL =      0    1-x, 2-y, 3-z, 4-all directions 
   EPSILON=  1.0000000 bulk dielectric constant

 Exchange correlation treatment:
   GGA     =    PS    GGA type
   LEXCH   =    14    internal setting for exchange type
   LIBXC   =     F    Libxc                    
   VOSKOWN =     0    Vosko Wilk Nusair interpolation
   LHFCALC =     F    Hartree Fock is set to
   LHFONE  =     F    Hartree Fock one center treatment
   AEXX    =    0.0000 exact exchange contribution

 Linear response parameters
   LEPSILON=     F    determine dielectric tensor
   LRPA    =     F    only Hartree local field effects (RPA)
   LNABLA  =     F    use nabla operator in PAW spheres
   LVEL    =     F    velocity operator in full k-point grid
   CSHIFT  =0.1000    complex shift for real part using Kramers Kronig
   OMEGAMAX=  -1.0    maximum frequency
   DEG_THRESHOLD= 0.2000000E-02 threshold for treating states as degnerate
   RTIME   =   -0.100 relaxation time in fs
  (WPLASMAI=    0.000 imaginary part of plasma frequency in eV, 0.658/RTIME)
   DFIELD  = 0.0000000 0.0000000 0.0000000 field for delta impulse in time
 
  Optional k-point grid parameters
   LKPOINTS_OPT  =     F    use optional k-point grid
   KPOINTS_OPT_MODE=     1    mode for optional k-point grid
 
 Orbital magnetization related:
   ORBITALMAG=     F  switch on orbital magnetization
   LCHIMAG   =     F  perturbation theory with respect to B field
   DQ        =  0.001000  dq finite difference perturbation B field
   LLRAUG    =     F  two centre corrections for induced B field
   LBONE     =     F  B-component reconstruction in AE one-centre
   LVGVCALC  =     T  calculate vGv susceptibility
   LVGVAPPL  =     F  apply vGv susceptibility instead of pGv for G=0

 Random number generation:
   RANDOM_GENERATOR = DEFAULT
   PCG_SEED         = not used


--------------------------------------------------------------------------------------------------------


 Static calculation
 charge density and potential will be updated during run
 spin polarized calculation
 RMM-DIIS sequential band-by-band and
  variant of blocked Davidson during initial phase
 perform sub-space diagonalisation
    before iterative eigenvector-optimisation
 modified Broyden-mixing scheme, WC =      100.0
 initial mixing is a Kerker type mixing with AMIX =  0.4000 and BMIX =      1.0000
 Hartree-type preconditioning will be used
 using additional bands           12
 reciprocal scheme for non local part
 use partial core corrections
 calculate Harris-corrections to forces 
   (improved forces if not selfconsistent)
 use gradient corrections 
 use of overlap-Matrix (Vanderbilt PP)
 Fermi weights with tetrahedron method with Bloechl corrections


--------------------------------------------------------------------------------------------------------


  energy-cutoff  :      680.00
  volume of cell :      158.39
      direct lattice vectors                 reciprocal lattice vectors
     4.939011845  0.000000000 -4.418482186     0.202469650  0.041317308  0.000000000
    -0.987535372  4.839278034 -4.418482186     0.000000000  0.206642394  0.000000000
     0.000000000  0.000000000  6.626976900     0.134994969  0.165325086  0.150898368

  length of vectors
     6.626976900  6.626976900  6.626976900     0.206642394  0.206642394  0.261393082


 
 k-points in units of 2pi/SCALE and weight: pymatgen with grid density = 802 / numbe
   0.00000000  0.00000000  0.00000000       0.016
   0.05061741  0.01032933  0.00000000       0.125
   0.10123483  0.02065865  0.00000000       0.062
   0.05061741  0.06198993  0.00000000       0.125
   0.10123483  0.07231925  0.00000000       0.125
   0.06748608 -0.07233322 -0.03772459       0.125
  -0.05061741  0.04133127  0.00000000       0.062
   0.10123483  0.12397985  0.00000000       0.031
   0.08436615  0.10332120  0.03772459       0.031
  -0.01686867  0.08266254  0.03772459       0.062
   0.13498357  0.16531112  0.03772459       0.062
  -0.01686867  0.13432314  0.03772459       0.125
  -0.01686867 -0.02065865  0.03772459       0.031
   0.16873231  0.20664239  0.07544918       0.016
 
 k-points in reciprocal lattice and weights: pymatgen with grid density = 802 / numbe
   0.00000000  0.00000000  0.00000000       0.016
   0.25000000  0.00000000  0.00000000       0.125
   0.50000000  0.00000000  0.00000000       0.062
   0.25000000  0.25000000  0.00000000       0.125
   0.50000000  0.25000000  0.00000000       0.125
   0.50000000 -0.25000000 -0.25000000       0.125
  -0.25000000  0.25000000  0.00000000       0.062
   0.50000000  0.50000000  0.00000000       0.031
   0.25000000  0.25000000  0.25000000       0.031
  -0.25000000  0.25000000  0.25000000       0.062
   0.50000000  0.50000000  0.25000000       0.062
  -0.25000000  0.50000000  0.25000000       0.125
  -0.25000000 -0.25000000  0.25000000       0.031
   0.50000000  0.50000000  0.50000000       0.016
 
 position of ions in fractional coordinates (direct lattice) 
   0.75000000  0.25000000  0.50000000
   0.00000000  0.00000000  0.00000000
   0.25000000  0.75000000  0.50000000
   0.50000000  0.50000000  0.00000000
   0.36432714  0.37124032  0.47758056
   0.89365977  0.88674759  0.52241944
   0.11325241  0.63567286  0.00691218
   0.62875968  0.10634023  0.99308782
 
 position of ions in cartesian coordinates  (Angst):
   3.45737504  1.20981951 -1.10499374
   0.00000000  0.00000000  0.00000000
   0.49410143  3.62945853 -1.10499374
   1.97573824  2.41963902 -4.41848219
   1.43280311  1.79653513 -0.08517638
   3.53810158  4.29121813 -4.40463664
  -0.06839444  3.07619771 -3.26330611
   3.00043677  0.51460994  3.33314419
 


--------------------------------------------------------------------------------------------------------


 k-point   1 :   0.0000 0.0000 0.0000  plane waves:    6435
 k-point   2 :   0.2500 0.0000 0.0000  plane waves:    6376
 k-point   3 :   0.5000 0.0000 0.0000  plane waves:    6380
 k-point   4 :   0.2500 0.2500 0.0000  plane waves:    6388
 k-point   5 :   0.5000 0.2500 0.0000  plane waves:    6371
 k-point   6 :   0.5000-0.2500-0.2500  plane waves:    6371
 k-point   7 :  -0.2500 0.2500 0.0000  plane waves:    6368
 k-point   8 :   0.5000 0.5000 0.0000  plane waves:    6288
 k-point   9 :   0.2500 0.2500 0.2500  plane waves:    6360
 k-point  10 :  -0.2500 0.2500 0.2500  plane waves:    6368
 k-point  11 :   0.5000 0.5000 0.2500  plane waves:    6386
 k-point  12 :  -0.2500 0.5000 0.2500  plane waves:    6399
 k-point  13 :  -0.2500-0.2500 0.2500  plane waves:    6383
 k-point  14 :   0.5000 0.5000 0.5000  plane waves:    6400

 maximum and minimum number of plane-waves per node :       684      600

 maximum number of plane-waves:      6435
 maximum index in each direction: 
   IXMAX=   14   IYMAX=   14   IZMAX=   14
   IXMIN=  -14   IYMIN=  -14   IZMIN=  -14


 parallel 3D FFT for wavefunctions:
    minimum data exchange during FFTs selected (reduces bandwidth)
 parallel 3D FFT for charge:
    minimum data exchange during FFTs selected (reduces bandwidth)


 total amount of memory used by VASP MPI-rank0    40293. kBytes
=======================================================================

   base      :      30000. kBytes
   nonl-proj :       5308. kBytes
   fftplans  :       1012. kBytes
   grid      :       2738. kBytes
   one-center:         31. kBytes
   wavefun   :       1204. kBytes
 
     INWAV:  cpu time      0.0000: real time      0.0001
 Broyden mixing: mesh for mixing (old mesh)
   NGX = 29   NGY = 29   NGZ = 29
  (NGX  =112   NGY  =112   NGZ  =112)
  gives a total of  24389 points

 initial charge density was supplied:
 charge density of overlapping atoms calculated
 number of electron      72.0000000 magnetization       4.8000000
 keeping initial charge density in first step


--------------------------------------------------------------------------------------------------------


 Maximum index for augmentation-charges         1075 (set IRDMAX)


--------------------------------------------------------------------------------------------------------


 First call to EWALD:  gamma=   0.328
 Maximum number of real-space cells 3x 3x 4
 Maximum number of reciprocal cells 3x 3x 3

    FEWALD:  cpu time      0.0034: real time      0.0034


--------------------------------------- Ionic step        1  -------------------------------------------




--------------------------------------- Iteration      1(   1)  ---------------------------------------


    POTLOK:  cpu time      0.0364: real time      0.0388
    SETDIJ:  cpu time      0.4069: real time      0.4092
     EDDAV:  cpu time      0.5999: real time      0.6058
 BZINTS: Fermi energy:   20.909338;   72.000000 electrons
         Band energy: 0.593999E+03;  BLOECHL correction:   -0.127010
       DOS:  cpu time      0.0181: real time      0.0186
    --------------------------------------------
      LOOP:  cpu time      1.0614: real time      1.0724

 eigenvalue-minimisations  :  2688
 total energy-change (2. order) : 0.7040254E+03  (-0.3790956E+04)
 number of electron      72.0000000 magnetization       4.8000000
 augmentation part       72.0000000 magnetization       4.8000000

 Free energy of the ion-electron system (eV)
  ---------------------------------------------------
  alpha Z        PSCENC =       202.50320330
  Ewald energy   TEWEN  =     -5034.42253749
  -Hartree energ DENC   =     -2428.65725175
  -exchange      EXHF   =         0.00000000
  -V(xc)+E(xc)   XCENC  =       258.99528253
  PAW double counting   =      6346.23056612    -6760.05243346
  entropy T*S    EENTRO =         0.00000000
  eigenvalues    EBANDS =       593.99914715
  atomic energy  EATOM  =      7525.42945373
  Solvation  Ediel_sol  =         0.00000000
  ---------------------------------------------------
  free energy    TOTEN  =       704.02543014 eV

  energy without entropy =      704.02543014  energy(sigma->0) =      704.02543014


--------------------------------------------------------------------------------------------------------




--------------------------------------- Iteration      1(   2)  ---------------------------------------


     EDDAV:  cpu time      0.5171: real time      0.5215
 BZINTS: Fermi energy:    8.624740;   72.000000 electrons
         Band energy:-0.448764E+02;  BLOECHL correction:   -0.006459
       DOS:  cpu time      0.0146: real time      0.0146
    --------------------------------------------
      LOOP:  cpu time      0.5317: real time      0.5361

 eigenvalue-minimisations  :  2688
 total energy-change (2. order) :-0.6388756E+03  (-0.6076585E+03)
 number of electron      72.0000000 magnetization       4.8000000
 augmentation part       72.0000000 magnetization       4.8000000

 Free energy of the ion-electron system (eV)
  ---------------------------------------------------
  alpha Z        PSCENC =       202.50320330
  Ewald energy   TEWEN  =     -5034.42253749
  -Hartree energ DENC   =     -2428.65725175
  -exchange      EXHF   =         0.00000000
  -V(xc)+E(xc)   XCENC  =       258.99528253
  PAW double counting   =      6346.23056612    -6760.05243346
  entropy T*S    EENTRO =         0.00000000
  eigenvalues    EBANDS =       -44.87644811
  atomic energy  EATOM  =      7525.42945373
  Solvation  Ediel_sol  =         0.00000000
  ---------------------------------------------------
  free energy    TOTEN  =        65.14983487 eV

  energy without entropy =       65.14983487  energy(sigma->0) =       65.14983487


--------------------------------------------------------------------------------------------------------




--------------------------------------- Iteration      1(   3)  ---------------------------------------


     EDDAV:  cpu time      0.6025: real time      0.6184
 BZINTS: Fermi energy:    5.858237;   72.000000 electrons
         Band energy:-0.141783E+03;  BLOECHL correction:   -0.016102
       DOS:  cpu time      0.0151: real time      0.0151
    --------------------------------------------
      LOOP:  cpu time      0.6176: real time      0.6335

 eigenvalue-minimisations  :  3396
 total energy-change (2. order) :-0.9690687E+02  (-0.9355730E+02)
 number of electron      72.0000000 magnetization       4.8000000
 augmentation part       72.0000000 magnetization       4.8000000

 Free energy of the ion-electron system (eV)
  ---------------------------------------------------
  alpha Z        PSCENC =       202.50320330
  Ewald energy   TEWEN  =     -5034.42253749
  -Hartree energ DENC   =     -2428.65725175
  -exchange      EXHF   =         0.00000000
  -V(xc)+E(xc)   XCENC  =       258.99528253
  PAW double counting   =      6346.23056612    -6760.05243346
  entropy T*S    EENTRO =         0.00000000
  eigenvalues    EBANDS =      -141.78332237
  atomic energy  EATOM  =      7525.42945373
  Solvation  Ediel_sol  =         0.00000000
  ---------------------------------------------------
  free energy    TOTEN  =       -31.75703939 eV

  energy without entropy =      -31.75703939  energy(sigma->0) =      -31.75703939


--------------------------------------------------------------------------------------------------------




--------------------------------------- Iteration      1(   4)  ---------------------------------------


     EDDAV:  cpu time      0.5682: real time      0.5848
 BZINTS: Fermi energy:    5.715014;   72.000000 electrons
         Band energy:-0.147605E+03;  BLOECHL correction:   -0.019527
       DOS:  cpu time      0.0152: real time      0.0152
    --------------------------------------------
      LOOP:  cpu time      0.5834: real time      0.6000

 eigenvalue-minimisations  :  3228
 total energy-change (2. order) :-0.5821484E+01  (-0.5772387E+01)
 number of electron      72.0000000 magnetization       4.8000000
 augmentation part       72.0000000 magnetization       4.8000000

 Free energy of the ion-electron system (eV)
  ---------------------------------------------------
  alpha Z        PSCENC =       202.50320330
  Ewald energy   TEWEN  =     -5034.42253749
  -Hartree energ DENC   =     -2428.65725175
  -exchange      EXHF   =         0.00000000
  -V(xc)+E(xc)   XCENC  =       258.99528253
  PAW double counting   =      6346.23056612    -6760.05243346
  entropy T*S    EENTRO =         0.00000000
  eigenvalues    EBANDS =      -147.60480653
  atomic energy  EATOM  =      7525.42945373
  Solvation  Ediel_sol  =         0.00000000
  ---------------------------------------------------
  free energy    TOTEN  =       -37.57852355 eV

  energy without entropy =      -37.57852355  energy(sigma->0) =      -37.57852355


--------------------------------------------------------------------------------------------------------




--------------------------------------- Iteration      1(   5)  ---------------------------------------


     EDDAV:  cpu time      0.6753: real time      0.6925
 BZINTS: Fermi energy:    5.709971;   72.000000 electrons
         Band energy:-0.147968E+03;  BLOECHL correction:   -0.019096
       DOS:  cpu time      0.0142: real time      0.0143
    CHARGE:  cpu time      0.0542: real time      0.0544
    MIXING:  cpu time      0.0056: real time      0.0059
    --------------------------------------------
      LOOP:  cpu time      0.7494: real time      0.7671

 eigenvalue-minimisations  :  4140
 total energy-change (2. order) :-0.3628275E+00  (-0.3629982E+00)
 number of electron      71.9999992 magnetization       0.6139548
 augmentation part       24.7245628 magnetization       0.5551284

 Broyden mixing:
  rms(total) = 0.20124E+01    rms(broyden)= 0.20124E+01
  rms(prec ) = 0.29043E+01
  weight for this iteration     100.00

 Free energy of the ion-electron system (eV)
  ---------------------------------------------------
  alpha Z        PSCENC =       202.50320330
  Ewald energy   TEWEN  =     -5034.42253749
  -Hartree energ DENC   =     -2428.65725175
  -exchange      EXHF   =         0.00000000
  -V(xc)+E(xc)   XCENC  =       258.99528253
  PAW double counting   =      6346.23056612    -6760.05243346
  entropy T*S    EENTRO =         0.00000000
  eigenvalues    EBANDS =      -147.96763406
  atomic energy  EATOM  =      7525.42945373
  Solvation  Ediel_sol  =         0.00000000
  ---------------------------------------------------
  free energy    TOTEN  =       -37.94135108 eV

  energy without entropy =      -37.94135108  energy(sigma->0) =      -37.94135108


--------------------------------------------------------------------------------------------------------




--------------------------------------- Iteration      1(   6)  ---------------------------------------


    POTLOK:  cpu time      0.0211: real time      0.0358
    SETDIJ:  cpu time      0.3873: real time      0.3884
    EDDIAG:  cpu time      0.1757: real time      0.1765
  RMM-DIIS:  cpu time      0.2490: real time      0.2497
    ORTHCH:  cpu time      0.0201: real time      0.0202
 BZINTS: Fermi energy:    3.756283;   72.000000 electrons
         Band energy:-0.246301E+03;  BLOECHL correction:    0.000000
       DOS:  cpu time      0.0065: real time      0.0065
    CHARGE:  cpu time      0.0475: real time      0.0477
    MIXING:  cpu time      0.0016: real time      0.0016
    --------------------------------------------
      LOOP:  cpu time      0.9089: real time      0.9264

 eigenvalue-minimisations  :  3323
 total energy-change (2. order) :-0.7273974E+00  (-0.3944023E+01)
 number of electron      71.9999991 magnetization       0.2658795
 augmentation part       27.4023107 magnetization       0.2308171

 Broyden mixing:
  rms(total) = 0.13075E+01    rms(broyden)= 0.13075E+01
  rms(prec ) = 0.20717E+01
  weight for this iteration     100.00

 eigenvalues of (default mixing * dielectric matrix)
  average eigenvalue GAMMA=   0.7316
  0.7316

 Free energy of the ion-electron system (eV)
  ---------------------------------------------------
  alpha Z        PSCENC =       202.50320330
  Ewald energy   TEWEN  =     -5034.42253749
  -Hartree energ DENC   =     -2346.14204952
  -exchange      EXHF   =         0.00000000
  -V(xc)+E(xc)   XCENC  =       255.90725010
  PAW double counting   =      6991.77249872    -7387.41589693
  entropy T*S    EENTRO =         0.00000000
  eigenvalues    EBANDS =      -246.30067040
  atomic energy  EATOM  =      7525.42945373
  Solvation  Ediel_sol  =         0.00000000
  ---------------------------------------------------
  free energy    TOTEN  =       -38.66874849 eV

  energy without entropy =      -38.66874849  energy(sigma->0) =      -38.66874849


--------------------------------------------------------------------------------------------------------




--------------------------------------- Iteration      1(   7)  ---------------------------------------


    POTLOK:  cpu time      0.0222: real time      0.0357
    SETDIJ:  cpu time      0.3839: real time      0.3849
    EDDIAG:  cpu time      0.1902: real time      0.1908
  RMM-DIIS:  cpu time      0.2440: real time      0.2446
    ORTHCH:  cpu time      0.0197: real time      0.0198
 BZINTS: Fermi energy:    4.673569;   72.000000 electrons
         Band energy:-0.194825E+03;  BLOECHL correction:    0.000000
       DOS:  cpu time      0.0066: real time      0.0070
    CHARGE:  cpu time      0.0484: real time      0.0485
    MIXING:  cpu time      0.0006: real time      0.0006
    --------------------------------------------
      LOOP:  cpu time      0.9157: real time      0.9318

 eigenvalue-minimisations  :  3033
 total energy-change (2. order) : 0.2894576E+01  (-0.1297328E+01)
 number of electron      71.9999992 magnetization      -0.1485835
 augmentation part       26.3262909 magnetization      -0.1625894

 Broyden mixing:
  rms(total) = 0.68024E+00    rms(broyden)= 0.68024E+00
  rms(prec ) = 0.74980E+00
  weight for this iteration     100.00

 eigenvalues of (default mixing * dielectric matrix)
  average eigenvalue GAMMA=   1.0925
  1.5683  0.6166

 Free energy of the ion-electron system (eV)
  ---------------------------------------------------
  alpha Z        PSCENC =       202.50320330
  Ewald energy   TEWEN  =     -5034.42253749
  -Hartree energ DENC   =     -2381.07567759
  -exchange      EXHF   =         0.00000000
  -V(xc)+E(xc)   XCENC  =       257.59542848
  PAW double counting   =      7358.45173630    -7769.43051308
  entropy T*S    EENTRO =         0.00000000
  eigenvalues    EBANDS =      -194.82526636
  atomic energy  EATOM  =      7525.42945373
  Solvation  Ediel_sol  =         0.00000000
  ---------------------------------------------------
  free energy    TOTEN  =       -35.77417271 eV

  energy without entropy =      -35.77417271  energy(sigma->0) =      -35.77417271


--------------------------------------------------------------------------------------------------------




--------------------------------------- Iteration      1(   8)  ---------------------------------------


    POTLOK:  cpu time      0.0252: real time      0.0359
    SETDIJ:  cpu time      0.3841: real time      0.3850
    EDDIAG:  cpu time      0.1708: real time      0.1714
  RMM-DIIS:  cpu time      0.2843: real time      0.2849
    ORTHCH:  cpu time      0.0198: real time      0.0198
 BZINTS: Fermi energy:    5.021739;   72.000000 electrons
         Band energy:-0.184160E+03;  BLOECHL correction:    0.000000
       DOS:  cpu time      0.0063: real time      0.0063
    CHARGE:  cpu time      0.0486: real time      0.0487
    MIXING:  cpu time      0.0006: real time      0.0006
    --------------------------------------------
      LOOP:  cpu time      0.9395: real time      0.9526

 eigenvalue-minimisations  :  3725
 total energy-change (2. order) :-0.3095327E-01  (-0.1378678E+00)
 number of electron      71.9999992 magnetization      -0.0092519
 augmentation part       26.1379916 magnetization       0.0075817

 Broyden mixing:
  rms(total) = 0.29954E+00    rms(broyden)= 0.29954E+00
  rms(prec ) = 0.36919E+00
  weight for this iteration     100.00

 eigenvalues of (default mixing * dielectric matrix)
  average eigenvalue GAMMA=   1.3281
  0.6598  0.9144  2.4100

 Free energy of the ion-electron system (eV)
  ---------------------------------------------------
  alpha Z        PSCENC =       202.50320330
  Ewald energy   TEWEN  =     -5034.42253749
  -Hartree energ DENC   =     -2385.03320762
  -exchange      EXHF   =         0.00000000
  -V(xc)+E(xc)   XCENC  =       257.96687943
  PAW double counting   =      8124.13030499    -8542.21924570
  entropy T*S    EENTRO =         0.00000000
  eigenvalues    EBANDS =      -184.15997662
  atomic energy  EATOM  =      7525.42945373
  Solvation  Ediel_sol  =         0.00000000
  ---------------------------------------------------
  free energy    TOTEN  =       -35.80512598 eV

  energy without entropy =      -35.80512598  energy(sigma->0) =      -35.80512598


--------------------------------------------------------------------------------------------------------




--------------------------------------- Iteration      1(   9)  ---------------------------------------


    POTLOK:  cpu time      0.0205: real time      0.0359
    SETDIJ:  cpu time      0.3836: real time      0.3846
    EDDIAG:  cpu time      0.1710: real time      0.1716
  RMM-DIIS:  cpu time      0.3095: real time      0.3102
    ORTHCH:  cpu time      0.0196: real time      0.0196
 BZINTS: Fermi energy:    4.926823;   72.000000 electrons
         Band energy:-0.189424E+03;  BLOECHL correction:    0.000000
       DOS:  cpu time      0.0066: real time      0.0067
    CHARGE:  cpu time      0.0475: real time      0.0476
    MIXING:  cpu time      0.0005: real time      0.0005
    --------------------------------------------
      LOOP:  cpu time      0.9589: real time      0.9767

 eigenvalue-minimisations  :  4066
 total energy-change (2. order) : 0.1140261E-01  (-0.3946391E-01)
 number of electron      71.9999992 magnetization       0.0212528
 augmentation part       26.3343274 magnetization       0.0255243

 Broyden mixing:
  rms(total) = 0.86202E-01    rms(broyden)= 0.86201E-01
  rms(prec ) = 0.13982E+00
  weight for this iteration     100.00

 eigenvalues of (default mixing * dielectric matrix)
  average eigenvalue GAMMA=   1.1961
  2.4291  0.9573  0.6991  0.6991

 Free energy of the ion-electron system (eV)
  ---------------------------------------------------
  alpha Z        PSCENC =       202.50320330
  Ewald energy   TEWEN  =     -5034.42253749
  -Hartree energ DENC   =     -2379.05276936
  -exchange      EXHF   =         0.00000000
  -V(xc)+E(xc)   XCENC  =       257.68606684
  PAW double counting   =      8495.18503193    -8913.69823200
  entropy T*S    EENTRO =         0.00000000
  eigenvalues    EBANDS =      -189.42394032
  atomic energy  EATOM  =      7525.42945373
  Solvation  Ediel_sol  =         0.00000000
  ---------------------------------------------------
  free energy    TOTEN  =       -35.79372337 eV

  energy without entropy =      -35.79372337  energy(sigma->0) =      -35.79372337


--------------------------------------------------------------------------------------------------------




--------------------------------------- Iteration      1(  10)  ---------------------------------------


    POTLOK:  cpu time      0.0219: real time      0.0367
    SETDIJ:  cpu time      0.3840: real time      0.3849
    EDDIAG:  cpu time      0.1694: real time      0.1701
  RMM-DIIS:  cpu time      0.3321: real time      0.3329
    ORTHCH:  cpu time      0.0192: real time      0.0192
 BZINTS: Fermi energy:    4.933935;   72.000000 electrons
         Band energy:-0.187406E+03;  BLOECHL correction:    0.000000
       DOS:  cpu time      0.0067: real time      0.0067
    CHARGE:  cpu time      0.0476: real time      0.0477
    MIXING:  cpu time      0.0006: real time      0.0006
    --------------------------------------------
      LOOP:  cpu time      0.9815: real time      0.9988

 eigenvalue-minimisations  :  4514
 total energy-change (2. order) :-0.5107798E-02  (-0.1662713E-01)
 number of electron      71.9999992 magnetization       0.0154703
 augmentation part       26.2726364 magnetization       0.0150568

 Broyden mixing:
  rms(total) = 0.55605E-01    rms(broyden)= 0.55605E-01
  rms(prec ) = 0.67738E-01
  weight for this iteration     100.00

 eigenvalues of (default mixing * dielectric matrix)
  average eigenvalue GAMMA=   1.1453
  2.0247  1.4883  0.8776  0.6680  0.6680

 Free energy of the ion-electron system (eV)
  ---------------------------------------------------
  alpha Z        PSCENC =       202.50320330
  Ewald energy   TEWEN  =     -5034.42253749
  -Hartree energ DENC   =     -2380.67605653
  -exchange      EXHF   =         0.00000000
  -V(xc)+E(xc)   XCENC  =       257.70731921
  PAW double counting   =      8531.97975015    -8950.91423455
  entropy T*S    EENTRO =         0.00000000
  eigenvalues    EBANDS =      -187.40572898
  atomic energy  EATOM  =      7525.42945373
  Solvation  Ediel_sol  =         0.00000000
  ---------------------------------------------------
  free energy    TOTEN  =       -35.79883117 eV

  energy without entropy =      -35.79883117  energy(sigma->0) =      -35.79883117


--------------------------------------------------------------------------------------------------------




--------------------------------------- Iteration      1(  11)  ---------------------------------------


    POTLOK:  cpu time      0.0217: real time      0.0362
    SETDIJ:  cpu time      0.3877: real time      0.3886
    EDDIAG:  cpu time      0.1703: real time      0.1709
  RMM-DIIS:  cpu time      0.3657: real time      0.3665
    ORTHCH:  cpu time      0.0193: real time      0.0193
 BZINTS: Fermi energy:    4.932951;   72.000000 electrons
         Band energy:-0.187290E+03;  BLOECHL correction:    0.000000
       DOS:  cpu time      0.0067: real time      0.0067
    CHARGE:  cpu time      0.0474: real time      0.0475
    MIXING:  cpu time      0.0006: real time      0.0006
    --------------------------------------------
      LOOP:  cpu time      1.0192: real time      1.0364

 eigenvalue-minimisations  :  4885
 total energy-change (2. order) :-0.8737185E-03  (-0.2537014E-02)
 number of electron      71.9999992 magnetization       0.0035994
 augmentation part       26.2700400 magnetization       0.0020222

 Broyden mixing:
  rms(total) = 0.37223E-01    rms(broyden)= 0.37223E-01
  rms(prec ) = 0.44829E-01
  weight for this iteration     100.00

 eigenvalues of (default mixing * dielectric matrix)
  average eigenvalue GAMMA=   1.2104
  2.0682  2.0682  0.9323  0.9323  0.6307  0.6307

 Free energy of the ion-electron system (eV)
  ---------------------------------------------------
  alpha Z        PSCENC =       202.50320330
  Ewald energy   TEWEN  =     -5034.42253749
  -Hartree energ DENC   =     -2380.93908128
  -exchange      EXHF   =         0.00000000
  -V(xc)+E(xc)   XCENC  =       257.69674459
  PAW double counting   =      8513.61154379    -8932.38877679
  entropy T*S    EENTRO =         0.00000000
  eigenvalues    EBANDS =      -187.29025474
  atomic energy  EATOM  =      7525.42945373
  Solvation  Ediel_sol  =         0.00000000
  ---------------------------------------------------
  free energy    TOTEN  =       -35.79970489 eV

  energy without entropy =      -35.79970489  energy(sigma->0) =      -35.79970489


--------------------------------------------------------------------------------------------------------




--------------------------------------- Iteration      1(  12)  ---------------------------------------


    POTLOK:  cpu time      0.0225: real time      0.0368
    SETDIJ:  cpu time      0.3893: real time      0.3903
    EDDIAG:  cpu time      0.1945: real time      0.1951
  RMM-DIIS:  cpu time      0.3538: real time      0.3547
    ORTHCH:  cpu time      0.0203: real time      0.0203
 BZINTS: Fermi energy:    4.930687;   72.000000 electrons
         Band energy:-0.187234E+03;  BLOECHL correction:    0.000000
       DOS:  cpu time      0.0066: real time      0.0066
    CHARGE:  cpu time      0.0649: real time      0.0651
    MIXING:  cpu time      0.0007: real time      0.0007
    --------------------------------------------
      LOOP:  cpu time      1.0527: real time      1.0697

 eigenvalue-minimisations  :  4423
 total energy-change (2. order) :-0.1724329E-03  (-0.4295498E-03)
 number of electron      71.9999992 magnetization      -0.0063622
 augmentation part       26.2695069 magnetization      -0.0067514

 Broyden mixing:
  rms(total) = 0.24030E-01    rms(broyden)= 0.24030E-01
  rms(prec ) = 0.30709E-01
  weight for this iteration     100.00

 eigenvalues of (default mixing * dielectric matrix)
  average eigenvalue GAMMA=   1.2812
  2.4268  2.4268  1.2654  0.9900  0.6657  0.6657  0.5283

 Free energy of the ion-electron system (eV)
  ---------------------------------------------------
  alpha Z        PSCENC =       202.50320330
  Ewald energy   TEWEN  =     -5034.42253749
  -Hartree energ DENC   =     -2381.08734479
  -exchange      EXHF   =         0.00000000
  -V(xc)+E(xc)   XCENC  =       257.69616314
  PAW double counting   =      8501.76681231    -8920.45208244
  entropy T*S    EENTRO =         0.00000000
  eigenvalues    EBANDS =      -187.23354509
  atomic energy  EATOM  =      7525.42945373
  Solvation  Ediel_sol  =         0.00000000
  ---------------------------------------------------
  free energy    TOTEN  =       -35.79987732 eV

  energy without entropy =      -35.79987732  energy(sigma->0) =      -35.79987732


--------------------------------------------------------------------------------------------------------




--------------------------------------- Iteration      1(  13)  ---------------------------------------


    POTLOK:  cpu time      0.0244: real time      0.0378
    SETDIJ:  cpu time      0.3838: real time      0.3851
    EDDIAG:  cpu time      0.1824: real time      0.1828
  RMM-DIIS:  cpu time      0.3332: real time      0.3340
    ORTHCH:  cpu time      0.0198: real time      0.0199
 BZINTS: Fermi energy:    4.928601;   72.000000 electrons
         Band energy:-0.186887E+03;  BLOECHL correction:    0.000000
       DOS:  cpu time      0.0065: real time      0.0068
    CHARGE:  cpu time      0.0485: real time      0.0486
    MIXING:  cpu time      0.0007: real time      0.0007
    --------------------------------------------
      LOOP:  cpu time      0.9993: real time      1.0157

 eigenvalue-minimisations  :  4211
 total energy-change (2. order) : 0.2443819E-04  (-0.1777340E-03)
 number of electron      71.9999992 magnetization      -0.0018919
 augmentation part       26.2619544 magnetization      -0.0010092

 Broyden mixing:
  rms(total) = 0.74699E-02    rms(broyden)= 0.74699E-02
  rms(prec ) = 0.89187E-02
  weight for this iteration     100.00

 eigenvalues of (default mixing * dielectric matrix)
  average eigenvalue GAMMA=   1.2596
  2.4301  2.4301  1.7178  0.9338  0.8365  0.6389  0.6389  0.4508

 Free energy of the ion-electron system (eV)
  ---------------------------------------------------
  alpha Z        PSCENC =       202.50320330
  Ewald energy   TEWEN  =     -5034.42253749
  -Hartree energ DENC   =     -2381.42818903
  -exchange      EXHF   =         0.00000000
  -V(xc)+E(xc)   XCENC  =       257.70940442
  PAW double counting   =      8498.78066008    -8917.48467575
  entropy T*S    EENTRO =         0.00000000
  eigenvalues    EBANDS =      -186.88717214
  atomic energy  EATOM  =      7525.42945373
  Solvation  Ediel_sol  =         0.00000000
  ---------------------------------------------------
  free energy    TOTEN  =       -35.79985288 eV

  energy without entropy =      -35.79985288  energy(sigma->0) =      -35.79985288


--------------------------------------------------------------------------------------------------------




--------------------------------------- Iteration      1(  14)  ---------------------------------------


    POTLOK:  cpu time      0.0266: real time      0.0399
    SETDIJ:  cpu time      0.3864: real time      0.3874
    EDDIAG:  cpu time      0.1909: real time      0.1914
  RMM-DIIS:  cpu time      0.3769: real time      0.3779
    ORTHCH:  cpu time      0.0202: real time      0.0202
 BZINTS: Fermi energy:    4.929491;   72.000000 electrons
         Band energy:-0.186727E+03;  BLOECHL correction:    0.000000
       DOS:  cpu time      0.0059: real time      0.0059
    CHARGE:  cpu time      0.0537: real time      0.0538
    MIXING:  cpu time      0.0012: real time      0.0012
    --------------------------------------------
      LOOP:  cpu time      1.0619: real time      1.0778

 eigenvalue-minimisations  :  4386
 total energy-change (2. order) :-0.9647228E-04  (-0.9011626E-04)
 number of electron      71.9999992 magnetization       0.0003497
 augmentation part       26.2589611 magnetization       0.0006111

 Broyden mixing:
  rms(total) = 0.26810E-02    rms(broyden)= 0.26810E-02
  rms(prec ) = 0.49167E-02
  weight for this iteration     100.00

 eigenvalues of (default mixing * dielectric matrix)
  average eigenvalue GAMMA=   1.2466
  2.3136  2.1852  2.1852  1.0118  1.0118  0.7662  0.6680  0.6381  0.4398

 Free energy of the ion-electron system (eV)
  ---------------------------------------------------
  alpha Z        PSCENC =       202.50320330
  Ewald energy   TEWEN  =     -5034.42253749
  -Hartree energ DENC   =     -2381.52361519
  -exchange      EXHF   =         0.00000000
  -V(xc)+E(xc)   XCENC  =       257.71489953
  PAW double counting   =      8505.50504756    -8924.27942760
  entropy T*S    EENTRO =         0.00000000
  eigenvalues    EBANDS =      -186.72697319
  atomic energy  EATOM  =      7525.42945373
  Solvation  Ediel_sol  =         0.00000000
  ---------------------------------------------------
  free energy    TOTEN  =       -35.79994935 eV

  energy without entropy =      -35.79994935  energy(sigma->0) =      -35.79994935


--------------------------------------------------------------------------------------------------------




--------------------------------------- Iteration      1(  15)  ---------------------------------------


    POTLOK:  cpu time      0.0240: real time      0.0408
    SETDIJ:  cpu time      0.3842: real time      0.3853
    EDDIAG:  cpu time      0.2020: real time      0.2026
  RMM-DIIS:  cpu time      0.3175: real time      0.3182
    ORTHCH:  cpu time      0.0202: real time      0.0203
 BZINTS: Fermi energy:    4.930451;   72.000000 electrons
         Band energy:-0.186763E+03;  BLOECHL correction:    0.000000
       DOS:  cpu time      0.0069: real time      0.0069
    CHARGE:  cpu time      0.0554: real time      0.0555
    MIXING:  cpu time      0.0011: real time      0.0011
    --------------------------------------------
      LOOP:  cpu time      1.0112: real time      1.0307

 eigenvalue-minimisations  :  3865
 total energy-change (2. order) :-0.8998176E-05  (-0.2394178E-04)
 number of electron      71.9999992 magnetization       0.0004881
 augmentation part       26.2617765 magnetization       0.0004796

 Broyden mixing:
  rms(total) = 0.23320E-02    rms(broyden)= 0.23320E-02
  rms(prec ) = 0.26956E-02
  weight for this iteration     100.00

 eigenvalues of (default mixing * dielectric matrix)
  average eigenvalue GAMMA=   1.2544
  2.3850  2.2967  2.2967  1.2522  0.9191  0.9191  0.6935  0.6935  0.6493  0.4384

 Free energy of the ion-electron system (eV)
  ---------------------------------------------------
  alpha Z        PSCENC =       202.50320330
  Ewald energy   TEWEN  =     -5034.42253749
  -Hartree energ DENC   =     -2381.47397764
  -exchange      EXHF   =         0.00000000
  -V(xc)+E(xc)   XCENC  =       257.71436587
  PAW double counting   =      8505.16793641    -8923.95527610
  entropy T*S    EENTRO =         0.00000000
  eigenvalues    EBANDS =      -186.76312643
  atomic energy  EATOM  =      7525.42945373
  Solvation  Ediel_sol  =         0.00000000
  ---------------------------------------------------
  free energy    TOTEN  =       -35.79995835 eV

  energy without entropy =      -35.79995835  energy(sigma->0) =      -35.79995835


--------------------------------------------------------------------------------------------------------




--------------------------------------- Iteration      1(  16)  ---------------------------------------


    POTLOK:  cpu time      0.0236: real time      0.0395
    SETDIJ:  cpu time      0.3843: real time      0.3854
    EDDIAG:  cpu time      0.1895: real time      0.1900
  RMM-DIIS:  cpu time      0.2501: real time      0.2507
    ORTHCH:  cpu time      0.0207: real time      0.0208
 BZINTS: Fermi energy:    4.930489;   72.000000 electrons
         Band energy:-0.186712E+03;  BLOECHL correction:    0.000000
       DOS:  cpu time      0.0066: real time      0.0066
    --------------------------------------------
      LOOP:  cpu time      0.8749: real time      0.8929

 eigenvalue-minimisations  :  3136
 total energy-change (2. order) :-0.4565058E-05  (-0.5106588E-05)
 number of electron      71.9999992 magnetization       0.0004881
 augmentation part       26.2617765 magnetization       0.0004796

 Free energy of the ion-electron system (eV)
  ---------------------------------------------------
  alpha Z        PSCENC =       202.50320330
  Ewald energy   TEWEN  =     -5034.42253749
  -Hartree energ DENC   =     -2381.52282282
  -exchange      EXHF   =         0.00000000
  -V(xc)+E(xc)   XCENC  =       257.71596912
  PAW double counting   =      8501.95490340    -8920.74636354
  entropy T*S    EENTRO =         0.00000000
  eigenvalues    EBANDS =      -186.71176861
  atomic energy  EATOM  =      7525.42945373
  Solvation  Ediel_sol  =         0.00000000
  ---------------------------------------------------
  free energy    TOTEN  =       -35.79996292 eV

  energy without entropy =      -35.79996292  energy(sigma->0) =      -35.79996292


--------------------------------------------------------------------------------------------------------




 average (electrostatic) potential at core
  the test charge radii are     0.9521  0.9430  1.0894  0.9698
  (the norm of the test charge is              1.0000)
       1 -34.2824       2 -65.3660       3 -65.3442       4-102.6256       5 -87.1387
       6 -87.1387       7 -87.1387       8 -87.1387
 
 
 
 E-fermi :   4.9305     XC(G=0): -10.0580     alpha+bet :-10.1671

 Fermi energy:         4.9304892133

 spin component 1

 k-point     1 :       0.0000    0.0000    0.0000
  band No.  band energies     occupation 
      1     -17.2910      1.00000
      2     -17.2870      1.00000
      3     -17.2870      1.00000
      4     -17.2064      1.00000
      5     -17.2014      1.00000
      6      -9.6913      1.00000
      7      -8.1372      1.00000
      8      -8.1199      1.00000
      9      -8.1199      1.00000
     10      -3.2324      1.00000
     11      -2.2874      1.00000
     12      -2.2180      1.00000
     13      -2.2083      1.00000
     14      -2.2083      1.00000
     15      -2.1078      1.00000
     16      -0.8969      1.00000
     17      -0.2807      1.00000
     18      -0.1247      1.00000
     19       0.3460      1.00000
     20       0.3791      1.00000
     21       0.3791      1.00000
     22       1.0353      1.00000
     23       1.0353      1.00000
     24       1.5175      1.00000
     25       1.5175      1.00000
     26       1.5394      1.00000
     27       2.6410      1.00000
     28       2.7094      1.00000
     29       2.9153      1.00000
     30       3.1752      1.00000
     31       3.1868      1.00000
     32       3.1869      1.00000
     33       3.3602      1.00000
     34       4.8301      1.00000
     35       4.8301      1.00000
     36       4.8940      1.00000
     37       5.0454      0.00000
     38       6.7468      0.00000
     39       7.6012      0.00000
     40       8.5483      0.00000
     41       8.5483      0.00000
     42       9.6868      0.00000
     43       9.9266      0.00000
     44      10.0949      0.00000
     45      10.0961      0.00000
     46      10.5937      0.00000
     47      11.6337      0.00000
     48      11.7319      0.00000

 k-point     2 :       0.2500    0.0000    0.0000
  band No.  band energies     occupation 
      1     -17.2913      1.00000
      2     -17.2873      1.00000
      3     -17.2870      1.00000
      4     -17.2061      1.00000
      5     -17.2012      1.00000
      6      -9.4811      1.00000
      7      -8.3146      1.00000
      8      -8.2079      1.00000
      9      -8.1719      1.00000
     10      -3.1390      1.00000
     11      -2.2671      1.00000
     12      -2.2441      1.00000
     13      -2.2163      1.00000
     14      -2.1967      1.00000
     15      -2.0778      1.00000
     16      -0.9447      1.00000
     17      -0.4519      1.00000
     18      -0.1502      1.00000
     19       0.2428      1.00000
     20       0.5329      1.00000
     21       0.6796      1.00000
     22       0.8921      1.00000
     23       1.0415      1.00000
     24       1.4072      1.00000
     25       1.4843      1.00000
     26       1.7106      1.00000
     27       2.7805      1.00000
     28       2.8555      1.00000
     29       2.9446      1.00000
     30       3.0416      1.00000
     31       3.1323      1.00000
     32       3.3643      1.00000
     33       3.4940      1.00000
     34       3.9603      1.00000
     35       4.3595      1.00000
     36       4.6644      1.00000
     37       6.1000      0.00000
     38       7.6228      0.00000
     39       7.8144      0.00000
     40       8.1812      0.00000
     41       8.4700      0.00000
     42       9.5350      0.00000
     43       9.9872      0.00000
     44      10.0925      0.00000
     45      10.3312      0.00000
     46      10.6789      0.00000
     47      11.2150      0.00000
     48      12.0538      0.00000

 k-point     3 :       0.5000    0.0000    0.0000
  band No.  band energies     occupation 
      1     -17.2916      1.00000
      2     -17.2876      1.00000
      3     -17.2870      1.00000
      4     -17.2058      1.00000
      5     -17.2011      1.00000
      6      -9.0812      1.00000
      7      -8.7207      1.00000
      8      -8.2748      1.00000
      9      -8.2121      1.00000
     10      -3.0441      1.00000
     11      -2.2980      1.00000
     12      -2.2600      1.00000
     13      -2.1900      1.00000
     14      -2.1696      1.00000
     15      -2.0444      1.00000
     16      -0.8600      1.00000
     17      -0.4929      1.00000
     18      -0.1437      1.00000
     19       0.1440      1.00000
     20       0.4599      1.00000
     21       0.5645      1.00000
     22       0.9723      1.00000
     23       1.1366      1.00000
     24       1.3110      1.00000
     25       1.5081      1.00000
     26       1.7478      1.00000
[...]
      4     -17.2067      1.00000
      5     -17.2016      1.00000
      6      -9.5202      1.00000
      7      -8.4109      1.00000
      8      -8.1277      1.00000
      9      -8.1277      1.00000
     10      -3.2826      1.00000
     11      -2.2803      1.00000
     12      -2.2293      1.00000
     13      -2.2293      1.00000
     14      -2.1721      1.00000
     15      -2.0172      1.00000
     16      -1.0520      1.00000
     17      -0.2787      1.00000
     18       0.2273      1.00000
     19       0.5369      1.00000
     20       0.5369      1.00000
     21       0.6591      1.00000
     22       1.0458      1.00000
     23       1.0458      1.00000
     24       1.3613      1.00000
     25       1.5411      1.00000
     26       1.5412      1.00000
     27       2.5585      1.00000
     28       2.8421      1.00000
     29       2.9900      1.00000
     30       3.0090      1.00000
     31       3.3411      1.00000
     32       3.3727      1.00000
     33       3.3727      1.00000
     34       4.1171      1.00000
     35       4.4546      1.00000
     36       4.4546      1.00000
     37       5.9974      0.00000
     38       6.9312      0.00000
     39       7.5684      0.00000
     40       7.5684      0.00000
     41       7.7863      0.00000
     42       8.7615      0.00000
     43       9.2877      0.00000
     44       9.5598      0.00000
     45      10.4613      0.00000
     46      10.4613      0.00000
     47      13.1019      0.00000
     48      13.2912      0.00000

 k-point    14 :       0.5000    0.5000    0.5000
  band No.  band energies     occupation 
      1     -17.2914      1.00000
      2     -17.2869      1.00000
      3     -17.2869      1.00000
      4     -17.2067      1.00000
      5     -17.2016      1.00000
      6      -9.1830      1.00000
      7      -8.8443      1.00000
      8      -8.1355      1.00000
      9      -8.1355      1.00000
     10      -3.3242      1.00000
     11      -2.3213      1.00000
     12      -2.2487      1.00000
     13      -2.2487      1.00000
     14      -2.1635      1.00000
     15      -1.8729      1.00000
     16      -1.1724      1.00000
     17       0.2210      1.00000
     18       0.2368      1.00000
     19       0.5934      1.00000
     20       0.6938      1.00000
     21       0.6938      1.00000
     22       1.0670      1.00000
     23       1.0670      1.00000
     24       1.4578      1.00000
     25       1.5787      1.00000
     26       1.5787      1.00000
     27       2.5331      1.00000
     28       2.8277      1.00000
     29       2.8695      1.00000
     30       2.9619      1.00000
     31       3.5992      1.00000
     32       3.6944      1.00000
     33       3.6944      1.00000
     34       3.7170      1.00000
     35       3.9852      1.00000
     36       3.9852      1.00000
     37       6.1755      0.00000
     38       6.7880      0.00000
     39       6.7880      0.00000
     40       7.1422      0.00000
     41       8.0589      0.00000
     42       8.2635      0.00000
     43       9.0577      0.00000
     44       9.0876      0.00000
     45      11.4301      0.00000
     46      11.4438      0.00000
     47      12.1906      0.00000
     48      12.6281      0.00000


--------------------------------------------------------------------------------------------------------


 soft charge-density along one line, spin component           1
         0         1         2         3         4         5         6         7         8         9
 total charge-density along one line
 
 soft charge-density along one line, spin component           2
         0         1         2         3         4         5         6         7         8         9
 total charge-density along one line
 
 pseudopotential strength for first ion, spin component:           1
 -8.399  -0.002  -0.001  -0.002   0.001  -8.845  -0.002  -0.001
 -0.002  -8.397  -0.002   0.001   0.004  -0.002  -8.843  -0.002
 -0.001  -0.002  -8.396  -0.001   0.001  -0.001  -0.002  -8.841
 -0.002   0.001  -0.001  -8.397  -0.002  -0.002   0.001  -0.001
  0.001   0.004   0.001  -0.002  -8.402   0.001   0.004   0.001
 -8.845  -0.002  -0.001  -0.002   0.001  -9.210  -0.002  -0.001
 -0.002  -8.843  -0.002   0.001   0.004  -0.002  -9.208  -0.002
 -0.001  -0.002  -8.841  -0.001   0.001  -0.001  -0.002  -9.207
 -0.002   0.001  -0.001  -8.842  -0.002  -0.001   0.001  -0.001
  0.001   0.004   0.001  -0.002  -8.847   0.001   0.003   0.001
 -0.000   0.000  -0.000   0.000   0.000  -0.000   0.000  -0.000
 -0.000   0.001  -0.000   0.000   0.000  -0.000   0.001  -0.000
 -0.001  -0.001   0.001   0.001  -0.000  -0.001  -0.001   0.001
  0.001   0.001   0.001   0.001  -0.000   0.001   0.001   0.001
 -0.001   0.001   0.001  -0.001   0.001  -0.001   0.001   0.001
 -0.001  -0.000   0.001   0.001  -0.000  -0.001  -0.000   0.001
  0.001   0.001   0.001   0.000  -0.000   0.000   0.001   0.001
 -0.001   0.001   0.000  -0.001   0.001  -0.000   0.000   0.000
 pseudopotential strength for first ion, spin component:           2
 -8.400  -0.003  -0.001  -0.002   0.001  -8.845  -0.002  -0.001
 -0.003  -8.397  -0.002   0.001   0.004  -0.002  -8.843  -0.002
 -0.001  -0.002  -8.396  -0.001   0.001  -0.001  -0.002  -8.841
 -0.002   0.001  -0.001  -8.397  -0.002  -0.002   0.001  -0.001
  0.001   0.004   0.001  -0.002  -8.402   0.001   0.004   0.001
 -8.845  -0.002  -0.001  -0.002   0.001  -9.211  -0.002  -0.001
 -0.002  -8.843  -0.002   0.001   0.004  -0.002  -9.208  -0.002
 -0.001  -0.002  -8.841  -0.001   0.001  -0.001  -0.002  -9.207
 -0.002   0.001  -0.001  -8.842  -0.002  -0.001   0.001  -0.001
  0.001   0.004   0.001  -0.002  -8.847   0.001   0.003   0.001
 -0.000   0.000  -0.000   0.000   0.000  -0.000   0.000  -0.000
 -0.000   0.001  -0.000   0.000   0.000  -0.000   0.001  -0.000
 -0.001  -0.001   0.001   0.001  -0.000  -0.001  -0.001   0.001
  0.001   0.001   0.001   0.001  -0.000   0.001   0.001   0.001
 -0.001   0.001   0.001  -0.001   0.001  -0.001   0.001   0.001
 -0.001  -0.000   0.001   0.001  -0.000  -0.001  -0.000   0.001
  0.001   0.001   0.001   0.000  -0.000   0.000   0.001   0.001
 -0.001   0.001   0.000  -0.001   0.001  -0.000   0.000   0.000
 total augmentation occupancy for first ion, spin component:           1
  3.913   0.373  -0.179   0.127  -0.181  -1.928  -0.376   0.178  -0.122   0.189   0.018  -0.006  -0.493   0.262  -0.290   0.076
  0.373   3.231   0.461  -0.205   0.397  -0.376  -1.257  -0.462   0.208  -0.382  -0.040   0.014  -0.217   0.317   0.268   0.031
 -0.179   0.461   3.650   0.380   0.040   0.178  -0.462  -1.666  -0.377  -0.036   0.032  -0.011   0.273   0.477   0.203  -0.044
  0.127  -0.205   0.380   3.323  -0.595  -0.122   0.208  -0.377  -1.341   0.588  -0.033   0.011   0.274   0.225  -0.334  -0.041
 -0.181   0.397   0.040  -0.595   3.009   0.189  -0.382  -0.036   0.588  -1.047  -0.004   0.001  -0.131  -0.072   0.385   0.017
 -1.928  -0.376   0.178  -0.122   0.189   1.936   0.379  -0.176   0.118  -0.197  -0.018   0.007   0.479  -0.255   0.281  -0.085
 -0.376  -1.257  -0.462   0.208  -0.382   0.379   1.276   0.462  -0.211   0.367   0.041  -0.015   0.209  -0.309  -0.260  -0.035
  0.178  -0.462  -1.666  -0.377  -0.036  -0.176   0.462   1.676   0.374   0.031  -0.032   0.012  -0.266  -0.463  -0.196   0.048
 -0.122   0.208  -0.377  -1.341   0.588   0.118  -0.211   0.374   1.352  -0.580   0.033  -0.012  -0.266  -0.218   0.325   0.045
  0.189  -0.382  -0.036   0.588  -1.047  -0.197   0.367   0.031  -0.580   1.078   0.004  -0.001   0.126   0.070  -0.375  -0.019
  0.018  -0.040   0.032  -0.033  -0.004  -0.018   0.041  -0.032   0.033   0.004   2.570  -0.605   0.000  -0.000   0.000   0.000
 -0.006   0.014  -0.011   0.011   0.001   0.007  -0.015   0.012  -0.012  -0.001  -0.605   0.175  -0.000   0.000   0.000   0.000
 -0.493  -0.217   0.273   0.274  -0.131   0.479   0.209  -0.266  -0.266   0.126   0.000  -0.000   0.367   0.004  -0.002  -0.064
  0.262   0.317   0.477   0.225  -0.072  -0.255  -0.309  -0.463  -0.218   0.070  -0.000   0.000   0.004   0.362   0.003  -0.001
 -0.290   0.268   0.203  -0.334   0.385   0.281  -0.260  -0.196   0.325  -0.375  -0.000  -0.000  -0.002   0.003   0.367   0.001
  0.076   0.031  -0.044  -0.041   0.017  -0.085  -0.035   0.048   0.045  -0.019   0.000   0.000  -0.064  -0.001   0.001   0.013
 -0.040  -0.051  -0.073  -0.031   0.012   0.045   0.056   0.081   0.035  -0.013  -0.000   0.000  -0.001  -0.062  -0.001   0.000
  0.042  -0.040  -0.028   0.053  -0.061  -0.047   0.045   0.031  -0.058   0.067   0.000   0.000   0.001  -0.001  -0.064  -0.000
 total augmentation occupancy for first ion, spin component:           2
  0.000  -0.000   0.000   0.000  -0.000   0.000   0.000  -0.000  -0.000  -0.000   0.000  -0.000   0.000  -0.000   0.000  -0.000
 -0.000   0.000  -0.000   0.000  -0.000   0.000  -0.000   0.000  -0.000   0.000  -0.000   0.000   0.000  -0.000  -0.000  -0.000
  0.000  -0.000   0.000  -0.000  -0.000  -0.000   0.000   0.000   0.000   0.000   0.000  -0.000  -0.000  -0.000  -0.000   0.000
  0.000   0.000  -0.000   0.000   0.000  -0.000  -0.000   0.000  -0.000  -0.000  -0.000   0.000  -0.000  -0.000   0.000   0.000
 -0.000  -0.000  -0.000   0.000   0.000  -0.000   0.000   0.000  -0.000  -0.000  -0.000   0.000   0.000   0.000  -0.000  -0.000
  0.000   0.000  -0.000  -0.000  -0.000  -0.000  -0.000   0.000   0.000   0.000  -0.000   0.000  -0.000   0.000  -0.000   0.000
  0.000  -0.000   0.000  -0.000   0.000  -0.000  -0.000  -0.000   0.000  -0.000   0.000  -0.000  -0.000   0.000   0.000   0.000
 -0.000   0.000   0.000   0.000   0.000   0.000  -0.000  -0.000  -0.000  -0.000  -0.000   0.000   0.000   0.000   0.000  -0.000
 -0.000  -0.000   0.000  -0.000  -0.000   0.000   0.000  -0.000  -0.000   0.000   0.000  -0.000   0.000   0.000  -0.000  -0.000
 -0.000   0.000   0.000  -0.000  -0.000   0.000  -0.000  -0.000   0.000  -0.000   0.000  -0.000  -0.000  -0.000   0.000   0.000
  0.000  -0.000   0.000  -0.000  -0.000  -0.000   0.000  -0.000   0.000   0.000  -0.000   0.000  -0.000   0.000   0.000  -0.000
 -0.000   0.000  -0.000   0.000   0.000   0.000  -0.000   0.000  -0.000  -0.000   0.000  -0.000   0.000  -0.000   0.000   0.000
  0.000   0.000  -0.000  -0.000   0.000  -0.000  -0.000   0.000   0.000  -0.000   0.000   0.000  -0.000  -0.000   0.000   0.000
 -0.000  -0.000  -0.000  -0.000   0.000   0.000   0.000   0.000   0.000  -0.000   0.000  -0.000  -0.000  -0.000  -0.000   0.000
  0.000  -0.000  -0.000   0.000  -0.000  -0.000   0.000   0.000  -0.000   0.000  -0.000  -0.000   0.000  -0.000  -0.000  -0.000
 -0.000  -0.000   0.000   0.000  -0.000   0.000   0.000  -0.000  -0.000   0.000  -0.000   0.000   0.000   0.000  -0.000  -0.000
  0.000   0.000   0.000   0.000  -0.000  -0.000  -0.000  -0.000  -0.000   0.000   0.000   0.000   0.000   0.000   0.000  -0.000
 -0.000   0.000   0.000  -0.000   0.000   0.000  -0.000  -0.000   0.000  -0.000   0.000   0.000  -0.000   0.000   0.000   0.000


------------------------ aborting loop because EDIFF is reached ----------------------------------------





 total charge

# of ion       s       p       d       tot
------------------------------------------
    1        0.535   0.479   9.797  10.811
    2        0.376   0.381   9.256  10.014
    3        0.377   0.384   9.257  10.017
    4        1.108   1.102  10.104  12.314
    5        1.322   2.360   0.000   3.682
    6        1.322   2.360   0.000   3.682
    7        1.322   2.360   0.000   3.682
    8        1.322   2.360   0.000   3.682
--------------------------------------------------
tot          7.684  11.787  38.414  57.886



 magnetization (x)

# of ion       s       p       d       tot
------------------------------------------
    1       -0.000  -0.000  -0.000  -0.000
    2       -0.000  -0.000  -0.000  -0.000
    3       -0.000  -0.000  -0.000  -0.000
    4       -0.000  -0.000  -0.000  -0.000
    5        0.000  -0.000   0.000  -0.000
    6        0.000  -0.000   0.000  -0.000
    7        0.000  -0.000   0.000  -0.000
    8        0.000  -0.000   0.000  -0.000
--------------------------------------------------
tot         -0.000  -0.000  -0.000  -0.000
 
    CHARGE:  cpu time      0.0519: real time      0.0521
    FORLOC:  cpu time      0.0021: real time      0.0022
    FORNL :  cpu time      0.0631: real time      0.0637
    STRESS:  cpu time      0.1755: real time      0.1761
    FORCOR:  cpu time      0.0215: real time      0.0216
    FORHAR:  cpu time      0.0047: real time      0.0053
    MIXING:  cpu time      0.0006: real time      0.0006
    OFIELD:  cpu time      0.0003: real time      0.0004

  FORCE on cell =-STRESS in cart. coord.  units (eV):
  Direction    XX          YY          ZZ          XY          YZ          ZX
  --------------------------------------------------------------------------------------
  Alpha Z   202.50320   202.50320   202.50320
  Ewald   -1678.35169 -1678.27968 -1677.79864     0.16852    -0.37900    -0.30660
  Hartree   793.78411   793.80883   793.98431     0.06135    -0.13698    -0.11213
  E(xc)    -351.82079  -351.82124  -351.82433    -0.00110     0.00242     0.00198
  Local    -249.17363  -249.29079  -250.09538    -0.28171     0.63127     0.51359
  n-local   275.69088   276.21566   277.06159    -0.08206     0.16034    -0.24542
  augment   337.67446   337.64843   337.46723    -0.06328     0.14181     0.11563
  Kinetic   668.83304   668.40538   666.96094    -1.09137    -0.39118    -1.17297
  Fock        0.00000     0.00000     0.00000     0.00000     0.00000     0.00000
  -------------------------------------------------------------------------------------
  Total      -1.13020    -1.13254    -1.14897    -0.00575     0.01285     0.01049
  in kB     -11.43218   -11.45590   -11.62207    -0.05812     0.12997     0.10613
  external pressure =      -11.50 kB  Pullay stress =        0.00 kB


 VOLUME and BASIS-vectors are now :
 -----------------------------------------------------------------------------
  energy-cutoff  :      680.00
  volume of cell :      158.39
      direct lattice vectors                 reciprocal lattice vectors
     4.939011845  0.000000000 -4.418482186     0.202469650  0.041317308  0.000000000
    -0.987535372  4.839278034 -4.418482186     0.000000000  0.206642394  0.000000000
     0.000000000  0.000000000  6.626976900     0.134994969  0.165325086  0.150898368

  length of vectors
     6.626976900  6.626976900  6.626976900     0.206642394  0.206642394  0.261393082


 FORCES acting on ions
    electron-ion (+dipol)            ewald-force                    non-local-force                 convergence-correction
 -----------------------------------------------------------------------------------------------
   -.665E-04 0.103E-03 0.902E-04   -.513E-03 0.718E-03 0.656E-03   -.154E-18 0.224E-18 0.746E-18   0.354E-05 -.588E-05 -.656E-05
   -.100E-03 0.391E-04 -.977E-04   -.740E-03 0.279E-03 -.712E-03   -.243E-17 0.190E-17 -.417E-17   0.547E-05 -.143E-05 0.662E-05
   0.181E-04 -.568E-04 -.947E-04   0.128E-03 -.421E-03 -.692E-03   0.317E-17 -.692E-17 0.760E-17   -.270E-05 0.506E-05 0.624E-05
   0.610E-04 -.506E-05 0.967E-04   0.453E-03 -.413E-04 0.719E-03   -.855E-17 -.518E-17 -.243E-16   -.563E-05 0.127E-05 -.731E-05
   0.652E+01 0.214E+01 0.749E+01   -.777E+01 -.255E+01 -.951E+01   0.116E+01 0.394E+00 0.187E+01   0.110E-02 0.115E-02 0.290E-02
   -.855E+01 -.462E+01 -.295E+01   0.105E+02 0.594E+01 0.332E+01   -.183E+01 -.122E+01 -.356E+00   -.216E-02 -.244E-02 -.530E-03
   0.611E+01 -.682E+01 -.440E+01   -.772E+01 0.812E+01 0.564E+01   0.149E+01 -.121E+01 -.113E+01   0.276E-02 -.131E-02 -.126E-02
   -.408E+01 0.930E+01 -.135E+00   0.495E+01 -.115E+02 0.549E+00   -.819E+00 0.204E+01 -.380E+00   -.170E-02 0.260E-02 -.111E-02
 -----------------------------------------------------------------------------------------------
   0.267E-02 -.225E-02 -.163E-03   -.133E-13 -.533E-14 -.188E-13   -.111E-15 0.000E+00 0.167E-15   -.185E-06 0.431E-07 -.411E-06
 
 
 POSITION                                       TOTAL-FORCE (eV/Angst)
 -----------------------------------------------------------------------------------
      3.45738      1.20982     -1.10499        -0.000000      0.000000      0.000000
      0.00000      0.00000      0.00000        -0.000000      0.000000      0.000000
      0.49410      3.62946     -1.10499        -0.000000      0.000000      0.000000
      1.97574      2.41964     -4.41848        -0.000000      0.000000      0.000000
      1.43280      1.79654     -0.08518        -0.090315     -0.019543     -0.152998
      3.53810      4.29122     -4.40464         0.151082      0.093963      0.017100
     -0.06839      3.07620     -3.26331        -0.114755      0.092398      0.101198
      3.00044      0.51461      3.33314         0.053987     -0.166818      0.034700
 -----------------------------------------------------------------------------------
    total drift:                                0.002671     -0.002245     -0.000164


--------------------------------------------------------------------------------------------------------



  FREE ENERGIE OF THE ION-ELECTRON SYSTEM (eV)
  ---------------------------------------------------
  free  energy   TOTEN  =       -35.79996292 eV

  energy  without entropy=      -35.79996292  energy(sigma->0) =      -35.79996292
 


--------------------------------------------------------------------------------------------------------


    POTLOK:  cpu time      0.4072: real time      0.4083


--------------------------------------------------------------------------------------------------------


 writing wavefunctions
     LOOP+:  cpu time     18.1778: real time     18.4676
    4ORBIT:  cpu time      0.0000: real time      0.0000



 total charge

# of ion       s       p       d       tot
------------------------------------------
    1        0.535   0.479   9.797  10.811
    2        0.376   0.381   9.256  10.014
    3        0.377   0.384   9.257  10.017
    4        1.108   1.102  10.104  12.314
    5        1.322   2.360   0.000   3.682
    6        1.322   2.360   0.000   3.682
    7        1.322   2.360   0.000   3.682
    8        1.322   2.360   0.000   3.682
--------------------------------------------------
tot          7.684  11.787  38.414  57.886



 magnetization (x)

# of ion       s       p       d       tot
------------------------------------------
    1       -0.000  -0.000  -0.000  -0.000
    2       -0.000  -0.000  -0.000  -0.000
    3       -0.000  -0.000  -0.000  -0.000
    4       -0.000  -0.000  -0.000  -0.000
    5        0.000  -0.000   0.000  -0.000
    6        0.000  -0.000   0.000  -0.000
    7        0.000  -0.000   0.000  -0.000
    8        0.000  -0.000   0.000  -0.000
--------------------------------------------------
tot         -0.000  -0.000  -0.000  -0.000
 
 BZINTS: Fermi energy:    4.930489;   72.000000 electrons
         Band energy:-0.186712E+03;  BLOECHL correction:    0.000000

 total amount of memory used by VASP MPI-rank0    40293. kBytes
=======================================================================

   base      :      30000. kBytes
   nonl-proj :       5308. kBytes
   fftplans  :       1012. kBytes
   grid      :       2738. kBytes
   one-center:         31. kBytes
   wavefun   :       1204. kBytes
 
  
  
 General timing and accounting informations for this job:
 ========================================================
  
                  Total CPU time used (sec):       32.064
                            User time (sec):       28.566
                          System time (sec):        3.497
                         Elapsed time (sec):       33.085
  
                   Maximum memory used (kb):      201424.
                   Average memory used (kb):          N/A
  
                          Minor page faults:        40993
                          Major page faults:            0
                 Voluntary context switches:         2185
