 vasp.6.4.2 20Jul23 (build Mar 15 2024 16:31:38) complex                        
  
 executed on             LinuxIFC date 2025.03.19  14:30:43
 running  120 mpi-ranks, on    3 nodes
 distrk:  each k-point on  120 cores,    1 groups
 distr:  one band on NCORE=  10 cores,   12 groups


--------------------------------------------------------------------------------------------------------


 INCAR:
   ALGO = Normal
   CSHIFT = 1e-05
   EDIFF = 1e-05
   ENAUG = 1360
   ENCUT = 680
   GGA = Pe
   HFSCREEN = 0.2
   ISMEAR = -5
   ISPIN = 1
   LAECHG = True
   LASPH = True
   LCHARG = True
   LDAU = False
   LELF = False
   LHFCALC = True
   LMAXMIX = 4
   LMIXTAU = True
   LOPTICS = True
   LORBIT = 11
   LREAL = False
   LVTOT = True
   LWAVE = True
   NBANDS = 29
   NCORE = 10
   NEDOS = 2069
   NELM = 200
   NELMIN = 5
   NSW = 0
   PREC = Accurate
   PRECFOCK = Fast
   SIGMA = 0.05

 POTCAR:    PAW_PBE In_d 06Sep2000                
 POTCAR:    PAW_PBE P 06Sep2000                   
 WARNING: For LVTOT=.TRUE., VASP.5.x writes the TOTAL local potential to the
     file LOCPOT. If you want only the Hartree contributions, use LVHAR=.TRUE.
     instead. 

 POTCAR:    PAW_PBE In_d 06Sep2000                
   VRHFIN =In: s2p1                                                                                 
   LEXCH  = PE                                                                                      
   EATOM  =  1576.8302 eV,  115.8937 Ry                                                             
                                                                                                    
   TITEL  = PAW_PBE In_d 06Sep2000                                                                  
   LULTRA =        F    use ultrasoft PP ?                                                          
   IUNSCR =        1    unscreen: 0-lin 1-nonlin 2-no                                               
   RPACOR =    2.200    partial core radius                                                         
   POMASS =  114.820; ZVAL   =   13.000    mass and valenz                                          
   RCORE  =    2.500    outmost cutoff radius                                                       
   RWIGS  =    3.170; RWIGS  =    1.677    wigner-seitz radius (au A)                               
   ENMAX  =  239.211; ENMIN  =  179.409 eV                                                          
   ICORE  =        3    local potential                                                             
   LCOR   =        T    correct aug charges                                                         
   LPAW   =        T    paw PP                                                                      
   EAUG   =  449.704                                                                                
   DEXC   =    0.000                                                                                
   RMAX   =    2.552    core radius for proj-oper                                                   
   RAUG   =    1.300    factor for augmentation sphere                                              
   RDEP   =    2.630    radius for radial grids                                                     
   RDEPT  =    2.033    core radius for aug-charge                                                  
                                                                                                    
   Atomic configuration                                                                             
   12 entries                                                                                       
     n  l   j            E        occ.                                                              
     1  0  0.50    -27747.9169   2.0000                                                             
     2  0  0.50     -4154.4438   2.0000                                                             
     2  1  1.50     -3728.4305   6.0000                                                             
     3  0  0.50      -788.3680   2.0000                                                             
     3  1  1.50      -648.9215   6.0000                                                             
     3  2  2.50      -432.5893  10.0000                                                             
     4  0  0.50      -119.6363   2.0000                                                             
     4  1  1.50       -78.1086   6.0000                                                             
     4  2  2.50       -18.6227  10.0000                                                             
     5  0  0.50        -8.2107   2.0000                                                             
     5  1  0.50        -2.5185   1.0000                                                             
     4  3  2.50        -2.7212   0.0000                                                             
   Description                                                                                      
     l       E           TYP  RCUT    TYP  RCUT                                                     
     2    -18.6226981     23  2.500                                                                 
     2     -1.3605826     23  2.500                                                                 
     0     -8.2107305     23  2.500                                                                 
     0     -6.1485975     23  2.500                                                                 
     1     -2.5184867     23  2.500                                                                 
     1      3.2427302     23  2.500                                                                 
     3     -1.3605826      7  2.500                                                                 
  local pseudopotential read in
  partial core-charges read in
  partial kinetic energy density read in
  atomic valenz-charges read in
  non local Contribution for L=           2  read in
    real space projection operators read in
  non local Contribution for L=           2  read in
    real space projection operators read in
  non local Contribution for L=           0  read in
    real space projection operators read in
  non local Contribution for L=           0  read in
    real space projection operators read in
  non local Contribution for L=           1  read in
    real space projection operators read in
  non local Contribution for L=           1  read in
    real space projection operators read in
    PAW grid and wavefunctions read in
 
   number of l-projection  operators is LMAX  =           6
   number of lm-projection operators is LMMAX =          18
 
 POTCAR:    PAW_PBE P 06Sep2000                   
   VRHFIN =P : s2p3                                                                                 
   LEXCH  = PE                                                                                      
   EATOM  =   176.0430 eV,   12.9388 Ry                                                             
                                                                                                    
   TITEL  = PAW_PBE P 06Sep2000                                                                     
   LULTRA =        F    use ultrasoft PP ?                                                          
   IUNSCR =        1    unscreen: 0-lin 1-nonlin 2-no                                               
   RPACOR =    1.500    partial core radius                                                         
   POMASS =   30.974; ZVAL   =    5.000    mass and valenz                                          
   RCORE  =    1.900    outmost cutoff radius                                                       
   RWIGS  =    2.330; RWIGS  =    1.233    wigner-seitz radius (au A)                               
   ENMAX  =  255.040; ENMIN  =  191.280 eV                                                          
   ICORE  =        2    local potential                                                             
   LCOR   =        T    correct aug charges                                                         
   LPAW   =        T    paw PP                                                                      
   EAUG   =  342.924                                                                                
   DEXC   =    0.000                                                                                
   RMAX   =    1.935    core radius for proj-oper                                                   
   RAUG   =    1.300    factor for augmentation sphere                                              
   RDEP   =    1.931    radius for radial grids                                                     
   RDEPT  =    1.794    core radius for aug-charge                                                  
                                                                                                    
   Atomic configuration                                                                             
    6 entries                                                                                       
     n  l   j            E        occ.                                                              
     1  0  0.50     -2084.0982   2.0000                                                             
     2  0  0.50      -173.9859   2.0000                                                             
     2  1  1.50      -124.4865   6.0000                                                             
     3  0  0.50       -13.9692   2.0000                                                             
     3  1  0.50        -5.5067   3.0000                                                             
     3  2  1.50        -5.4423   0.0000                                                             
   Description                                                                                      
     l       E           TYP  RCUT    TYP  RCUT                                                     
     0    -13.9691527     23  1.900                                                                 
     0    -11.7794650     23  1.900                                                                 
     1     -5.5066937     23  1.900                                                                 
     1     -0.2556953     23  1.900                                                                 
     2     -5.4423304     23  1.900                                                                 
  local pseudopotential read in
  partial core-charges read in
  partial kinetic energy density read in
  atomic valenz-charges read in
  non local Contribution for L=           0  read in
    real space projection operators read in
  non local Contribution for L=           0  read in
    real space projection operators read in
  non local Contribution for L=           1  read in
    real space projection operators read in
  non local Contribution for L=           1  read in
    real space projection operators read in
    PAW grid and wavefunctions read in
 
   number of l-projection  operators is LMAX  =           4
   number of lm-projection operators is LMMAX =           8
 
  PAW_PBE In_d 06Sep2000                :
 energy of atom  1       EATOM=-1576.8302
 kinetic energy error for atom=    0.0009 (will be added to EATOM!!)
  PAW_PBE P 06Sep2000                   :
 energy of atom  2       EATOM= -176.0430
 kinetic energy error for atom=    0.0005 (will be added to EATOM!!)
 
 
 POSCAR: In1 P1
  positions in direct lattice
  No initial velocities read in
 exchange correlation table for  LEXCH =        8
   RHO(1)=    0.500       N(1)  =     2000
   RHO(2)=  100.500       N(2)  =     4000
 


--------------------------------------------------------------------------------------------------------


 ion  position               nearest neighbor table
   1  0.000  0.000  0.000-   2 2.56   2 2.56   2 2.56   2 2.56
   2  0.250  0.250  0.250-   1 2.56   1 2.56   1 2.56   1 2.56
 
  LATTYP: Found a face centered cubic cell.
 ALAT       =     5.9039525586
  
  Lattice vectors:
  
 A1 = (   3.6154179970,   0.0000000000,   2.0873625386)
 A2 = (   1.2051389992,   3.4086486374,   2.0873625384)
 A3 = (   0.0000000000,   0.0000000000,   4.1747250700)


Analysis of symmetry for initial positions (statically):
=====================================================================
 Subroutine PRICEL returns:
 Original cell was already a primitive cell.
 

 Routine SETGRP: Setting up the symmetry group for a 
 face centered cubic supercell.


 Subroutine GETGRP returns: Found 24 space group operations
 (whereof 24 operations were pure point group operations)
 out of a pool of 48 trial point group operations.


The static configuration has the point symmetry T_d .


Analysis of symmetry for dynamics (positions and initial velocities):
=====================================================================
 Subroutine PRICEL returns:
 Original cell was already a primitive cell.
 

 Routine SETGRP: Setting up the symmetry group for a 
 face centered cubic supercell.


 Subroutine GETGRP returns: Found 24 space group operations
 (whereof 24 operations were pure point group operations)
 out of a pool of 48 trial point group operations.


The dynamic configuration has the point symmetry T_d .


 Subroutine INISYM returns: Found 24 space group operations
 (whereof 24 operations are pure point group operations),
 and found     1 'primitive' translations


----------------------------------------------------------------------------------------

                                     Primitive cell                                     

  volume of cell :      51.4480

  direct lattice vectors                    reciprocal lattice vectors
     3.615417997  0.000000000  2.087362539     0.276593191 -0.097790437  0.000000000
     1.205138999  3.408648637  2.087362538     0.000000000  0.293371393  0.000000000
     0.000000000  0.000000000  4.174725070    -0.138296596 -0.097790478  0.239536732

  length of vectors
     4.174725100  4.174724890  4.174725070     0.293371374  0.293371393  0.293371389

  position of ions in fractional coordinates (direct lattice)
     0.000000000  0.000000000  0.000000000
     0.250000000  0.250000000  0.250000000

  ion indices of the primitive-cell ions
   primitive index   ion index
                 1           1
                 2           2

----------------------------------------------------------------------------------------

 
 
 KPOINTS: pymatgen with grid density = 617 / numbe

Automatic generation of k-mesh.
 Grid dimensions read from file:
 generate k-points for:    6    6    6

 Generating k-lattice:

  Cartesian coordinates                     Fractional coordinates (reciprocal lattice)
     0.046098865 -0.016298406  0.000000000     0.166666667 -0.000000000  0.000000000
     0.000000000  0.048895232  0.000000000     0.000000000  0.166666667  0.000000000
    -0.023049433 -0.016298413  0.039922789     0.000000000 -0.000000000  0.166666667

  Length of vectors
     0.048895229  0.048895232  0.048895232

  Shift w.r.t. Gamma in fractional coordinates (k-lattice)
     0.000000000  0.000000000  0.000000000

 TETIRR: Found     35 inequivalent tetrahedra from     1296
 
 Subroutine IBZKPT returns following result:
 ===========================================
 
 Found     16 irreducible k-points:
 
 Following reciprocal coordinates:
            Coordinates               Weight
  0.000000  0.000000  0.000000      1.000000
  0.166667 -0.000000  0.000000      8.000000
  0.333333  0.000000  0.000000      8.000000
  0.500000 -0.000000  0.000000      4.000000
  0.166667  0.166667  0.000000      6.000000
  0.333333  0.166667  0.000000     24.000000
  0.500000  0.166667  0.000000     24.000000
 -0.333333  0.166667  0.000000     24.000000
 -0.166667  0.166667  0.000000     12.000000
  0.333333  0.333333  0.000000      6.000000
  0.500000  0.333333  0.000000     24.000000
 -0.333333  0.333333  0.000000     12.000000
  0.500000  0.500000  0.000000      3.000000
  0.500000  0.333333  0.166667     24.000000
 -0.333333  0.333333  0.166667     24.000000
 -0.333333  0.500000  0.166667     12.000000
 
 Following cartesian coordinates:
            Coordinates               Weight
  0.000000  0.000000  0.000000      1.000000
  0.046099 -0.016298  0.000000      8.000000
  0.092198 -0.032597  0.000000      8.000000
  0.138297 -0.048895  0.000000      4.000000
  0.046099  0.032597  0.000000      6.000000
  0.092198  0.016298  0.000000     24.000000
  0.138297  0.000000  0.000000     24.000000
 -0.092198  0.081492  0.000000     24.000000
 -0.046099  0.065194  0.000000     12.000000
  0.092198  0.065194  0.000000      6.000000
  0.138297  0.048895  0.000000     24.000000
 -0.092198  0.130387  0.000000     12.000000
  0.138297  0.097790  0.000000      3.000000
  0.115247  0.032597  0.039923     24.000000
 -0.115247  0.114089  0.039923     24.000000
 -0.115247  0.162984  0.039923     12.000000
 
 
 Subroutine IBZKPT_HF returns following result:
 ==============================================
 
 Found    216 k-points in 1st BZ
 the following    216 k-points will be used (e.g. in the exchange kernel)
 Following reciprocal coordinates:   # in IRBZ
  0.000000  0.000000  0.000000    0.00462963   1 t-inv F
  0.166667 -0.000000  0.000000    0.00462963   2 t-inv F
  0.333333  0.000000  0.000000    0.00462963   3 t-inv F
  0.500000 -0.000000  0.000000    0.00462963   4 t-inv F
  0.166667  0.166667  0.000000    0.00462963   5 t-inv F
  0.333333  0.166667  0.000000    0.00462963   6 t-inv F
  0.500000  0.166667  0.000000    0.00462963   7 t-inv F
 -0.333333  0.166667  0.000000    0.00462963   8 t-inv F
 -0.166667  0.166667  0.000000    0.00462963   9 t-inv F
  0.333333  0.333333  0.000000    0.00462963  10 t-inv F
  0.500000  0.333333  0.000000    0.00462963  11 t-inv F
 -0.333333  0.333333  0.000000    0.00462963  12 t-inv F
  0.500000  0.500000  0.000000    0.00462963  13 t-inv F
  0.500000  0.333333  0.166667    0.00462963  14 t-inv F
 -0.333333  0.333333  0.166667    0.00462963  15 t-inv F
 -0.333333  0.500000  0.166667    0.00462963  16 t-inv F
  0.000000  0.166667 -0.000000    0.00462963   2 t-inv F
 -0.000000  0.000000  0.166667    0.00462963   2 t-inv F
 -0.166667 -0.166667 -0.166667    0.00462963   2 t-inv F
  0.000000  0.333333  0.000000    0.00462963   3 t-inv F
  0.000000  0.000000  0.333333    0.00462963   3 t-inv F
 -0.333333 -0.333333 -0.333333    0.00462963   3 t-inv F
  0.000000  0.500000 -0.000000    0.00462963   4 t-inv F
 -0.000000  0.000000  0.500000    0.00462963   4 t-inv F
 -0.500000 -0.500000 -0.500000    0.00462963   4 t-inv F
  0.000000  0.166667  0.166667    0.00462963   5 t-inv F
  0.166667  0.000000  0.166667    0.00462963   5 t-inv F
 -0.166667 -0.166667  0.000000    0.00462963   5 t-inv F
 -0.166667  0.000000 -0.166667    0.00462963   5 t-inv F
  0.000000 -0.166667 -0.166667    0.00462963   5 t-inv F
  0.000000  0.333333  0.166667    0.00462963   6 t-inv F
  0.166667  0.000000  0.333333    0.00462963   6 t-inv F
 -0.166667 -0.166667  0.166667    0.00462963   6 t-inv F
 -0.333333 -0.166667 -0.333333    0.00462963   6 t-inv F
  0.166667  0.333333  0.000000    0.00462963   6 t-inv F
  0.166667 -0.166667 -0.166667    0.00462963   6 t-inv F
 -0.333333 -0.333333 -0.166667    0.00462963   6 t-inv F
  0.000000  0.166667  0.333333    0.00462963   6 t-inv F
 -0.166667  0.166667 -0.166667    0.00462963   6 t-inv F
 -0.166667 -0.333333 -0.333333    0.00462963   6 t-inv F
  0.333333  0.000000  0.166667    0.00462963   6 t-inv F
  0.000000  0.500000  0.166667    0.00462963   7 t-inv F
  0.166667  0.000000  0.500000    0.00462963   7 t-inv F
 -0.166667 -0.166667  0.333333    0.00462963   7 t-inv F
 -0.500000 -0.333333 -0.500000    0.00462963   7 t-inv F
  0.166667  0.500000  0.000000    0.00462963   7 t-inv F
  0.333333 -0.166667 -0.166667    0.00462963   7 t-inv F
 -0.500000 -0.500000 -0.333333    0.00462963   7 t-inv F
  0.000000  0.166667  0.500000    0.00462963   7 t-inv F
 -0.166667  0.333333 -0.166667    0.00462963   7 t-inv F
 -0.333333 -0.500000 -0.500000    0.00462963   7 t-inv F
  0.500000  0.000000  0.166667    0.00462963   7 t-inv F
  0.000000 -0.333333  0.166667    0.00462963   8 t-inv F
  0.166667  0.000000 -0.333333    0.00462963   8 t-inv F
 -0.166667 -0.166667 -0.500000    0.00462963   8 t-inv F
  0.333333  0.500000  0.333333    0.00462963   8 t-inv F
  0.166667 -0.333333  0.000000    0.00462963   8 t-inv F
 -0.500000 -0.166667 -0.166667    0.00462963   8 t-inv F
  0.333333  0.333333  0.500000    0.00462963   8 t-inv F
  0.000000  0.166667 -0.333333    0.00462963   8 t-inv F
 -0.166667 -0.500000 -0.166667    0.00462963   8 t-inv F
  0.500000  0.333333  0.333333    0.00462963   8 t-inv F
 -0.333333  0.000000  0.166667    0.00462963   8 t-inv F
  0.000000 -0.166667  0.166667    0.00462963   9 t-inv F
  0.166667  0.000000 -0.166667    0.00462963   9 t-inv F
 -0.166667 -0.166667 -0.333333    0.00462963   9 t-inv F
  0.166667  0.333333  0.166667    0.00462963   9 t-inv F
  0.166667 -0.166667  0.000000    0.00462963   9 t-inv F
 -0.333333 -0.166667 -0.166667    0.00462963   9 t-inv F
  0.166667  0.166667  0.333333    0.00462963   9 t-inv F
  0.000000  0.166667 -0.166667    0.00462963   9 t-inv F
 -0.166667 -0.333333 -0.166667    0.00462963   9 t-inv F
  0.333333  0.166667  0.166667    0.00462963   9 t-inv F
 -0.166667  0.000000  0.166667    0.00462963   9 t-inv F
  0.000000  0.333333  0.333333    0.00462963  10 t-inv F
  0.333333  0.000000  0.333333    0.00462963  10 t-inv F
 -0.333333 -0.333333  0.000000    0.00462963  10 t-inv F
 -0.333333 -0.000000 -0.333333    0.00462963  10 t-inv F
  0.000000 -0.333333 -0.333333    0.00462963  10 t-inv F
  0.000000  0.500000  0.333333    0.00462963  11 t-inv F
  0.333333  0.000000  0.500000    0.00462963  11 t-inv F
 -0.333333 -0.333333  0.166667    0.00462963  11 t-inv F
 -0.500000 -0.166667 -0.500000    0.00462963  11 t-inv F
  0.333333  0.500000  0.000000    0.00462963  11 t-inv F
  0.166667 -0.333333 -0.333333    0.00462963  11 t-inv F
 -0.500000 -0.500000 -0.166667    0.00462963  11 t-inv F
  0.000000  0.333333  0.500000    0.00462963  11 t-inv F
 -0.333333  0.166667 -0.333333    0.00462963  11 t-inv F
 -0.166667 -0.500000 -0.500000    0.00462963  11 t-inv F
  0.500000  0.000000  0.333333    0.00462963  11 t-inv F
  0.000000 -0.333333  0.333333    0.00462963  12 t-inv F
  0.333333  0.000000 -0.333333    0.00462963  12 t-inv F
 -0.333333 -0.333333 -0.666667    0.00462963  12 t-inv F
  0.333333  0.666667  0.333333    0.00462963  12 t-inv F
  0.333333 -0.333333  0.000000    0.00462963  12 t-inv F
 -0.666667 -0.333333 -0.333333    0.00462963  12 t-inv F
  0.333333  0.333333  0.666667    0.00462963  12 t-inv F
  0.000000  0.333333 -0.333333    0.00462963  12 t-inv F
 -0.333333 -0.666667 -0.333333    0.00462963  12 t-inv F
  0.666667  0.333333  0.333333    0.00462963  12 t-inv F
 -0.333333  0.000000  0.333333    0.00462963  12 t-inv F
  0.000000  0.500000  0.500000    0.00462963  13 t-inv F
  0.500000  0.000000  0.500000    0.00462963  13 t-inv F
  0.166667  0.500000  0.333333    0.00462963  14 t-inv F
  0.333333  0.166667  0.500000    0.00462963  14 t-inv F
 -0.333333 -0.166667  0.166667    0.00462963  14 t-inv F
 -0.500000 -0.166667 -0.333333    0.00462963  14 t-inv F
 -0.166667  0.333333  0.166667    0.00462963  14 t-inv F
  0.166667  0.333333 -0.166667    0.00462963  14 t-inv F
  0.166667 -0.166667 -0.333333    0.00462963  14 t-inv F
 -0.333333 -0.166667 -0.500000    0.00462963  14 t-inv F
 -0.333333 -0.500000 -0.166667    0.00462963  14 t-inv F
  0.166667 -0.166667  0.333333    0.00462963  14 t-inv F
  0.166667 -0.333333 -0.166667    0.00462963  14 t-inv F
 -0.166667  0.166667  0.333333    0.00462963  14 t-inv F
 -0.333333  0.166667 -0.166667    0.00462963  14 t-inv F
 -0.500000 -0.333333 -0.166667    0.00462963  14 t-inv F
 -0.166667 -0.333333 -0.500000    0.00462963  14 t-inv F
  0.333333  0.166667 -0.166667    0.00462963  14 t-inv F
 -0.166667  0.166667 -0.333333    0.00462963  14 t-inv F
  0.333333 -0.166667  0.166667    0.00462963  14 t-inv F
 -0.166667 -0.333333  0.166667    0.00462963  14 t-inv F
 -0.166667 -0.500000 -0.333333    0.00462963  14 t-inv F
  0.500000  0.166667  0.333333    0.00462963  14 t-inv F
  0.333333  0.500000  0.166667    0.00462963  14 t-inv F
  0.166667  0.333333  0.500000    0.00462963  14 t-inv F
  0.166667 -0.333333  0.333333    0.00462963  15 t-inv F
  0.333333  0.166667 -0.333333    0.00462963  15 t-inv F
 -0.333333 -0.166667 -0.666667    0.00462963  15 t-inv F
  0.333333  0.666667  0.500000    0.00462963  15 t-inv F
 -0.166667 -0.500000  0.166667    0.00462963  15 t-inv F
  0.166667 -0.500000 -0.166667    0.00462963  15 t-inv F
 -0.666667 -0.166667 -0.333333    0.00462963  15 t-inv F
  0.500000  0.666667  0.333333    0.00462963  15 t-inv F
  0.500000  0.333333  0.666667    0.00462963  15 t-inv F
  0.166667 -0.166667 -0.500000    0.00462963  15 t-inv F
 -0.666667 -0.333333 -0.166667    0.00462963  15 t-inv F
 -0.166667  0.166667 -0.500000    0.00462963  15 t-inv F
 -0.333333 -0.666667 -0.166667    0.00462963  15 t-inv F
  0.333333  0.500000  0.666667    0.00462963  15 t-inv F
  0.666667  0.500000  0.333333    0.00462963  15 t-inv F
 -0.500000  0.166667 -0.166667    0.00462963  15 t-inv F
 -0.166667 -0.666667 -0.333333    0.00462963  15 t-inv F
 -0.500000 -0.166667  0.166667    0.00462963  15 t-inv F
 -0.166667 -0.333333 -0.666667    0.00462963  15 t-inv F
  0.666667  0.333333  0.500000    0.00462963  15 t-inv F
 -0.333333  0.166667  0.333333    0.00462963  15 t-inv F
  0.333333 -0.333333  0.166667    0.00462963  15 t-inv F
  0.166667  0.333333 -0.333333    0.00462963  15 t-inv F
  0.166667 -0.333333  0.500000    0.00462963  16 t-inv F
  0.500000  0.166667 -0.333333    0.00462963  16 t-inv F
 -0.500000 -0.333333 -0.833333    0.00462963  16 t-inv F
  0.333333  0.833333  0.500000    0.00462963  16 t-inv F
 -0.166667 -0.500000  0.333333    0.00462963  16 t-inv F
  0.333333 -0.500000 -0.166667    0.00462963  16 t-inv F
  0.500000  0.833333  0.333333    0.00462963  16 t-inv F
  0.500000  0.333333  0.833333    0.00462963  16 t-inv F
 -0.833333 -0.500000 -0.333333    0.00462963  16 t-inv F
 -0.166667  0.333333 -0.500000    0.00462963  16 t-inv F
 -0.333333 -0.833333 -0.500000    0.00462963  16 t-inv F
 -0.166667  0.000000  0.000000    0.00462963   2 t-inv T
  0.000000 -0.166667  0.000000    0.00462963   2 t-inv T
  0.000000  0.000000 -0.166667    0.00462963   2 t-inv T
  0.166667  0.166667  0.166667    0.00462963   2 t-inv T
 -0.333333 -0.000000  0.000000    0.00462963   3 t-inv T
  0.000000 -0.333333 -0.000000    0.00462963   3 t-inv T
 -0.000000  0.000000 -0.333333    0.00462963   3 t-inv T
  0.333333  0.333333  0.333333    0.00462963   3 t-inv T
 -0.333333 -0.166667  0.000000    0.00462963   6 t-inv T
  0.000000 -0.333333 -0.166667    0.00462963   6 t-inv T
 -0.166667  0.000000 -0.333333    0.00462963   6 t-inv T
  0.166667  0.166667 -0.166667    0.00462963   6 t-inv T
  0.333333  0.166667  0.333333    0.00462963   6 t-inv T
 -0.166667 -0.333333  0.000000    0.00462963   6 t-inv T
 -0.166667  0.166667  0.166667    0.00462963   6 t-inv T
  0.333333  0.333333  0.166667    0.00462963   6 t-inv T
  0.000000 -0.166667 -0.333333    0.00462963   6 t-inv T
  0.166667 -0.166667  0.166667    0.00462963   6 t-inv T
  0.166667  0.333333  0.333333    0.00462963   6 t-inv T
 -0.333333  0.000000 -0.166667    0.00462963   6 t-inv T
 -0.500000 -0.166667  0.000000    0.00462963   7 t-inv T
  0.000000 -0.500000 -0.166667    0.00462963   7 t-inv T
 -0.166667  0.000000 -0.500000    0.00462963   7 t-inv T
  0.166667  0.166667 -0.333333    0.00462963   7 t-inv T
  0.500000  0.333333  0.500000    0.00462963   7 t-inv T
 -0.166667 -0.500000  0.000000    0.00462963   7 t-inv T
 -0.333333  0.166667  0.166667    0.00462963   7 t-inv T
  0.500000  0.500000  0.333333    0.00462963   7 t-inv T
  0.000000 -0.166667 -0.500000    0.00462963   7 t-inv T
  0.166667 -0.333333  0.166667    0.00462963   7 t-inv T
  0.333333  0.500000  0.500000    0.00462963   7 t-inv T
 -0.500000  0.000000 -0.166667    0.00462963   7 t-inv T
  0.333333 -0.166667  0.000000    0.00462963   8 t-inv T
  0.000000  0.333333 -0.166667    0.00462963   8 t-inv T
 -0.166667  0.000000  0.333333    0.00462963   8 t-inv T
  0.166667  0.166667  0.500000    0.00462963   8 t-inv T
 -0.333333 -0.500000 -0.333333    0.00462963   8 t-inv T
 -0.166667  0.333333  0.000000    0.00462963   8 t-inv T
  0.500000  0.166667  0.166667    0.00462963   8 t-inv T
 -0.333333 -0.333333 -0.500000    0.00462963   8 t-inv T
  0.000000 -0.166667  0.333333    0.00462963   8 t-inv T
  0.166667  0.500000  0.166667    0.00462963   8 t-inv T
 -0.500000 -0.333333 -0.333333    0.00462963   8 t-inv T
  0.333333  0.000000 -0.166667    0.00462963   8 t-inv T
 -0.500000 -0.333333  0.000000    0.00462963  11 t-inv T
  0.000000 -0.500000 -0.333333    0.00462963  11 t-inv T
 -0.333333  0.000000 -0.500000    0.00462963  11 t-inv T
  0.333333  0.333333 -0.166667    0.00462963  11 t-inv T
  0.500000  0.166667  0.500000    0.00462963  11 t-inv T
 -0.333333 -0.500000  0.000000    0.00462963  11 t-inv T
 -0.166667  0.333333  0.333333    0.00462963  11 t-inv T
  0.500000  0.500000  0.166667    0.00462963  11 t-inv T
  0.000000 -0.333333 -0.500000    0.00462963  11 t-inv T
  0.333333 -0.166667  0.333333    0.00462963  11 t-inv T
  0.166667  0.500000  0.500000    0.00462963  11 t-inv T
 -0.500000  0.000000 -0.333333    0.00462963  11 t-inv T
 -----------------------------------------------------------------------------
|                                                                             |
|           W    W    AA    RRRRR   N    N  II  N    N   GGGG   !!!           |
|           W    W   A  A   R    R  NN   N  II  NN   N  G    G  !!!           |
|           W    W  A    A  R    R  N N  N  II  N N  N  G       !!!           |
|           W WW W  AAAAAA  RRRRR   N  N N  II  N  N N  G  GGG   !            |
|           WW  WW  A    A  R   R   N   NN  II  N   NN  G    G                |
|           W    W  A    A  R    R  N    N  II  N    N   GGGG   !!!           |
|                                                                             |
|     The number of bands has been changed from the values supplied in        |
|     the INCAR file. This is a result of running the parallel version.       |
|     The orbitals not found in the WAVECAR file will be initialized with     |
|     random numbers, which is usually adequate. For correlated               |
|     calculations, however, you should redo the groundstate calculation.     |
|     I found NBANDS = 29. Now, NBANDS = 36.                                  |
|                                                                             |
 -----------------------------------------------------------------------------



--------------------------------------------------------------------------------------------------------




 Dimension of arrays:
   k-points           NKPTS =     16   k-points in BZ     NKDIM =    216   number of bands    NBANDS=     36
   number of dos      NEDOS =   2069   number of ions     NIONS =      2
   non local maximal  LDIM  =      6   non local SUM 2l+1 LMDIM =     18
   total plane-waves  NPLWV =  46656
   max r-space proj   IRMAX =      1   max aug-charges    IRDMAX=  39366
   dimension x,y,z NGX =    36 NGY =   36 NGZ =   36
   dimension x,y,z NGXF=    72 NGYF=   72 NGZF=   72
   support grid    NGXF=    72 NGYF=   72 NGZF=   72
   ions per type =               1   1
   NGX,Y,Z   is equivalent  to a cutoff of  14.34, 14.34, 14.34 a.u.
   NGXF,Y,Z  is equivalent  to a cutoff of  28.67, 28.67, 28.67 a.u.

 SYSTEM =  unknown system                          
 POSCAR =  In1 P1                                  

 Startparameter for this run:
   NWRITE =      2    write-flag & timer
   PREC   = accura    normal or accurate (medium, high low for compatibility)
   ISTART =      0    job   : 0-new  1-cont  2-samecut
   ICHARG =      2    charge: 1-file 2-atom 10-const
   ISPIN  =      1    spin polarized calculation?
   LNONCOLLINEAR =      F non collinear calculations
   LSORBIT =      F    spin-orbit coupling
   INIWAV =      1    electr: 0-lowe 1-rand  2-diag
   LASPH  =      T    aspherical Exc in radial PAW
 Electronic Relaxation 1
   ENCUT  =  680.0 eV  49.98 Ry    7.07 a.u.   8.88  8.88  8.88*2*pi/ulx,y,z
   ENINI  =  680.0     initial cutoff
   ENAUG  = 1360.0 eV  augmentation charge cutoff
   NELM   =    200;   NELMIN=  5; NELMDL= -5     # of ELM steps 
   EDIFF  = 0.1E-04   stopping-criterion for ELM
   LREAL  =      F    real-space projection
   NLSPLINE    = F    spline interpolate recip. space projectors
   LCOMPAT=      F    compatible to vasp.4.4
   GGA_COMPAT  = T    GGA compatible to vasp.4.4-vasp.4.6
   LMAXPAW     = -100 max onsite density
   LMAXMIX     =    4 max onsite mixed and CHGCAR
   VOSKOWN=      0    Vosko Wilk Nusair interpolation
   ROPT   =    0.00000   0.00000
 Ionic relaxation
   EDIFFG = 0.1E-03   stopping-criterion for IOM
   NSW    =      0    number of steps for IOM
   NBLOCK =      1;   KBLOCK =      1    inner block; outer block 
   IBRION =     -1    ionic relax: 0-MD 1-quasi-New 2-CG
   NFREE  =      0    steps in history (QN), initial steepest desc. (CG)
   ISIF   =      0    stress and relaxation
   IWAVPR =     10    prediction:  0-non 1-charg 2-wave 3-comb
   ISYM   =      3    0-nonsym 1-usesym 2-fastsym
   LCORR  =      T    Harris-Foulkes like correction to forces

   POTIM  = 0.5000    time-step for ionic-motion
   TEIN   =    0.0    initial temperature
   TEBEG  =    0.0;   TEEND  =   0.0 temperature during run
   SMASS  =  -3.00    Nose mass-parameter (am)
   estimated Nose-frequenzy (Omega)   =  0.10E-29 period in steps = 0.13E+47 mass=  -0.398E-27a.u.
   SCALEE = 1.0000    scale energy and forces
   NPACO  =    256;   APACO  = 10.0  distance and # of slots for P.C.
   PSTRESS=    0.0 pullay stress

  Mass of Ions in am
   POMASS = 114.82 30.97
  Ionic Valenz
   ZVAL   =  13.00  5.00
  Atomic Wigner-Seitz radii
   RWIGS  =  -1.00 -1.00
  virtual crystal weights 
   VCA    =   1.00  1.00
   NELECT =      18.0000    total number of electrons
   NUPDOWN=      -1.0000    fix difference up-down

 DOS related values:
   EMIN   =  10.00;   EMAX   =-10.00  energy-range for DOS
   EFERMI =   0.00;   METHOD = LEGACY      
   ISMEAR =    -5;   SIGMA  =   0.05  broadening in eV -4-tet -1-fermi 0-gaus

 Electronic relaxation 2 (details)
   IALGO  =     38    algorithm
   LDIAG  =      T    sub-space diagonalisation (order eigenvalues)
   LSUBROT=      F    optimize rotation matrix (better conditioning)
   TURBO    =      0    0=normal 1=particle mesh
   IRESTART =      0    0=no restart 2=restart with 2 vectors
   NREBOOT  =      0    no. of reboots
   NMIN     =      0    reboot dimension
   EREF     =   0.00    reference energy to select bands
   IMIX   =      1    mixing-type and parameters
     AMIX     =   0.40;   BMIX     =  1.00
     AMIX_MAG =   1.60;   BMIX_MAG =  1.00
     AMIN     =   0.10
     WC   =   100.;   INIMIX=   1;  MIXPRE=   1;  MAXMIX= -45

 Intra band minimization:
   WEIMIN = 0.0000     energy-eigenvalue tresh-hold
   EBREAK =  0.69E-07  absolut break condition
   DEPER  =   0.30     relativ break condition  

   TIME   =   0.40     timestep for ELM

  volume/ion in A,a.u.               =      25.72       173.59
  Fermi-wavevector in a.u.,A,eV,Ry     =   1.153567  2.179925 18.105499  1.330717
  Thomas-Fermi vector in A             =   2.290210
 
 Write flags
   LWAVE        =      T    write WAVECAR
   LDOWNSAMPLE  =      F    k-point downsampling of WAVECAR
   LCHARG       =      T    write CHGCAR
   LVTOT        =      T    write LOCPOT, total local potential
   LVHAR        =      F    write LOCPOT, Hartree potential only
   LELF         =      F    write electronic localiz. function (ELF)
   LORBIT       =     11    0 simple, 1 ext, 2 COOP (PROOUT), +10 PAW based schemes


 Dipole corrections
   LMONO  =      F    monopole corrections only (constant potential shift)
   LDIPOL =      F    correct potential (dipole corrections)
   IDIPOL =      0    1-x, 2-y, 3-z, 4-all directions 
   EPSILON=  1.0000000 bulk dielectric constant

 Exchange correlation treatment:
   GGA     =    PE    GGA type
   LEXCH   =     8    internal setting for exchange type
   LIBXC   =     F    Libxc                    
   VOSKOWN =     0    Vosko Wilk Nusair interpolation
   EXXOEP  =     0    0=HF, 1=EXX-LHF (local Hartree Fock) 2=EXX OEP
   LHFCALC =     T    Hartree Fock is set to
   LSYMGRAD=     F    symmetrize gradient (conserves proper symmetry)
   PRECFOCK=fast      Normal, Fast or Accurate (Low or Medium for compatibility)
   LRHFCALC=     F    long range Hartree Fock
   LRSCOR  =     F    long range correlation only (use DFT for short range part)
   LTHOMAS =     F    Thomas Fermi screening in HF
   LMODELHF=     F    short range full HF, long range fraction AEXX
   FOCKCORR=     1    mode to apply convergence corrections
   LFOCKACE=     T    use Adeptively-Compressed-Exchange operator
   ENCUT4O =  -1.0   cutoff for four orbital integrals eV
   LMAXFOCK=     4    L truncation for augmentation on plane wave grid
   LMAXFOCKAE=  -1    L truncation for all-electron charge restoration on plane wave grid
   NMAXFOCKAE=   1    number of basis functions for all-electron charge restoration
   LFOCKAEDFT=     F  apply the AE augmentation even for DFT
   NKREDX  =     1    reduce k-point grid by
   NKREDY  =     1    reduce k-point grid by
   NKREDZ  =     1    reduce k-point grid by
   SHIFTRED=     F    shift reduced grid of Gamma
   HFKIDENT=     F    idential grid for each k-point
   ODDONLY =     F    use only odd q-grid points
   EVENONLY=     F    use only even q-grid points
   HFALPHA =   -1.0000 decay constant for conv. correction
   MCALPHA =    0.0000 extent of test-charge in conv. correction in multipole expansion
   AEXX    =    0.2500 exact exchange contribution
   HFSCREEN=    0.2000 screening length (either q_TF or 0.3 A-1)
   HFSCREENC=   0.2000 screening length for correlation (either q_TF or 0.3 A-1)
   HFRCUT  =    0.0000 spherical cutoff for potential kernel
   ALDAX   =    0.7500 LDA exchange part
   AGGAX   =    0.7500 GGA exchange part
   ALDAC   =    1.0000 LDA correlation
   AGGAC   =    1.0000 GGA correlation
   ENCUTFOCK=  -1.0 apply spherical cutoff to Coloumb kernel
   NBANDSGWLOW=     1    first orbital included in HF term
   NBLOCK_FOCK=    64    blocking factor in FOCK_ACC

 Linear response parameters
   LEPSILON=     F    determine dielectric tensor
   LRPA    =     F    only Hartree local field effects (RPA)
   LNABLA  =     F    use nabla operator in PAW spheres
   LVEL    =     F    velocity operator in full k-point grid
   CSHIFT  =0.0000    complex shift for real part using Kramers Kronig
   OMEGAMAX=  -1.0    maximum frequency
   DEG_THRESHOLD= 0.2000000E-02 threshold for treating states as degnerate
   RTIME   =   -0.100 relaxation time in fs
  (WPLASMAI=    0.000 imaginary part of plasma frequency in eV, 0.658/RTIME)
   DFIELD  = 0.0000000 0.0000000 0.0000000 field for delta impulse in time
 
  Optional k-point grid parameters
   LKPOINTS_OPT  =     F    use optional k-point grid
   KPOINTS_OPT_MODE=     1    mode for optional k-point grid
 
 Orbital magnetization related:
   ORBITALMAG=     F  switch on orbital magnetization
   LCHIMAG   =     F  perturbation theory with respect to B field
   DQ        =  0.001000  dq finite difference perturbation B field
   LLRAUG    =     F  two centre corrections for induced B field
   LBONE     =     F  B-component reconstruction in AE one-centre
   LVGVCALC  =     T  calculate vGv susceptibility
   LVGVAPPL  =     F  apply vGv susceptibility instead of pGv for G=0

 Random number generation:
   RANDOM_GENERATOR = DEFAULT
   PCG_SEED         = not used


--------------------------------------------------------------------------------------------------------


 Static calculation
 charge density and potential will be updated during run
 non-spin polarized calculation
 Variant of blocked Davidson
 Davidson routine will perform the subspace rotation
 perform sub-space diagonalisation
    after iterative eigenvector-optimisation
 Kerker-like  mixing scheme
 using additional bands           27
 reciprocal scheme for non local part
 use partial core corrections
 calculate Harris-corrections to forces 
   (improved forces if not selfconsistent)
 use gradient corrections 
 use of overlap-Matrix (Vanderbilt PP)
 Fermi weights with tetrahedron method with Bloechl corrections


--------------------------------------------------------------------------------------------------------


  energy-cutoff  :      680.00
  volume of cell :       51.45
      direct lattice vectors                 reciprocal lattice vectors
     3.615417997  0.000000000  2.087362539     0.276593191 -0.097790437  0.000000000
     1.205138999  3.408648637  2.087362538     0.000000000  0.293371393  0.000000000
     0.000000000  0.000000000  4.174725070    -0.138296596 -0.097790478  0.239536732

  length of vectors
     4.174725100  4.174724890  4.174725070     0.293371374  0.293371393  0.293371389


 
 k-points in units of 2pi/SCALE and weight: pymatgen with grid density = 617 / numbe
   0.00000000  0.00000000  0.00000000       0.005
   0.04609887 -0.01629841  0.00000000       0.037
   0.09219773 -0.03259681  0.00000000       0.037
   0.13829660 -0.04889522  0.00000000       0.019
   0.04609887  0.03259683  0.00000000       0.028
   0.09219773  0.01629842  0.00000000       0.111
   0.13829660  0.00000001  0.00000000       0.111
  -0.09219773  0.08149204  0.00000000       0.111
  -0.04609887  0.06519364  0.00000000       0.056
   0.09219773  0.06519365  0.00000000       0.028
   0.13829660  0.04889525  0.00000000       0.111
  -0.09219773  0.13038728  0.00000000       0.056
   0.13829660  0.09779048  0.00000000       0.014
   0.11524716  0.03259683  0.03992279       0.111
  -0.11524716  0.11408886  0.03992279       0.111
  -0.11524716  0.16298410  0.03992279       0.056
 
 k-points in reciprocal lattice and weights: pymatgen with grid density = 617 / numbe
   0.00000000  0.00000000  0.00000000       0.005
   0.16666667 -0.00000000  0.00000000       0.037
   0.33333333  0.00000000  0.00000000       0.037
   0.50000000 -0.00000000  0.00000000       0.019
   0.16666667  0.16666667  0.00000000       0.028
   0.33333333  0.16666667  0.00000000       0.111
   0.50000000  0.16666667  0.00000000       0.111
  -0.33333333  0.16666667  0.00000000       0.111
  -0.16666667  0.16666667  0.00000000       0.056
   0.33333333  0.33333333  0.00000000       0.028
   0.50000000  0.33333333  0.00000000       0.111
  -0.33333333  0.33333333  0.00000000       0.056
   0.50000000  0.50000000  0.00000000       0.014
   0.50000000  0.33333333  0.16666667       0.111
  -0.33333333  0.33333333  0.16666667       0.111
  -0.33333333  0.50000000  0.16666667       0.056
 
 position of ions in fractional coordinates (direct lattice) 
   0.00000000  0.00000000  0.00000000
   0.25000000  0.25000000  0.25000000
 
 position of ions in cartesian coordinates  (Angst):
   0.00000000  0.00000000  0.00000000
   1.20513925  0.85216216  2.08736254
 


--------------------------------------------------------------------------------------------------------


 k-point   1 :   0.0000 0.0000 0.0000  plane waves:    2085
 k-point   2 :   0.1667-0.0000 0.0000  plane waves:    2070
 k-point   3 :   0.3333 0.0000 0.0000  plane waves:    2054
 k-point   4 :   0.5000-0.0000 0.0000  plane waves:    2060
 k-point   5 :   0.1667 0.1667 0.0000  plane waves:    2061
 k-point   6 :   0.3333 0.1667 0.0000  plane waves:    2059
 k-point   7 :   0.5000 0.1667 0.0000  plane waves:    2070
 k-point   8 :  -0.3333 0.1667 0.0000  plane waves:    2071
 k-point   9 :  -0.1667 0.1667 0.0000  plane waves:    2071
 k-point  10 :   0.3333 0.3333 0.0000  plane waves:    2064
 k-point  11 :   0.5000 0.3333 0.0000  plane waves:    2074
 k-point  12 :  -0.3333 0.3333 0.0000  plane waves:    2079
 k-point  13 :   0.5000 0.5000 0.0000  plane waves:    2068
 k-point  14 :   0.5000 0.3333 0.1667  plane waves:    2071
 k-point  15 :  -0.3333 0.3333 0.1667  plane waves:    2072
 k-point  16 :  -0.3333 0.5000 0.1667  plane waves:    2090

 maximum and minimum number of plane-waves per node :       228      196

 maximum number of plane-waves:      2090
 maximum index in each direction: 
   IXMAX=    9   IYMAX=    8   IZMAX=    8
   IXMIN=   -9   IYMIN=   -9   IZMIN=   -9


 parallel 3D FFT for wavefunctions:
    minimum data exchange during FFTs selected (reduces bandwidth)
 parallel 3D FFT for charge:
    minimum data exchange during FFTs selected (reduces bandwidth)


 FFT grid for exact exchange (Hartree Fock) 
  NGX = 20; NGY = 20; NGZ = 20

 
 Radii for the augmentation spheres in the non-local exchange
 for species   1 augmentation radius   1.454 (default was   1.077)
       energy cutoff for augmentation   2720.0
 for species   2 augmentation radius   1.294 (default was   0.959)
       energy cutoff for augmentation   2720.0

 real space projection operators:
  total allocation   :        488.45 KBytes
  max/ min on nodes  :         54.30         43.98

 Maximum index for augmentation-charges in exchange          169
  SETUP_FOCK is finished

 total amount of memory used by VASP MPI-rank0    32483. kBytes
=======================================================================

   base      :      30000. kBytes
   nonl-proj :       1169. kBytes
   fftplans  :        396. kBytes
   grid      :        505. kBytes
   one-center:         15. kBytes
   HF        :         64. kBytes
   nonlr-proj:        123. kBytes
   wavefun   :        211. kBytes
 
     INWAV:  cpu time      0.0000: real time      0.0002
 initial charge density was supplied:
 charge density of overlapping atoms calculated
 number of electron      18.0000000 magnetization 
 keeping initial charge density in first step


--------------------------------------------------------------------------------------------------------


 Maximum index for augmentation-charges         1261 (set IRDMAX)


--------------------------------------------------------------------------------------------------------


 First call to EWALD:  gamma=   0.477
 Maximum number of real-space cells 3x 3x 3
 Maximum number of reciprocal cells 3x 3x 3

    FEWALD:  cpu time      0.0016: real time      0.0017


--------------------------------------- Ionic step        1  -------------------------------------------




--------------------------------------- Iteration      1(   1)  ---------------------------------------


    POTLOK:  cpu time      0.0157: real time      0.0173
    SETDIJ:  cpu time      0.1231: real time      0.1239
     EDDAV:  cpu time      0.2009: real time      0.2044
 BZINTS: Fermi energy:   11.997991;   18.000000 electrons
         Band energy: 0.372650E+02;  BLOECHL correction:   -0.184824
       DOS:  cpu time      0.0061: real time      0.0065
    --------------------------------------------
      LOOP:  cpu time      0.3458: real time      0.3522

 eigenvalue-minimisations  :  1200
 total energy-change (2. order) :-0.1000448E+04  (-0.8339311E+03)
 number of electron      18.0000000 magnetization 
 augmentation part       18.0000000 magnetization 

 Free energy of the ion-electron system (eV)
  ---------------------------------------------------
  alpha Z        PSCENC =        31.71721604
  Ewald energy   TEWEN  =     -1211.83925518
  -Hartree energ DENC   =      -558.38470678
  -exchange      EXHF   =         0.00000000
  -V(xc)+E(xc)   XCENC  =        45.01060177
  PAW double counting   =      1520.70025292    -2615.56294696
  entropy T*S    EENTRO =         0.00000000
  eigenvalues    EBANDS =        37.26495850
  atomic energy  EATOM  =      1750.64560241
  Solvation  Ediel_sol  =         0.00000000
  ---------------------------------------------------
  free energy    TOTEN  =     -1000.44827727 eV

  energy without entropy =    -1000.44827727  energy(sigma->0) =    -1000.44827727
  exchange ACFDT corr.  =         0.00000000  see jH, gK, PRB 81, 115126


--------------------------------------------------------------------------------------------------------




--------------------------------------- Iteration      1(   2)  ---------------------------------------


     EDDAV:  cpu time      0.1618: real time      0.1675
 BZINTS: Fermi energy:    4.291244;   18.000000 electrons
         Band energy:-0.114194E+03;  BLOECHL correction:    0.000000
       DOS:  cpu time      0.0027: real time      0.0027
    --------------------------------------------
      LOOP:  cpu time      0.1645: real time      0.1703

 eigenvalue-minimisations  :  1188
 total energy-change (2. order) :-0.1514592E+03  (-0.1391115E+03)
 number of electron      18.0000000 magnetization 
 augmentation part       18.0000000 magnetization 

 Free energy of the ion-electron system (eV)
  ---------------------------------------------------
  alpha Z        PSCENC =        31.71721604
  Ewald energy   TEWEN  =     -1211.83925518
  -Hartree energ DENC   =      -558.38470678
  -exchange      EXHF   =         0.00000000
  -V(xc)+E(xc)   XCENC  =        45.01060177
  PAW double counting   =      1520.70025292    -2615.56294696
  entropy T*S    EENTRO =         0.00000000
  eigenvalues    EBANDS =      -114.19423758
  atomic energy  EATOM  =      1750.64560241
  Solvation  Ediel_sol  =         0.00000000
  ---------------------------------------------------
  free energy    TOTEN  =     -1151.90747336 eV

  energy without entropy =    -1151.90747336  energy(sigma->0) =    -1151.90747336
  exchange ACFDT corr.  =         0.00000000  see jH, gK, PRB 81, 115126


--------------------------------------------------------------------------------------------------------




--------------------------------------- Iteration      1(   3)  ---------------------------------------


     EDDAV:  cpu time      0.1820: real time      0.1971
 BZINTS: Fermi energy:    3.513839;   18.000000 electrons
         Band energy:-0.129633E+03;  BLOECHL correction:    0.000000
       DOS:  cpu time      0.0026: real time      0.0026
    --------------------------------------------
      LOOP:  cpu time      0.1846: real time      0.1997

 eigenvalue-minimisations  :  1464
 total energy-change (2. order) :-0.1543836E+02  (-0.1530471E+02)
 number of electron      18.0000000 magnetization 
 augmentation part       18.0000000 magnetization 

 Free energy of the ion-electron system (eV)
  ---------------------------------------------------
  alpha Z        PSCENC =        31.71721604
  Ewald energy   TEWEN  =     -1211.83925518
  -Hartree energ DENC   =      -558.38470678
  -exchange      EXHF   =         0.00000000
  -V(xc)+E(xc)   XCENC  =        45.01060177
  PAW double counting   =      1520.70025292    -2615.56294696
  entropy T*S    EENTRO =         0.00000000
  eigenvalues    EBANDS =      -129.63260256
  atomic energy  EATOM  =      1750.64560241
  Solvation  Ediel_sol  =         0.00000000
  ---------------------------------------------------
  free energy    TOTEN  =     -1167.34583834 eV

  energy without entropy =    -1167.34583834  energy(sigma->0) =    -1167.34583834
  exchange ACFDT corr.  =         0.00000000  see jH, gK, PRB 81, 115126


--------------------------------------------------------------------------------------------------------




--------------------------------------- Iteration      1(   4)  ---------------------------------------


     EDDAV:  cpu time      0.1743: real time      0.1905
 BZINTS: Fermi energy:    3.482106;   18.000000 electrons
         Band energy:-0.129976E+03;  BLOECHL correction:    0.000000
       DOS:  cpu time      0.0026: real time      0.0026
    --------------------------------------------
      LOOP:  cpu time      0.1769: real time      0.1931

 eigenvalue-minimisations  :  1404
 total energy-change (2. order) :-0.3435558E+00  (-0.3434231E+00)
 number of electron      18.0000000 magnetization 
 augmentation part       18.0000000 magnetization 

 Free energy of the ion-electron system (eV)
  ---------------------------------------------------
  alpha Z        PSCENC =        31.71721604
  Ewald energy   TEWEN  =     -1211.83925518
  -Hartree energ DENC   =      -558.38470678
  -exchange      EXHF   =         0.00000000
  -V(xc)+E(xc)   XCENC  =        45.01060177
  PAW double counting   =      1520.70025292    -2615.56294696
  entropy T*S    EENTRO =         0.00000000
  eigenvalues    EBANDS =      -129.97615838
  atomic energy  EATOM  =      1750.64560241
  Solvation  Ediel_sol  =         0.00000000
  ---------------------------------------------------
  free energy    TOTEN  =     -1167.68939416 eV

  energy without entropy =    -1167.68939416  energy(sigma->0) =    -1167.68939416
  exchange ACFDT corr.  =         0.00000000  see jH, gK, PRB 81, 115126


--------------------------------------------------------------------------------------------------------




--------------------------------------- Iteration      1(   5)  ---------------------------------------


    POTLOK:  cpu time      0.0107: real time      0.0243
    SETDIJ:  cpu time      0.3417: real time      0.3425
     EDDAV:  cpu time     11.7045: real time     11.7350
 BZINTS: Fermi energy:    3.563493;   18.000000 electrons
         Band energy:-0.116392E+03;  BLOECHL correction:    0.000000
       DOS:  cpu time      0.0029: real time      0.0030
    CHARGE:  cpu time      0.0236: real time      0.0238
    MIXING:  cpu time      0.0008: real time      0.0008
    --------------------------------------------
      LOOP:  cpu time     12.0841: real time     12.1294

 eigenvalue-minimisations  :  1500
 total energy-change (2. order) : 0.1157210E+04  (-0.5106820E+00)
 number of electron      17.9999999 magnetization 
 augmentation part        6.5773659 magnetization 

 Free energy of the ion-electron system (eV)
  ---------------------------------------------------
  alpha Z        PSCENC =        31.71721604
  Ewald energy   TEWEN  =     -1211.83925518
  -Hartree energ DENC   =      -558.38470678
  -exchange      EXHF   =        39.54137010
  -V(xc)+E(xc)   XCENC  =        33.84104324
  PAW double counting   =      1531.15589149    -1510.76466600
  entropy T*S    EENTRO =         0.00000000
  eigenvalues    EBANDS =      -116.39204777
  atomic energy  EATOM  =      1750.64560241
  Solvation  Ediel_sol  =         0.00000000
  ---------------------------------------------------
  free energy    TOTEN  =       -10.47955247 eV

  energy without entropy =      -10.47955247  energy(sigma->0) =      -10.47955247
  exchange ACFDT corr.  =         0.00000000  see jH, gK, PRB 81, 115126


--------------------------------------------------------------------------------------------------------




--------------------------------------- Iteration      1(   6)  ---------------------------------------


    POTLOK:  cpu time      0.0102: real time      0.0241
    SETDIJ:  cpu time      0.3373: real time      0.3381
     EDDAV:  cpu time     11.1463: real time     11.1743
 BZINTS: Fermi energy:    4.139859;   18.000000 electrons
         Band energy:-0.117004E+03;  BLOECHL correction:    0.000000
       DOS:  cpu time      0.0027: real time      0.0029
    CHARGE:  cpu time      0.0209: real time      0.0210
    MIXING:  cpu time      0.0001: real time      0.0001
    --------------------------------------------
      LOOP:  cpu time     11.5176: real time     11.5605

 eigenvalue-minimisations  :  1596
 total energy-change (2. order) : 0.4509307E+00  (-0.7471232E-01)
 number of electron      17.9999998 magnetization 
 augmentation part        6.5836969 magnetization 

 Free energy of the ion-electron system (eV)
  ---------------------------------------------------
  alpha Z        PSCENC =        31.71721604
  Ewald energy   TEWEN  =     -1211.83925518
  -Hartree energ DENC   =      -557.51935527
  -exchange      EXHF   =        38.83712238
  -V(xc)+E(xc)   XCENC  =        33.98452671
  PAW double counting   =      2047.90154908    -2026.75166325
  entropy T*S    EENTRO =         0.00000000
  eigenvalues    EBANDS =      -117.00436465
  atomic energy  EATOM  =      1750.64560241
  Solvation  Ediel_sol  =         0.00000000
  ---------------------------------------------------
  free energy    TOTEN  =       -10.02862172 eV

  energy without entropy =      -10.02862172  energy(sigma->0) =      -10.02862172
  exchange ACFDT corr.  =         0.00000000  see jH, gK, PRB 81, 115126


--------------------------------------------------------------------------------------------------------




--------------------------------------- Iteration      1(   7)  ---------------------------------------


    POTLOK:  cpu time      0.0127: real time      0.0232
    SETDIJ:  cpu time      0.3372: real time      0.3382
     EDDAV:  cpu time     11.8771: real time     11.9070
 BZINTS: Fermi energy:    4.447212;   18.000000 electrons
         Band energy:-0.117208E+03;  BLOECHL correction:    0.000000
       DOS:  cpu time      0.0028: real time      0.0028
    CHARGE:  cpu time      0.0223: real time      0.0223
    MIXING:  cpu time      0.0002: real time      0.0002
    --------------------------------------------
      LOOP:  cpu time     12.2523: real time     12.2938

 eigenvalue-minimisations  :  1740
 total energy-change (2. order) : 0.8579753E-02  (-0.2417552E-01)
 number of electron      17.9999998 magnetization 
 augmentation part        6.5918190 magnetization 

 Free energy of the ion-electron system (eV)
  ---------------------------------------------------
  alpha Z        PSCENC =        31.71721604
  Ewald energy   TEWEN  =     -1211.83925518
  -Hartree energ DENC   =      -557.04852447
  -exchange      EXHF   =        38.54410683
  -V(xc)+E(xc)   XCENC  =        34.03629201
  PAW double counting   =      2590.08871641    -2568.95632714
  entropy T*S    EENTRO =         0.00000000
  eigenvalues    EBANDS =      -117.20786888
  atomic energy  EATOM  =      1750.64560241
  Solvation  Ediel_sol  =         0.00000000
  ---------------------------------------------------
  free energy    TOTEN  =       -10.02004196 eV

  energy without entropy =      -10.02004196  energy(sigma->0) =      -10.02004196
  exchange ACFDT corr.  =         0.00000000  see jH, gK, PRB 81, 115126


--------------------------------------------------------------------------------------------------------




--------------------------------------- Iteration      1(   8)  ---------------------------------------


    POTLOK:  cpu time      0.0112: real time      0.0245
    SETDIJ:  cpu time      0.3376: real time      0.3384
     EDDAV:  cpu time     11.4478: real time     11.4767
 BZINTS: Fermi energy:    4.511987;   18.000000 electrons
         Band energy:-0.116833E+03;  BLOECHL correction:    0.000000
       DOS:  cpu time      0.0028: real time      0.0029
    CHARGE:  cpu time      0.0220: real time      0.0220
    MIXING:  cpu time      0.0001: real time      0.0001
    --------------------------------------------
      LOOP:  cpu time     11.8216: real time     11.8647

 eigenvalue-minimisations  :  1524
 total energy-change (2. order) :-0.5278713E-03  (-0.2029824E-02)
 number of electron      17.9999998 magnetization 
 augmentation part        6.5900044 magnetization 

 Free energy of the ion-electron system (eV)
  ---------------------------------------------------
  alpha Z        PSCENC =        31.71721604
  Ewald energy   TEWEN  =     -1211.83925518
  -Hartree energ DENC   =      -557.06202589
  -exchange      EXHF   =        38.42171263
  -V(xc)+E(xc)   XCENC  =        34.05631896
  PAW double counting   =      3018.60470359    -2997.73184711
  entropy T*S    EENTRO =         0.00000000
  eigenvalues    EBANDS =      -116.83299529
  atomic energy  EATOM  =      1750.64560241
  Solvation  Ediel_sol  =         0.00000000
  ---------------------------------------------------
  free energy    TOTEN  =       -10.02056983 eV

  energy without entropy =      -10.02056983  energy(sigma->0) =      -10.02056983
  exchange ACFDT corr.  =         0.00000000  see jH, gK, PRB 81, 115126


--------------------------------------------------------------------------------------------------------




--------------------------------------- Iteration      1(   9)  ---------------------------------------


    POTLOK:  cpu time      0.0120: real time      0.0258
    SETDIJ:  cpu time      0.3369: real time      0.3377
     EDDAV:  cpu time     11.3070: real time     11.3353
 BZINTS: Fermi energy:    4.529510;   18.000000 electrons
         Band energy:-0.116551E+03;  BLOECHL correction:    0.000000
       DOS:  cpu time      0.0028: real time      0.0028
    CHARGE:  cpu time      0.0211: real time      0.0212
    MIXING:  cpu time      0.0001: real time      0.0001
    --------------------------------------------
      LOOP:  cpu time     11.6799: real time     11.7229

 eigenvalue-minimisations  :  1656
 total energy-change (2. order) : 0.3571230E-02  (-0.1227321E-03)
 number of electron      17.9999998 magnetization 
 augmentation part        6.5882980 magnetization 

 Free energy of the ion-electron system (eV)
  ---------------------------------------------------
  alpha Z        PSCENC =        31.71721604
  Ewald energy   TEWEN  =     -1211.83925518
  -Hartree energ DENC   =      -557.10299318
  -exchange      EXHF   =        38.39066424
  -V(xc)+E(xc)   XCENC  =        34.06588500
  PAW double counting   =      3289.93623201    -3269.27907750
  entropy T*S    EENTRO =         0.00000000
  eigenvalues    EBANDS =      -116.55127244
  atomic energy  EATOM  =      1750.64560241
  Solvation  Ediel_sol  =         0.00000000
  ---------------------------------------------------
  free energy    TOTEN  =       -10.01699860 eV

  energy without entropy =      -10.01699860  energy(sigma->0) =      -10.01699860
  exchange ACFDT corr.  =         0.00000000  see jH, gK, PRB 81, 115126


--------------------------------------------------------------------------------------------------------




--------------------------------------- Iteration      1(  10)  ---------------------------------------


    POTLOK:  cpu time      0.0090: real time      0.0250
    SETDIJ:  cpu time      0.3359: real time      0.3368
     EDDAV:  cpu time     11.0792: real time     11.1070
 BZINTS: Fermi energy:    4.509176;   18.000000 electrons
         Band energy:-0.116449E+03;  BLOECHL correction:    0.000000
       DOS:  cpu time      0.0028: real time      0.0030
    CHARGE:  cpu time      0.0257: real time      0.0258
    MIXING:  cpu time      0.0001: real time      0.0001
    --------------------------------------------
      LOOP:  cpu time     11.4527: real time     11.4976

 eigenvalue-minimisations  :  1548
 total energy-change (2. order) : 0.9251832E-03  (-0.9669889E-04)
 number of electron      17.9999998 magnetization 
 augmentation part        6.5877581 magnetization 

 Free energy of the ion-electron system (eV)
  ---------------------------------------------------
  alpha Z        PSCENC =        31.71721604
  Ewald energy   TEWEN  =     -1211.83925518
  -Hartree energ DENC   =      -557.09131559
  -exchange      EXHF   =        38.38890656
  -V(xc)+E(xc)   XCENC  =        34.07165700
  PAW double counting   =      3451.62143807    -3431.08145275
  entropy T*S    EENTRO =         0.00000000
  eigenvalues    EBANDS =      -116.44886998
  atomic energy  EATOM  =      1750.64560241
  Solvation  Ediel_sol  =         0.00000000
  ---------------------------------------------------
  free energy    TOTEN  =       -10.01607342 eV

  energy without entropy =      -10.01607342  energy(sigma->0) =      -10.01607342
  exchange ACFDT corr.  =         0.00000000  see jH, gK, PRB 81, 115126


--------------------------------------------------------------------------------------------------------




--------------------------------------- Iteration      1(  11)  ---------------------------------------


    POTLOK:  cpu time      0.0136: real time      0.0260
    SETDIJ:  cpu time      0.3369: real time      0.3377
     EDDAV:  cpu time     11.4991: real time     11.5281
 BZINTS: Fermi energy:    4.510979;   18.000000 electrons
         Band energy:-0.116411E+03;  BLOECHL correction:    0.000000
       DOS:  cpu time      0.0028: real time      0.0028
    CHARGE:  cpu time      0.0206: real time      0.0206
    MIXING:  cpu time      0.0001: real time      0.0001
    --------------------------------------------
      LOOP:  cpu time     11.8731: real time     11.9153

 eigenvalue-minimisations  :  1536
 total energy-change (2. order) : 0.1124521E-03  (-0.2527212E-04)
 number of electron      17.9999998 magnetization 
 augmentation part        6.5877999 magnetization 

 Free energy of the ion-electron system (eV)
  ---------------------------------------------------
  alpha Z        PSCENC =        31.71721604
  Ewald energy   TEWEN  =     -1211.83925518
  -Hartree energ DENC   =      -557.07923308
  -exchange      EXHF   =        38.39236832
  -V(xc)+E(xc)   XCENC  =        34.07608839
  PAW double counting   =      3544.82772735    -3524.34549251
  entropy T*S    EENTRO =         0.00000000
  eigenvalues    EBANDS =      -116.41098271
  atomic energy  EATOM  =      1750.64560241
  Solvation  Ediel_sol  =         0.00000000
  ---------------------------------------------------
  free energy    TOTEN  =       -10.01596097 eV

  energy without entropy =      -10.01596097  energy(sigma->0) =      -10.01596097
  exchange ACFDT corr.  =         0.00000000  see jH, gK, PRB 81, 115126


--------------------------------------------------------------------------------------------------------




--------------------------------------- Iteration      1(  12)  ---------------------------------------


    POTLOK:  cpu time      0.0095: real time      0.0235
    SETDIJ:  cpu time      0.3366: real time      0.3374
     EDDAV:  cpu time     11.7006: real time     11.7300
 BZINTS: Fermi energy:    4.539201;   18.000000 electrons
         Band energy:-0.116383E+03;  BLOECHL correction:    0.000000
       DOS:  cpu time      0.0028: real time      0.0028
    CHARGE:  cpu time      0.0204: real time      0.0204
    MIXING:  cpu time      0.0001: real time      0.0001
    --------------------------------------------
      LOOP:  cpu time     12.0699: real time     12.1142

 eigenvalue-minimisations  :  1524
 total energy-change (2. order) :-0.2175234E-04  (-0.6511768E-05)
 number of electron      17.9999998 magnetization 
 augmentation part        6.5878840 magnetization 

 Free energy of the ion-electron system (eV)
  ---------------------------------------------------
  alpha Z        PSCENC =        31.71721604
  Ewald energy   TEWEN  =     -1211.83925518
  -Hartree energ DENC   =      -557.08208272
  -exchange      EXHF   =        38.39397736
  -V(xc)+E(xc)   XCENC  =        34.07945807
  PAW double counting   =      3599.89851723    -3579.44652369
  entropy T*S    EENTRO =         0.00000000
  eigenvalues    EBANDS =      -116.38289224
  atomic energy  EATOM  =      1750.64560241
  Solvation  Ediel_sol  =         0.00000000
  ---------------------------------------------------
  free energy    TOTEN  =       -10.01598272 eV

  energy without entropy =      -10.01598272  energy(sigma->0) =      -10.01598272
  exchange ACFDT corr.  =         0.00000000  see jH, gK, PRB 81, 115126


--------------------------------------------------------------------------------------------------------




--------------------------------------- Iteration      1(  13)  ---------------------------------------


    POTLOK:  cpu time      0.0088: real time      0.0242
    SETDIJ:  cpu time      0.3363: real time      0.3371
     EDDAV:  cpu time     11.2480: real time     11.2762
 BZINTS: Fermi energy:    4.540209;   18.000000 electrons
         Band energy:-0.116356E+03;  BLOECHL correction:    0.000000
       DOS:  cpu time      0.0028: real time      0.0028
    CHARGE:  cpu time      0.0206: real time      0.0206
    MIXING:  cpu time      0.0001: real time      0.0001
    --------------------------------------------
      LOOP:  cpu time     11.6165: real time     11.6609

 eigenvalue-minimisations  :  1500
 total energy-change (2. order) :-0.3921914E-04  (-0.2691294E-05)
 number of electron      17.9999998 magnetization 
 augmentation part        6.5878773 magnetization 

 Free energy of the ion-electron system (eV)
  ---------------------------------------------------
  alpha Z        PSCENC =        31.71721604
  Ewald energy   TEWEN  =     -1211.83925518
  -Hartree energ DENC   =      -557.09344424
  -exchange      EXHF   =        38.39402711
  -V(xc)+E(xc)   XCENC  =        34.08181609
  PAW double counting   =      3633.05746961    -3612.62363009
  entropy T*S    EENTRO =         0.00000000
  eigenvalues    EBANDS =      -116.35582371
  atomic energy  EATOM  =      1750.64560241
  Solvation  Ediel_sol  =         0.00000000
  ---------------------------------------------------
  free energy    TOTEN  =       -10.01602194 eV

  energy without entropy =      -10.01602194  energy(sigma->0) =      -10.01602194
  exchange ACFDT corr.  =         0.00000000  see jH, gK, PRB 81, 115126


--------------------------------------------------------------------------------------------------------




--------------------------------------- Iteration      1(  14)  ---------------------------------------


    POTLOK:  cpu time      0.0088: real time      0.0239
    SETDIJ:  cpu time      0.3359: real time      0.3369
     EDDAV:  cpu time     11.7692: real time     11.7988
 BZINTS: Fermi energy:    4.541249;   18.000000 electrons
         Band energy:-0.116333E+03;  BLOECHL correction:    0.000000
       DOS:  cpu time      0.0027: real time      0.0029
    CHARGE:  cpu time      0.0204: real time      0.0205
    MIXING:  cpu time      0.0001: real time      0.0001
    --------------------------------------------
      LOOP:  cpu time     12.1372: real time     12.1830

 eigenvalue-minimisations  :  1512
 total energy-change (2. order) :-0.3098918E-04  (-0.1129750E-05)
 number of electron      17.9999998 magnetization 
 augmentation part        6.5878373 magnetization 

 Free energy of the ion-electron system (eV)
  ---------------------------------------------------
  alpha Z        PSCENC =        31.71721604
  Ewald energy   TEWEN  =     -1211.83925518
  -Hartree energ DENC   =      -557.10583542
  -exchange      EXHF   =        38.39362568
  -V(xc)+E(xc)   XCENC  =        34.08335068
  PAW double counting   =      3653.04287519    -3632.62069984
  entropy T*S    EENTRO =         0.00000000
  eigenvalues    EBANDS =      -116.33293250
  atomic energy  EATOM  =      1750.64560241
  Solvation  Ediel_sol  =         0.00000000
  ---------------------------------------------------
  free energy    TOTEN  =       -10.01605293 eV

  energy without entropy =      -10.01605293  energy(sigma->0) =      -10.01605293
  exchange ACFDT corr.  =         0.00000000  see jH, gK, PRB 81, 115126


--------------------------------------------------------------------------------------------------------




--------------------------------------- Iteration      1(  15)  ---------------------------------------


    POTLOK:  cpu time      0.0089: real time      0.0241
    SETDIJ:  cpu time      0.3362: real time      0.3370
     EDDAV:  cpu time     11.5711: real time     11.6002
 BZINTS: Fermi energy:    4.542109;   18.000000 electrons
         Band energy:-0.116316E+03;  BLOECHL correction:    0.000000
       DOS:  cpu time      0.0027: real time      0.0027
    CHARGE:  cpu time      0.0204: real time      0.0205
    MIXING:  cpu time      0.0001: real time      0.0001
    --------------------------------------------
      LOOP:  cpu time     11.9395: real time     11.9847

 eigenvalue-minimisations  :  1488
 total energy-change (2. order) :-0.1880521E-04  (-0.5009915E-06)
 number of electron      17.9999998 magnetization 
 augmentation part        6.5878022 magnetization 

 Free energy of the ion-electron system (eV)
  ---------------------------------------------------
  alpha Z        PSCENC =        31.71721604
  Ewald energy   TEWEN  =     -1211.83925518
  -Hartree energ DENC   =      -557.11630822
  -exchange      EXHF   =        38.39331541
  -V(xc)+E(xc)   XCENC  =        34.08432808
  PAW double counting   =      3664.90274281    -3644.48814731
  entropy T*S    EENTRO =         0.00000000
  eigenvalues    EBANDS =      -116.31556578
  atomic energy  EATOM  =      1750.64560241
  Solvation  Ediel_sol  =         0.00000000
  ---------------------------------------------------
  free energy    TOTEN  =       -10.01607173 eV

  energy without entropy =      -10.01607173  energy(sigma->0) =      -10.01607173
  exchange ACFDT corr.  =         0.00000000  see jH, gK, PRB 81, 115126


--------------------------------------------------------------------------------------------------------




--------------------------------------- Iteration      1(  16)  ---------------------------------------


    POTLOK:  cpu time      0.0088: real time      0.0240
    SETDIJ:  cpu time      0.3363: real time      0.3371
     EDDAV:  cpu time     11.1462: real time     11.1742
 BZINTS: Fermi energy:    4.542753;   18.000000 electrons
         Band energy:-0.116303E+03;  BLOECHL correction:    0.000000
       DOS:  cpu time      0.0028: real time      0.0028
    CHARGE:  cpu time      0.0204: real time      0.0205
    MIXING:  cpu time      0.0001: real time      0.0001
    --------------------------------------------
      LOOP:  cpu time     11.5146: real time     11.5586

 eigenvalue-minimisations  :  1464
 total energy-change (2. order) :-0.1104705E-04  (-0.2360402E-06)
 number of electron      17.9999998 magnetization 
 augmentation part        6.5877792 magnetization 

 Free energy of the ion-electron system (eV)
  ---------------------------------------------------
  alpha Z        PSCENC =        31.71721604
  Ewald energy   TEWEN  =     -1211.83925518
  -Hartree energ DENC   =      -557.12434708
  -exchange      EXHF   =        38.39314908
  -V(xc)+E(xc)   XCENC  =        34.08495119
  PAW double counting   =      3671.95649088    -3651.54672691
  entropy T*S    EENTRO =         0.00000000
  eigenvalues    EBANDS =      -116.30316322
  atomic energy  EATOM  =      1750.64560241
  Solvation  Ediel_sol  =         0.00000000
  ---------------------------------------------------
  free energy    TOTEN  =       -10.01608278 eV

  energy without entropy =      -10.01608278  energy(sigma->0) =      -10.01608278
  exchange ACFDT corr.  =         0.00000000  see jH, gK, PRB 81, 115126


--------------------------------------------------------------------------------------------------------




--------------------------------------- Iteration      1(  17)  ---------------------------------------


    POTLOK:  cpu time      0.0103: real time      0.0271
    SETDIJ:  cpu time      0.3366: real time      0.3375
     EDDAV:  cpu time     11.4743: real time     11.5031
 BZINTS: Fermi energy:    4.543213;   18.000000 electrons
         Band energy:-0.116294E+03;  BLOECHL correction:    0.000000
       DOS:  cpu time      0.0028: real time      0.0028
    --------------------------------------------
      LOOP:  cpu time     11.8240: real time     11.8704

 eigenvalue-minimisations  :  1260
 total energy-change (2. order) :-0.6191000E-05  (-0.1127142E-06)
 number of electron      17.9999998 magnetization 
 augmentation part        6.5877792 magnetization 

 Free energy of the ion-electron system (eV)
  ---------------------------------------------------
  alpha Z        PSCENC =        31.71721604
  Ewald energy   TEWEN  =     -1211.83925518
  -Hartree energ DENC   =      -557.13040707
  -exchange      EXHF   =        38.39307638
  -V(xc)+E(xc)   XCENC  =        34.08535555
  PAW double counting   =      3676.13746227    -3655.73073197
  entropy T*S    EENTRO =         0.00000000
  eigenvalues    EBANDS =      -116.29440740
  atomic energy  EATOM  =      1750.64560241
  Solvation  Ediel_sol  =         0.00000000
  ---------------------------------------------------
  free energy    TOTEN  =       -10.01608897 eV

  energy without entropy =      -10.01608897  energy(sigma->0) =      -10.01608897
  exchange ACFDT corr.  =         0.00000000  see jH, gK, PRB 81, 115126


--------------------------------------------------------------------------------------------------------




 average (electrostatic) potential at core
  the test charge radii are     1.0774  0.9587
  (the norm of the test charge is              1.0000)
       1 -89.6563       2 -79.4247
 
 
 
 E-fermi :   4.5432     XC(G=0):  -7.6436     alpha+bet :-10.8616

 Fermi energy:         4.5432133844

 k-point     1 :       0.0000    0.0000    0.0000
  band No.  band energies     occupation 
      1     -11.3312      2.00000
      2     -11.3312      2.00000
      3     -11.3312      2.00000
      4     -11.1803      2.00000
      5     -11.1803      2.00000
      6      -8.0700      2.00000
      7       4.5234      2.00000
      8       4.5234      2.00000
      9       4.5234      2.00000
     10       5.9033      0.00000
     11       9.4564      0.00000
     12       9.4564      0.00000
     13       9.4564      0.00000
     14      14.0094      0.00000
     15      15.0023      0.00000
     16      15.0023      0.00000
     17      16.6686      0.00000
     18      16.6686      0.00000
     19      16.6686      0.00000
     20      19.1979      0.00000
     21      28.0144      0.00000
     22      28.0144      0.00000
     23      28.0144      0.00000
     24      29.8936      0.00000
     25      29.8936      0.00000
     26      29.8936      0.00000
     27      29.9668      0.00000
     28      29.9668      0.00000
     29      29.9668      0.00000
     30      30.9131      0.00000
     31      30.9131      0.00000
     32      38.5469      0.00000
     33      39.7859      0.00000
     34      39.7860      0.00000
     35      39.7862      0.00000
     36      39.9713      0.00000

 k-point     2 :       0.1667   -0.0000    0.0000
  band No.  band energies     occupation 
      1     -11.3589      2.00000
      2     -11.3195      2.00000
      3     -11.3195      2.00000
      4     -11.1800      2.00000
      5     -11.1800      2.00000
      6      -7.7411      2.00000
      7       2.2650      2.00000
      8       4.2073      2.00000
      9       4.2073      2.00000
     10       7.0285      0.00000
     11       9.8389      0.00000
     12       9.9191      0.00000
     13       9.9191      0.00000
     14      14.1012      0.00000
     15      14.1012      0.00000
     16      14.9263      0.00000
     17      16.3777      0.00000
     18      18.6665      0.00000
     19      18.6665      0.00000
     20      21.3518      0.00000
     21      24.8445      0.00000
     22      24.9403      0.00000
     23      24.9403      0.00000
     24      29.5473      0.00000
     25      29.5473      0.00000
     26      30.2039      0.00000
     27      30.2511      0.00000
     28      30.2511      0.00000
     29      31.6745      0.00000
     30      33.9459      0.00000
     31      33.9459      0.00000
     32      37.0668      0.00000
     33      37.0668      0.00000
     34      37.1622      0.00000
     35      39.4036      0.00000
     36      39.4493      0.00000

 k-point     3 :       0.3333    0.0000    0.0000
  band No.  band energies     occupation 
      1     -11.4113      2.00000
      2     -11.3005      2.00000
[...]
   55.404687    0.850678    0.850678    0.850678    0.000000   -0.000000   -0.000000
   55.434555    0.850962    0.850962    0.850962    0.000000   -0.000000   -0.000000
   55.464423    0.851245    0.851245    0.851245    0.000000   -0.000000   -0.000000
   55.494291    0.851527    0.851527    0.851527    0.000000   -0.000000   -0.000000
   55.524158    0.851807    0.851807    0.851807    0.000000   -0.000000   -0.000000
   55.554026    0.852086    0.852086    0.852086    0.000000   -0.000000   -0.000000
   55.583894    0.852364    0.852364    0.852364    0.000000   -0.000000   -0.000000
   55.613762    0.852640    0.852640    0.852640    0.000000   -0.000000   -0.000000
   55.643629    0.852915    0.852915    0.852915    0.000000   -0.000000   -0.000000
   55.673497    0.853189    0.853189    0.853189    0.000000   -0.000000   -0.000000
   55.703365    0.853462    0.853462    0.853462    0.000000   -0.000000   -0.000000
   55.733233    0.853733    0.853733    0.853733    0.000000   -0.000000   -0.000000
   55.763100    0.854003    0.854003    0.854003    0.000000   -0.000000   -0.000000
   55.792968    0.854272    0.854272    0.854272    0.000000   -0.000000   -0.000000
   55.822836    0.854540    0.854540    0.854540    0.000000   -0.000000   -0.000000
   55.852704    0.854807    0.854807    0.854807    0.000000   -0.000000   -0.000000
   55.882571    0.855072    0.855072    0.855072    0.000000   -0.000000   -0.000000
   55.912439    0.855337    0.855337    0.855337    0.000000   -0.000000   -0.000000
   55.942307    0.855600    0.855600    0.855600    0.000000   -0.000000   -0.000000
   55.972175    0.855862    0.855862    0.855862    0.000000   -0.000000   -0.000000
   56.002042    0.856123    0.856123    0.856123    0.000000   -0.000000   -0.000000
   56.031910    0.856382    0.856382    0.856382    0.000000   -0.000000   -0.000000
   56.061778    0.856641    0.856641    0.856641    0.000000   -0.000000   -0.000000
   56.091646    0.856898    0.856899    0.856898    0.000000   -0.000000   -0.000000
   56.121513    0.857155    0.857155    0.857155    0.000000   -0.000000   -0.000000
   56.151381    0.857410    0.857410    0.857410    0.000000   -0.000000   -0.000000
   56.181249    0.857664    0.857664    0.857664    0.000000   -0.000000   -0.000000
   56.211117    0.857918    0.857918    0.857918    0.000000   -0.000000   -0.000000
   56.240984    0.858170    0.858170    0.858170    0.000000   -0.000000   -0.000000
   56.270852    0.858421    0.858421    0.858421    0.000000   -0.000000   -0.000000
   56.300720    0.858671    0.858671    0.858671    0.000000   -0.000000   -0.000000
   56.330588    0.858920    0.858920    0.858920    0.000000   -0.000000   -0.000000
   56.360455    0.859168    0.859168    0.859168    0.000000   -0.000000   -0.000000
   56.390323    0.859415    0.859415    0.859415    0.000000   -0.000000   -0.000000
   56.420191    0.859661    0.859661    0.859661    0.000000   -0.000000   -0.000000
   56.450059    0.859906    0.859906    0.859906    0.000000   -0.000000   -0.000000
   56.479926    0.860150    0.860150    0.860150    0.000000   -0.000000   -0.000000
   56.509794    0.860393    0.860393    0.860393    0.000000   -0.000000   -0.000000
   56.539662    0.860635    0.860635    0.860635    0.000000   -0.000000   -0.000000
   56.569530    0.860876    0.860876    0.860876    0.000000   -0.000000   -0.000000
   56.599398    0.861116    0.861116    0.861116    0.000000   -0.000000   -0.000000
   56.629265    0.861355    0.861355    0.861355    0.000000   -0.000000   -0.000000
   56.659133    0.861593    0.861593    0.861593    0.000000   -0.000000   -0.000000
   56.689001    0.861830    0.861830    0.861830    0.000000   -0.000000   -0.000000
   56.718869    0.862067    0.862067    0.862067    0.000000   -0.000000   -0.000000
   56.748736    0.862302    0.862302    0.862302    0.000000   -0.000000   -0.000000
   56.778604    0.862537    0.862537    0.862537    0.000000   -0.000000   -0.000000
   56.808472    0.862770    0.862770    0.862770    0.000000   -0.000000   -0.000000
   56.838340    0.863003    0.863003    0.863003    0.000000   -0.000000   -0.000000
   56.868207    0.863235    0.863235    0.863235    0.000000   -0.000000   -0.000000
   56.898075    0.863465    0.863465    0.863465    0.000000   -0.000000   -0.000000
   56.927943    0.863695    0.863695    0.863695    0.000000   -0.000000   -0.000000
   56.957811    0.863925    0.863925    0.863925    0.000000   -0.000000   -0.000000
   56.987678    0.864153    0.864153    0.864153    0.000000   -0.000000   -0.000000
   57.017546    0.864380    0.864380    0.864380    0.000000   -0.000000   -0.000000
   57.047414    0.864607    0.864607    0.864607    0.000000   -0.000000   -0.000000
   57.077282    0.864832    0.864832    0.864832    0.000000   -0.000000   -0.000000
   57.107149    0.865057    0.865057    0.865057    0.000000   -0.000000   -0.000000
   57.137017    0.865281    0.865281    0.865281    0.000000   -0.000000   -0.000000
   57.166885    0.865504    0.865504    0.865504    0.000000   -0.000000   -0.000000
   57.196753    0.865727    0.865727    0.865727    0.000000   -0.000000   -0.000000
   57.226620    0.865948    0.865948    0.865948    0.000000   -0.000000   -0.000000
   57.256488    0.866169    0.866169    0.866169    0.000000   -0.000000   -0.000000
   57.286356    0.866389    0.866389    0.866389    0.000000   -0.000000   -0.000000
   57.316224    0.866608    0.866608    0.866608    0.000000   -0.000000   -0.000000
   57.346091    0.866826    0.866826    0.866826    0.000000   -0.000000   -0.000000
   57.375959    0.867044    0.867044    0.867044    0.000000   -0.000000   -0.000000
   57.405827    0.867261    0.867261    0.867261    0.000000   -0.000000   -0.000000
   57.435695    0.867477    0.867477    0.867477    0.000000   -0.000000   -0.000000
   57.465562    0.867692    0.867692    0.867692    0.000000   -0.000000   -0.000000
   57.495430    0.867906    0.867906    0.867906    0.000000   -0.000000   -0.000000
   57.525298    0.868120    0.868120    0.868120    0.000000   -0.000000   -0.000000
   57.555166    0.868333    0.868333    0.868333    0.000000   -0.000000   -0.000000
   57.585033    0.868545    0.868545    0.868545    0.000000   -0.000000   -0.000000
   57.614901    0.868757    0.868757    0.868757    0.000000   -0.000000   -0.000000
   57.644769    0.868967    0.868967    0.868967    0.000000   -0.000000   -0.000000
   57.674637    0.869177    0.869177    0.869177    0.000000   -0.000000   -0.000000
   57.704504    0.869386    0.869386    0.869386    0.000000   -0.000000   -0.000000
   57.734372    0.869595    0.869595    0.869595    0.000000   -0.000000   -0.000000
   57.764240    0.869803    0.869803    0.869803    0.000000   -0.000000   -0.000000
   57.794108    0.870010    0.870010    0.870010    0.000000   -0.000000   -0.000000
   57.823976    0.870216    0.870216    0.870216    0.000000   -0.000000   -0.000000
   57.853843    0.870422    0.870422    0.870422    0.000000   -0.000000   -0.000000
   57.883711    0.870626    0.870626    0.870626    0.000000   -0.000000   -0.000000
   57.913579    0.870831    0.870831    0.870831    0.000000   -0.000000   -0.000000
   57.943447    0.871034    0.871034    0.871034    0.000000   -0.000000   -0.000000
   57.973314    0.871237    0.871237    0.871237    0.000000   -0.000000   -0.000000
   58.003182    0.871439    0.871439    0.871439    0.000000   -0.000000   -0.000000
   58.033050    0.871641    0.871641    0.871641    0.000000   -0.000000   -0.000000
   58.062918    0.871841    0.871841    0.871841    0.000000   -0.000000   -0.000000
   58.092785    0.872041    0.872042    0.872042    0.000000   -0.000000   -0.000000
   58.122653    0.872241    0.872241    0.872241    0.000000   -0.000000   -0.000000
   58.152521    0.872440    0.872440    0.872440    0.000000   -0.000000   -0.000000
   58.182389    0.872638    0.872638    0.872638    0.000000   -0.000000   -0.000000
   58.212256    0.872835    0.872835    0.872835    0.000000   -0.000000   -0.000000
   58.242124    0.873032    0.873032    0.873032    0.000000   -0.000000   -0.000000
   58.271992    0.873228    0.873228    0.873228    0.000000   -0.000000   -0.000000
   58.301860    0.873424    0.873424    0.873424    0.000000   -0.000000   -0.000000
   58.331727    0.873619    0.873619    0.873619    0.000000   -0.000000   -0.000000
   58.361595    0.873813    0.873813    0.873813    0.000000   -0.000000   -0.000000
   58.391463    0.874007    0.874007    0.874007    0.000000   -0.000000   -0.000000
   58.421331    0.874200    0.874200    0.874200    0.000000   -0.000000   -0.000000
   58.451198    0.874392    0.874392    0.874392    0.000000   -0.000000   -0.000000
   58.481066    0.874584    0.874584    0.874584    0.000000   -0.000000   -0.000000
   58.510934    0.874775    0.874775    0.874775    0.000000   -0.000000   -0.000000
   58.540802    0.874965    0.874965    0.874965    0.000000   -0.000000   -0.000000
   58.570669    0.875155    0.875155    0.875155    0.000000   -0.000000   -0.000000
   58.600537    0.875345    0.875345    0.875345    0.000000   -0.000000   -0.000000
   58.630405    0.875533    0.875533    0.875533    0.000000   -0.000000   -0.000000
   58.660273    0.875721    0.875722    0.875721    0.000000   -0.000000   -0.000000
   58.690140    0.875909    0.875909    0.875909    0.000000   -0.000000   -0.000000
   58.720008    0.876096    0.876096    0.876096    0.000000   -0.000000   -0.000000
   58.749876    0.876282    0.876282    0.876282    0.000000   -0.000000   -0.000000
   58.779744    0.876468    0.876468    0.876468    0.000000   -0.000000   -0.000000
   58.809611    0.876653    0.876653    0.876653    0.000000   -0.000000   -0.000000
   58.839479    0.876838    0.876838    0.876838    0.000000   -0.000000   -0.000000
   58.869347    0.877022    0.877022    0.877022    0.000000   -0.000000   -0.000000
   58.899215    0.877205    0.877205    0.877205    0.000000   -0.000000   -0.000000
   58.929082    0.877388    0.877388    0.877388    0.000000   -0.000000   -0.000000
   58.958950    0.877571    0.877571    0.877571    0.000000   -0.000000   -0.000000
   58.988818    0.877752    0.877752    0.877752    0.000000   -0.000000   -0.000000
   59.018686    0.877934    0.877934    0.877934    0.000000   -0.000000   -0.000000
   59.048553    0.878114    0.878114    0.878114    0.000000   -0.000000   -0.000000
   59.078421    0.878294    0.878294    0.878294    0.000000   -0.000000   -0.000000
   59.108289    0.878474    0.878474    0.878474    0.000000   -0.000000   -0.000000
   59.138157    0.878653    0.878653    0.878653    0.000000   -0.000000   -0.000000
   59.168025    0.878831    0.878831    0.878831    0.000000   -0.000000   -0.000000
   59.197892    0.879009    0.879009    0.879009    0.000000   -0.000000   -0.000000
   59.227760    0.879187    0.879187    0.879187    0.000000   -0.000000   -0.000000
   59.257628    0.879364    0.879364    0.879364    0.000000   -0.000000   -0.000000
   59.287496    0.879540    0.879540    0.879540    0.000000   -0.000000   -0.000000
   59.317363    0.879716    0.879716    0.879716    0.000000   -0.000000   -0.000000
   59.347231    0.879891    0.879891    0.879891    0.000000   -0.000000   -0.000000
   59.377099    0.880066    0.880066    0.880066    0.000000   -0.000000   -0.000000
   59.406967    0.880240    0.880240    0.880240    0.000000   -0.000000   -0.000000
   59.436834    0.880414    0.880414    0.880414    0.000000   -0.000000   -0.000000
   59.466702    0.880587    0.880587    0.880587    0.000000   -0.000000   -0.000000
   59.496570    0.880760    0.880760    0.880760    0.000000   -0.000000   -0.000000
   59.526438    0.880932    0.880932    0.880932    0.000000   -0.000000   -0.000000
   59.556305    0.881104    0.881104    0.881104    0.000000   -0.000000   -0.000000
   59.586173    0.881275    0.881275    0.881275    0.000000   -0.000000   -0.000000
   59.616041    0.881446    0.881446    0.881446    0.000000   -0.000000   -0.000000
   59.645909    0.881616    0.881616    0.881616    0.000000   -0.000000   -0.000000
   59.675776    0.881786    0.881786    0.881786    0.000000   -0.000000   -0.000000
   59.705644    0.881955    0.881955    0.881955    0.000000   -0.000000   -0.000000
   59.735512    0.882124    0.882124    0.882124    0.000000   -0.000000   -0.000000
   59.765380    0.882292    0.882292    0.882292    0.000000   -0.000000   -0.000000
   59.795247    0.882460    0.882460    0.882460    0.000000   -0.000000   -0.000000
   59.825115    0.882627    0.882627    0.882627    0.000000   -0.000000   -0.000000
   59.854983    0.882794    0.882794    0.882794    0.000000   -0.000000   -0.000000
   59.884851    0.882960    0.882960    0.882960    0.000000   -0.000000   -0.000000
   59.914718    0.883126    0.883126    0.883126    0.000000   -0.000000   -0.000000
   59.944586    0.883291    0.883291    0.883291    0.000000   -0.000000   -0.000000
   59.974454    0.883456    0.883456    0.883456    0.000000   -0.000000   -0.000000
   60.004322    0.883621    0.883621    0.883621    0.000000   -0.000000   -0.000000
   60.034189    0.883785    0.883785    0.883785    0.000000   -0.000000   -0.000000
   60.064057    0.883948    0.883948    0.883948    0.000000   -0.000000   -0.000000
   60.093925    0.884111    0.884111    0.884111    0.000000   -0.000000   -0.000000
   60.123793    0.884274    0.884274    0.884274    0.000000   -0.000000   -0.000000
   60.153660    0.884436    0.884436    0.884436    0.000000   -0.000000   -0.000000
   60.183528    0.884598    0.884598    0.884598    0.000000   -0.000000   -0.000000
   60.213396    0.884759    0.884759    0.884759    0.000000   -0.000000   -0.000000
   60.243264    0.884920    0.884920    0.884920    0.000000   -0.000000   -0.000000
   60.273131    0.885081    0.885081    0.885081    0.000000   -0.000000   -0.000000
   60.302999    0.885240    0.885240    0.885240    0.000000   -0.000000   -0.000000
   60.332867    0.885400    0.885400    0.885400    0.000000   -0.000000   -0.000000
   60.362735    0.885559    0.885559    0.885559    0.000000   -0.000000   -0.000000
   60.392603    0.885718    0.885718    0.885718    0.000000   -0.000000   -0.000000
   60.422470    0.885876    0.885876    0.885876    0.000000   -0.000000   -0.000000
   60.452338    0.886034    0.886034    0.886034    0.000000   -0.000000   -0.000000
   60.482206    0.886191    0.886191    0.886191    0.000000   -0.000000   -0.000000
   60.512074    0.886348    0.886348    0.886348    0.000000   -0.000000   -0.000000
   60.541941    0.886504    0.886504    0.886504    0.000000   -0.000000   -0.000000
   60.571809    0.886660    0.886660    0.886660    0.000000   -0.000000   -0.000000
   60.601677    0.886816    0.886816    0.886816    0.000000   -0.000000   -0.000000
   60.631545    0.886971    0.886971    0.886971    0.000000   -0.000000   -0.000000
   60.661412    0.887126    0.887126    0.887126    0.000000   -0.000000   -0.000000
   60.691280    0.887281    0.887281    0.887281    0.000000   -0.000000   -0.000000
   60.721148    0.887434    0.887434    0.887434    0.000000   -0.000000   -0.000000
   60.751016    0.887588    0.887588    0.887588    0.000000   -0.000000   -0.000000
   60.780883    0.887741    0.887741    0.887741    0.000000   -0.000000   -0.000000
   60.810751    0.887894    0.887894    0.887894    0.000000   -0.000000   -0.000000
   60.840619    0.888046    0.888046    0.888046    0.000000   -0.000000   -0.000000
   60.870487    0.888198    0.888198    0.888198    0.000000   -0.000000   -0.000000
   60.900354    0.888350    0.888350    0.888350    0.000000   -0.000000   -0.000000
   60.930222    0.888501    0.888501    0.888501    0.000000   -0.000000   -0.000000
   60.960090    0.888652    0.888652    0.888652    0.000000   -0.000000   -0.000000
   60.989958    0.888802    0.888802    0.888802    0.000000   -0.000000   -0.000000
   61.019825    0.888952    0.888952    0.888952    0.000000   -0.000000   -0.000000
   61.049693    0.889102    0.889102    0.889102    0.000000   -0.000000   -0.000000
   61.079561    0.889251    0.889251    0.889251    0.000000   -0.000000   -0.000000
   61.109429    0.889400    0.889400    0.889400    0.000000   -0.000000   -0.000000
   61.139296    0.889548    0.889548    0.889548    0.000000   -0.000000   -0.000000
   61.169164    0.889696    0.889696    0.889696    0.000000   -0.000000   -0.000000
   61.199032    0.889844    0.889844    0.889844    0.000000   -0.000000   -0.000000
   61.228900    0.889991    0.889991    0.889991    0.000000   -0.000000   -0.000000
   61.258767    0.890138    0.890138    0.890138    0.000000   -0.000000   -0.000000
   61.288635    0.890284    0.890284    0.890284    0.000000   -0.000000   -0.000000
   61.318503    0.890430    0.890430    0.890430    0.000000   -0.000000   -0.000000
   61.348371    0.890576    0.890576    0.890576    0.000000   -0.000000   -0.000000
   61.378238    0.890721    0.890721    0.890721    0.000000   -0.000000   -0.000000
   61.408106    0.890866    0.890866    0.890866    0.000000   -0.000000   -0.000000
   61.437974    0.891011    0.891011    0.891011    0.000000   -0.000000   -0.000000
   61.467842    0.891155    0.891155    0.891155    0.000000   -0.000000   -0.000000
   61.497709    0.891299    0.891299    0.891299    0.000000   -0.000000   -0.000000
   61.527577    0.891443    0.891443    0.891443    0.000000   -0.000000   -0.000000
   61.557445    0.891586    0.891586    0.891586    0.000000   -0.000000   -0.000000
   61.587313    0.891729    0.891729    0.891729    0.000000   -0.000000   -0.000000
   61.617181    0.891871    0.891871    0.891871    0.000000   -0.000000   -0.000000
   61.647048    0.892013    0.892013    0.892013    0.000000   -0.000000   -0.000000
   61.676916    0.892155    0.892155    0.892155    0.000000   -0.000000   -0.000000
   61.706784    0.892296    0.892296    0.892296    0.000000   -0.000000   -0.000000
   61.736652    0.892437    0.892437    0.892437    0.000000   -0.000000   -0.000000
   61.766519    0.892578    0.892578    0.892578    0.000000   -0.000000   -0.000000
 
 The outermost node in the dielectric function lies at epsilon=  16.6


--------------------------------------------------------------------------------------------------------


    OPTICS:  cpu time      1.0904: real time      1.0956
    4ORBIT:  cpu time      0.0000: real time      0.0000



 total charge

# of ion       s       p       d       tot
------------------------------------------
    1        0.837   0.764   9.914  11.515
    2        1.021   1.506   0.000   2.528
--------------------------------------------------
tot          1.859   2.270   9.914  14.043
 
 BZINTS: Fermi energy:    4.543213;   18.000000 electrons
         Band energy:-0.116294E+03;  BLOECHL correction:    0.000000

 total amount of memory used by VASP MPI-rank0    33930. kBytes
=======================================================================

   base      :      30000. kBytes
   nonl-proj :       1169. kBytes
   fftplans  :        396. kBytes
   grid      :        505. kBytes
   one-center:         15. kBytes
   HF        :         64. kBytes
   nonlr-proj:        330. kBytes
   wavefun   :        211. kBytes
   fock_wrk  :       1240. kBytes
 
  
  
 General timing and accounting informations for this job:
 ========================================================
  
                  Total CPU time used (sec):      213.787
                            User time (sec):      212.646
                          System time (sec):        1.141
                         Elapsed time (sec):      215.317
  
                   Maximum memory used (kb):      293312.
                   Average memory used (kb):          N/A
  
                          Minor page faults:        45108
                          Major page faults:            0
                 Voluntary context switches:         3747
