<?xml version="1.0" encoding="ISO-8859-1"?>
<modeling>
 <generator>
  <i name="program" type="string">vasp </i>
  <i name="version" type="string">6.4.2  </i>
  <i name="subversion" type="string">20Jul23 (build Mar 15 2024 16:31:38) complex                          parallel </i>
  <i name="platform" type="string">LinuxIFC </i>
  <i name="date" type="string">2025 03 19 </i>
  <i name="time" type="string">14:30:43 </i>
 </generator>
 <incar>
  <i type="string" name="PREC">Accurate</i>
  <i type="string" name="ALGO">Normal</i>
  <i type="int" name="ISPIN">     1</i>
  <i type="int" name="NELM">   200</i>
  <i type="int" name="NELMIN">     5</i>
  <i name="EDIFF">      0.00001000</i>
  <i type="int" name="NSW">     0</i>
  <i name="ENCUT">    680.00000000</i>
  <i name="ENAUG">   1360.00000000</i>
  <i type="int" name="NBANDS">    29</i>
  <i type="int" name="NEDOS">  2069</i>
  <i type="logical" name="LREAL"> F  </i>
  <i type="int" name="ISMEAR">    -5</i>
  <i name="SIGMA">      0.05000000</i>
  <i type="int" name="LMAXMIX">     4</i>
  <i type="logical" name="LWAVE"> T  </i>
  <i type="logical" name="LCHARG"> T  </i>
  <i type="logical" name="LVTOT"> T  </i>
  <i type="int" name="LORBIT">    11</i>
  <i type="logical" name="LELF"> F  </i>
  <i type="logical" name="LOPTICS"> T  </i>
  <i type="logical" name="LASPH"> T  </i>
  <i type="logical" name="LAECHG"> T  </i>
  <i name="CSHIFT">      0.00001000</i>
  <i name="HFSCREEN">      0.20000000</i>
  <i type="logical" name="LHFCALC"> T  </i>
  <i type="string" name="GGA">Pe</i>
  <i type="string" name="PRECFOCK">Fast</i>
  <i type="logical" name="LDAU"> F  </i>
  <i type="logical" name="LMIXTAU"> T  </i>
 </incar>
 <primitive_cell>
  <structure name="primitive_cell" >
   <crystal>
    <varray name="basis" >
     <v>       3.61541800       0.00000000       2.08736254 </v>
     <v>       1.20513900       3.40864864       2.08736254 </v>
     <v>       0.00000000       0.00000000       4.17472507 </v>
    </varray>
    <i name="volume">     51.44801605 </i>
    <varray name="rec_basis" >
     <v>       0.27659319      -0.09779044       0.00000000 </v>
     <v>       0.00000000       0.29337139       0.00000000 </v>
     <v>      -0.13829660      -0.09779048       0.23953673 </v>
    </varray>
   </crystal>
   <varray name="positions" >
    <v>       0.00000000       0.00000000       0.00000000 </v>
    <v>       0.25000000       0.25000000       0.25000000 </v>
   </varray>
  </structure>
  <varray name="primitive_index" >
   <v type="int" >        1 </v>
   <v type="int" >        2 </v>
  </varray>
 </primitive_cell>
 <kpoints>
  <generation param="Gamma">
   <v type="int" name="divisions">       6        6        6 </v>
   <v name="usershift">      0.00000000       0.00000000       0.00000000 </v>
   <v name="genvec1">      0.16666667      -0.00000000       0.00000000 </v>
   <v name="genvec2">      0.00000000       0.16666667       0.00000000 </v>
   <v name="genvec3">      0.00000000      -0.00000000       0.16666667 </v>
   <v name="shift">      0.00000000       0.00000000       0.00000000 </v>
  </generation>
  <varray name="kpointlist" >
   <v>       0.00000000       0.00000000       0.00000000 </v>
   <v>       0.16666667      -0.00000000       0.00000000 </v>
   <v>       0.33333333       0.00000000       0.00000000 </v>
   <v>       0.50000000      -0.00000000       0.00000000 </v>
   <v>       0.16666667       0.16666667       0.00000000 </v>
   <v>       0.33333333       0.16666667       0.00000000 </v>
   <v>       0.50000000       0.16666667       0.00000000 </v>
   <v>      -0.33333333       0.16666667       0.00000000 </v>
   <v>      -0.16666667       0.16666667       0.00000000 </v>
   <v>       0.33333333       0.33333333       0.00000000 </v>
   <v>       0.50000000       0.33333333       0.00000000 </v>
   <v>      -0.33333333       0.33333333       0.00000000 </v>
   <v>       0.50000000       0.50000000       0.00000000 </v>
   <v>       0.50000000       0.33333333       0.16666667 </v>
   <v>      -0.33333333       0.33333333       0.16666667 </v>
   <v>      -0.33333333       0.50000000       0.16666667 </v>
  </varray>
  <varray name="weights" >
   <v>       0.00462963 </v>
   <v>       0.03703704 </v>
   <v>       0.03703704 </v>
   <v>       0.01851852 </v>
   <v>       0.02777778 </v>
   <v>       0.11111111 </v>
   <v>       0.11111111 </v>
   <v>       0.11111111 </v>
   <v>       0.05555556 </v>
   <v>       0.02777778 </v>
   <v>       0.11111111 </v>
   <v>       0.05555556 </v>
   <v>       0.01388889 </v>
   <v>       0.11111111 </v>
   <v>       0.11111111 </v>
   <v>       0.05555556 </v>
  </varray>
  <varray name="tetrahedronlist"  type="int" >
   <v type="int" >       48        2        3        6        9 </v>
   <v type="int" >       48        6        8        9       14 </v>
   <v type="int" >       24        8        8        9       14 </v>
   <v type="int" >       48        3        6        8        9 </v>
   <v type="int" >       48        8       12       14       15 </v>
   <v type="int" >       48        7        8       12       15 </v>
   <v type="int" >       24        8        8       12       14 </v>
   <v type="int" >       48        7       11       14       15 </v>
   <v type="int" >       48        6        7       11       14 </v>
   <v type="int" >       48        7       11       12       15 </v>
   <v type="int" >       24        6        6       10       14 </v>
   <v type="int" >       24        5        6        6       10 </v>
   <v type="int" >       48        6       10       11       14 </v>
   <v type="int" >       24        5        6        6        9 </v>
   <v type="int" >       48        2        5        6        9 </v>
   <v type="int" >       48        6        7        8       14 </v>
   <v type="int" >       48        3        6        7        8 </v>
   <v type="int" >       48       11       14       15       16 </v>
   <v type="int" >       24       14       15       15       16 </v>
   <v type="int" >       24       12       14       15       15 </v>
   <v type="int" >       48        7        8       14       15 </v>
   <v type="int" >       24       15       15       16       16 </v>
   <v type="int" >       24       12       15       15       16 </v>
   <v type="int" >       48       11       12       15       16 </v>
   <v type="int" >       24       11       11       14       16 </v>
   <v type="int" >       24       10       11       11       14 </v>
   <v type="int" >       24        6        6        9       14 </v>
   <v type="int" >       24       11       11       12       16 </v>
   <v type="int" >       48        7        7        8       15 </v>
   <v type="int" >       24        2        2        5        9 </v>
   <v type="int" >       48        3        4        7        8 </v>
   <v type="int" >       48        4        7        7        8 </v>
   <v type="int" >       48       11       11       13       16 </v>
   <v type="int" >       24       10       11       11       13 </v>
   <v type="int" >       24        1        2        2        5 </v>
  </varray>
  <i name="volumeweight">      0.00077160 </i>
 </kpoints>
 <parameters>
  <separator name="general" >
   <i type="string" name="SYSTEM">unknown system</i>
   <i type="logical" name="LCOMPAT"> F  </i>
  </separator>
  <separator name="electronic" >
   <i type="string" name="PREC">accura</i>
   <i name="ENMAX">    680.00000000</i>
   <i name="ENAUG">   1360.00000000</i>
   <i name="EDIFF">      0.00001000</i>
   <i type="int" name="IALGO">    38</i>
   <i type="int" name="IWAVPR">    10</i>
   <i type="int" name="NBANDS">    36</i>
   <i type="int" name="NBANDSLOW">    -1</i>
   <i type="int" name="NBANDSHIGH">    -1</i>
   <i name="NELECT">     18.00000000</i>
   <i type="int" name="TURBO">     0</i>
   <i type="int" name="IRESTART">     0</i>
   <i type="int" name="NREBOOT">     0</i>
   <i type="int" name="NMIN">     0</i>
   <i name="EREF">      0.00000000</i>
   <separator name="electronic smearing" >
    <i type="int" name="ISMEAR">    -5</i>
    <i name="SIGMA">      0.05000000</i>
    <i name="KSPACING">      0.50000000</i>
    <i type="logical" name="KGAMMA"> T  </i>
    <i type="logical" name="KBLOWUP"> T  </i>
   </separator>
   <separator name="electronic projectors" >
    <i type="logical" name="LREAL"> F  </i>
    <v name="ROPT">      0.00000000      0.00000000</v>
    <i type="int" name="LMAXPAW">  -100</i>
    <i type="int" name="LMAXMIX">     4</i>
    <i type="logical" name="NLSPLINE"> F  </i>
   </separator>
   <separator name="electronic startup" >
    <i type="int" name="ISTART">     0</i>
    <i type="int" name="ICHARG">     2</i>
    <i type="int" name="INIWAV">     1</i>
   </separator>
   <separator name="electronic spin" >
    <i type="int" name="ISPIN">     1</i>
    <i type="logical" name="LNONCOLLINEAR"> F  </i>
    <v name="MAGMOM">      1.00000000      1.00000000</v>
    <i name="NUPDOWN">     -1.00000000</i>
    <i type="logical" name="LSORBIT"> F  </i>
    <v name="SAXIS">      0.00000000      0.00000000      1.00000000</v>
    <i type="logical" name="LSPIRAL"> F  </i>
    <v name="QSPIRAL">      0.00000000      0.00000000      0.00000000</v>
    <i type="logical" name="LZEROZ"> F  </i>
   </separator>
   <separator name="electronic exchange-correlation" >
    <i type="logical" name="LASPH"> T  </i>
    <i type="logical" name="LMETAGGA"> F  </i>
   </separator>
   <separator name="electronic convergence" >
    <i type="int" name="NELM">   200</i>
    <i type="int" name="NELMDL">    -5</i>
    <i type="int" name="NELMIN">     5</i>
    <i name="ENINI">    680.00000000</i>
    <separator name="electronic convergence detail" >
     <i type="logical" name="LDIAG"> T  </i>
     <i type="logical" name="LSUBROT"> F  </i>
     <i name="WEIMIN">      0.00000000</i>
     <i name="EBREAK">      0.00000007</i>
     <i name="DEPER">      0.30000000</i>
     <i type="int" name="NRMM">     4</i>
     <i name="TIME">      0.40000000</i>
    </separator>
   </separator>
   <separator name="electronic mixer" >
    <i name="AMIX">      0.40000000</i>
    <i name="BMIX">      1.00000000</i>
    <i name="AMIN">      0.10000000</i>
    <i name="AMIX_MAG">      1.60000000</i>
    <i name="BMIX_MAG">      1.00000000</i>
    <separator name="electronic mixer details" >
     <i type="int" name="IMIX">     1</i>
     <i type="logical" name="MIXFIRST"> F  </i>
     <i type="int" name="MAXMIX">   -45</i>
     <i name="WC">    100.00000000</i>
     <i type="int" name="INIMIX">     1</i>
     <i type="int" name="MIXPRE">     1</i>
     <i type="int" name="MREMOVE">     5</i>
    </separator>
   </separator>
   <separator name="electronic dipolcorrection" >
    <i type="logical" name="LDIPOL"> F  </i>
    <i type="logical" name="LMONO"> F  </i>
    <i type="int" name="IDIPOL">     0</i>
    <i name="EPSILON">      1.00000000</i>
    <v name="DIPOL">   -100.00000000   -100.00000000   -100.00000000</v>
    <i name="EFIELD">      0.00000000</i>
   </separator>
  </separator>
  <separator name="grids" >
   <i type="int" name="NGX">    36</i>
   <i type="int" name="NGY">    36</i>
   <i type="int" name="NGZ">    36</i>
   <i type="int" name="NGXF">    72</i>
   <i type="int" name="NGYF">    72</i>
   <i type="int" name="NGZF">    72</i>
   <i type="logical" name="ADDGRID"> F  </i>
  </separator>
  <separator name="ionic" >
   <i type="int" name="NSW">     0</i>
   <i type="int" name="IBRION">    -1</i>
   <i type="int" name="MDALGO">     0</i>
   <i type="int" name="ISIF">     0</i>
   <i name="PSTRESS">      0.00000000</i>
   <i name="EDIFFG">      0.00010000</i>
   <i type="int" name="NFREE">     0</i>
   <i name="POTIM">      0.50000000</i>
   <i name="SMASS">     -3.00000000</i>
   <i name="SCALEE">      1.00000000</i>
  </separator>
  <separator name="ionic md" >
   <i name="TEBEG">      0.00010000</i>
   <i name="TEEND">      0.00010000</i>
   <i type="int" name="NBLOCK">     1</i>
   <i type="int" name="KBLOCK">     1</i>
   <i type="int" name="NPACO">   256</i>
   <i name="APACO">     10.00000000</i>
  </separator>
  <separator name="symmetry" >
   <i type="int" name="ISYM">     3</i>
   <i name="SYMPREC">      0.00001000</i>
  </separator>
  <separator name="dos" >
   <i type="int" name="LORBIT">    11</i>
   <v name="RWIGS">     -1.00000000     -1.00000000</v>
   <i type="int" name="NEDOS">  2069</i>
   <i name="EMIN">     10.00000000</i>
   <i name="EMAX">    -10.00000000</i>
   <i name="EFERMI">      0.00000000</i>
  </separator>
  <separator name="writing" >
   <i type="int" name="NWRITE">     2</i>
   <i type="logical" name="LWAVE"> T  </i>
   <i type="logical" name="LDOWNSAMPLE"> F  </i>
   <i type="logical" name="LCHARG"> T  </i>
   <i type="logical" name="LPARD"> F  </i>
   <i type="logical" name="LVTOT"> T  </i>
   <i type="logical" name="LVHAR"> F  </i>
   <i type="logical" name="LELF"> F  </i>
   <i type="logical" name="LOPTICS"> T  </i>
   <v name="STM">      0.00000000      0.00000000      0.00000000      0.00000000      0.00000000      0.00000000      0.00000000</v>
  </separator>
  <separator name="performance" >
   <i type="int" name="NPAR">    12</i>
   <i type="int" name="NSIM">     4</i>
   <i type="int" name="NBLK">    -1</i>
   <i type="logical" name="LPLANE"> T  </i>
   <i type="logical" name="LSCALAPACK"> T  </i>
   <i type="logical" name="LSCAAWARE"> T  </i>
   <i type="logical" name="LSCALU"> F  </i>
   <i type="logical" name="LASYNC"> F  </i>
   <i type="logical" name="LORBITALREAL"> F  </i>
  </separator>
  <separator name="miscellaneous" >
   <i type="int" name="IDIOT">     3</i>
   <i type="int" name="PHON_NSTRUCT">    -1</i>
   <i type="logical" name="LMUSIC"> F  </i>
   <v name="POMASS">    114.82000000     30.97400000</v>
   <v name="DARWINR">      0.00000000      0.00000000</v>
   <v name="DARWINV">      1.00000000      1.00000000</v>
   <i type="logical" name="LCORR"> T  </i>
  </separator>
  <i type="logical" name="GGA_COMPAT"> T  </i>
  <i type="logical" name="LBERRY"> F  </i>
  <i type="int" name="ICORELEVEL">     0</i>
  <i type="logical" name="LDAU"> F  </i>
  <i type="int" name="I_CONSTRAINED_M">     0</i>
  <separator name="electronic exchange-correlation" >
   <i type="string" name="GGA">PE</i>
   <i type="int" name="VOSKOWN">     0</i>
   <i type="logical" name="LHFCALC"> T  </i>
   <i type="string" name="PRECFOCK">fast</i>
   <i type="logical" name="LSYMGRAD"> F  </i>
   <i type="logical" name="LHFONE"> F  </i>
   <i type="logical" name="LRHFCALC"> F  </i>
   <i type="logical" name="LTHOMAS"> F  </i>
   <i type="logical" name="LMODELHF"> F  </i>
   <i type="logical" name="LFOCKACE"> T  </i>
   <i name="ENCUT4O">     -1.00000000</i>
   <i type="int" name="EXXOEP">     0</i>
   <i type="int" name="FOURORBIT">     0</i>
   <i name="AEXX">      0.25000000</i>
   <i name="HFALPHA">     -1.00000000</i>
   <i name="MCALPHA">      0.00000000</i>
   <i name="ALDAX">      0.75000000</i>
   <i name="AGGAX">      0.75000000</i>
   <i name="ALDAC">      1.00000000</i>
   <i name="AGGAC">      1.00000000</i>
   <i type="int" name="NKREDX">     1</i>
   <i type="int" name="NKREDY">     1</i>
   <i type="int" name="NKREDZ">     1</i>
   <i type="logical" name="SHIFTRED"> F  </i>
   <i type="logical" name="ODDONLY"> F  </i>
   <i type="logical" name="EVENONLY"> F  </i>
   <i type="int" name="LMAXFOCK">     4</i>
   <i type="int" name="NMAXFOCKAE">     1</i>
   <i type="logical" name="LFOCKAEDFT"> F  </i>
   <i name="HFSCREEN">      0.20000000</i>
   <i name="HFSCREENC">      0.20000000</i>
   <i type="int" name="NBANDSGWLOW">     1</i>
  </separator>
  <separator name="vdW DFT" >
   <i type="logical" name="LUSE_VDW"> F  </i>
   <i type="int" name="IVDW_NL">     1</i>
   <i type="logical" name="LSPIN_VDW"> F  </i>
   <i name="Zab_VDW">     -0.84910000</i>
   <i name="PARAM1">      0.12340000</i>
   <i name="PARAM2">      1.00000000</i>
   <i name="PARAM3">      0.00000000</i>
  </separator>
  <separator name="model GW" >
   <i type="int" name="MODEL_GW">     0</i>
   <i name="MODEL_EPS0">     15.43440481</i>
   <i name="MODEL_ALPHA">      1.00000000</i>
  </separator>
  <separator name="linear response parameters" >
   <i type="logical" name="LEPSILON"> F  </i>
   <i type="logical" name="LRPA"> F  </i>
   <i type="logical" name="LNABLA"> F  </i>
   <i type="logical" name="LVEL"> F  </i>
   <i name="CSHIFT">      0.00001000</i>
   <i name="OMEGAMAX">     -1.00000000</i>
   <i name="DEG_THRESHOLD">      0.00200000</i>
   <i name="RTIME">     -0.10000000</i>
   <i name="WPLASMAI">      0.00000000</i>
   <v name="DFIELD">      0.00000000      0.00000000      0.00000000</v>
   <v name="WPLASMA">      0.00000000      0.00000000      0.00000000      0.00000000      0.00000000      0.00000000      0.00000000      0.00000000      0.00000000</v>
  </separator>
  <separator name="orbital magnetization" >
   <i type="logical" name="NUCIND"> F  </i>
   <v name="MAGPOS">      0.00000000      0.00000000      0.00000000</v>
   <i type="logical" name="LNICSALL"> T  </i>
   <i type="logical" name="ORBITALMAG"> F  </i>
   <i type="logical" name="LMAGBLOCH"> F  </i>
   <i type="logical" name="LCHIMAG"> F  </i>
   <i type="logical" name="LGAUGE"> T  </i>
   <i type="int" name="MAGATOM">     0</i>
   <v name="MAGDIPOL">      0.00000000      0.00000000      0.00000000</v>
   <v name="AVECCONST">      0.00000000      0.00000000      0.00000000</v>
  </separator>
  <separator name="response functions" >
   <i type="logical" name="LALL_IN_ONE"> F  </i>
   <i type="int" name="IALL_IN_ONE">    -1</i>
   <i type="int" name="NBANDS_WAVE">    -1</i>
   <i type="logical" name="LFINITE_TEMPERATURE"> F  </i>
   <i type="logical" name="LADDER"> F  </i>
   <i type="logical" name="LRPAFORCE"> F  </i>
   <i type="logical" name="LFXC"> F  </i>
   <i type="logical" name="LHARTREE"> T  </i>
   <i type="int" name="IBSE">     0</i>
   <v type="int" name="KPOINT">    -1     0     0     0</v>
   <i type="logical" name="LTCTC"> F  </i>
   <i type="logical" name="LTCTE"> F  </i>
   <i type="logical" name="LTETE"> F  </i>
   <i type="logical" name="LTRIPLET"> F  </i>
   <i type="logical" name="LFXCEPS"> F  </i>
   <i type="logical" name="LFXHEG"> F  </i>
   <i type="int" name="NATURALO">     2</i>
   <i type="logical" name="LHOLEGF"> F  </i>
   <i type="logical" name="L2ORDER"> F  </i>
   <i type="logical" name="LDMP1"> F  </i>
   <i type="logical" name="LMP2LT"> F  </i>
   <i type="logical" name="LSMP2LT"> F  </i>
   <i type="logical" name="LGWLF"> F  </i>
   <i name="ENCUTGW">     -1.60000002</i>
   <i name="ENCUTGWSOFT">     -1.60000002</i>
   <i name="ENCUTLF">     -1.00000000</i>
   <i type="logical" name="LESF_SPLINES"> F  </i>
   <i type="int" name="LMAXMP2">    -1</i>
   <i name="SCISSOR">      0.00000000</i>
   <i type="int" name="NOMEGA">     0</i>
   <i type="int" name="NOMEGAR">     0</i>
   <i type="int" name="NBANDSGW">    -1</i>
   <i type="int" name="NBANDSO">    -1</i>
   <i type="int" name="NBANDSV">    -1</i>
   <i type="int" name="NELMGW">     1</i>
   <i type="int" name="NELMHF">     1</i>
   <i type="int" name="DIM">     3</i>
   <i type="int" name="IESPILON">     4</i>
   <i type="int" name="ANTIRES">     0</i>
   <i name="OMEGAMAX">    -30.00000000</i>
   <i name="OMEGAMIN">    -30.00000000</i>
   <i name="OMEGATL">   -200.00000000</i>
   <i type="int" name="OMEGAGRID">     0</i>
   <i name="CSHIFT">      0.00001000</i>
   <i type="logical" name="LSELFENERGY"> F  </i>
   <i type="logical" name="LSPECTRAL"> F  </i>
   <i type="logical" name="LSPECTRALGW"> F  </i>
   <i type="logical" name="LSINGLES"> F  </i>
   <i type="logical" name="LFERMIGW"> F  </i>
   <i type="logical" name="ODDONLYGW"> F  </i>
   <i type="logical" name="EVENONLYGW"> F  </i>
   <i type="int" name="NKREDLFX">     1</i>
   <i type="int" name="NKREDLFY">     1</i>
   <i type="int" name="NKREDLFZ">     1</i>
   <i type="int" name="MAXMEM">  2800</i>
   <i type="int" name="TELESCOPE">     0</i>
   <i type="int" name="NTAUPAR">    -1</i>
   <i type="int" name="NOMEGAPAR">    -1</i>
   <i name="DAMP_NEWTON">      0.80000001</i>
   <i name="LAMBDA">      1.00000000</i>
  </separator>
  <separator name="External order field" >
   <i name="OFIELD_KAPPA">      0.00000000</i>
   <v name="OFIELD_K">      0.00000000      0.00000000      0.00000000</v>
   <i name="OFIELD_Q6_NEAR">      0.00000000</i>
   <i name="OFIELD_Q6_FAR">      0.00000000</i>
   <i name="OFIELD_A">      0.00000000</i>
  </separator>
  <separator name="optional k-points parameters" >
   <i type="int" name="KPOINTS_OPT_MODE">     1</i>
   <i type="logical" name="LKPOINTS_OPT"> F  </i>
  </separator>
 </parameters>
 <atominfo>
  <atoms>       2 </atoms>
  <types>       2 </types>
  <array name="atoms" >
   <dimension dim="1">ion</dimension>
   <field type="string">element</field>
   <field type="int">atomtype</field>
   <set>
    <rc><c>In</c><c>   1</c></rc>
    <rc><c>P </c><c>   2</c></rc>
   </set>
  </array>
  <array name="atomtypes" >
   <dimension dim="1">type</dimension>
   <field type="int">atomspertype</field>
   <field type="string">element</field>
   <field>mass</field>
   <field>valence</field>
   <field type="string">pseudopotential</field>
   <set>
    <rc><c>   1</c><c>In</c><c>    114.82000000</c><c>     13.00000000</c><c>  PAW_PBE In_d 06Sep2000                </c></rc>
    <rc><c>   1</c><c>P </c><c>     30.97400000</c><c>      5.00000000</c><c>  PAW_PBE P 06Sep2000                   </c></rc>
   </set>
  </array>
 </atominfo>
 <structure name="initialpos" >
  <crystal>
   <varray name="basis" >
    <v>       3.61541800       0.00000000       2.08736254 </v>
    <v>       1.20513900       3.40864864       2.08736254 </v>
    <v>       0.00000000       0.00000000       4.17472507 </v>
   </varray>
   <i name="volume">     51.44801605 </i>
   <varray name="rec_basis" >
    <v>       0.27659319      -0.09779044       0.00000000 </v>
    <v>       0.00000000       0.29337139       0.00000000 </v>
    <v>      -0.13829660      -0.09779048       0.23953673 </v>
   </varray>
  </crystal>
  <varray name="positions" >
   <v>       0.00000000       0.00000000       0.00000000 </v>
   <v>       0.25000000       0.25000000       0.25000000 </v>
  </varray>
 </structure>
 <calculation>
  <scstep>
   <time name="dav">    0.20    0.20</time>
   <time name="total">    0.35    0.35</time>
   <energy>
    <i name="alphaZ">     31.71721604 </i>
    <i name="ewald">  -1211.83925518 </i>
    <i name="hartreedc">   -558.38470678 </i>
    <i name="XCdc">     45.01060177 </i>
    <i name="pawpsdc">   1520.70025292 </i>
    <i name="pawaedc">  -2615.56294696 </i>
    <i name="eentropy">      0.00000000 </i>
    <i name="bandstr">     37.26495850 </i>
    <i name="atom">   1750.64560241 </i>
    <i name="e_fr_energy">  -1000.44827727 </i>
    <i name="e_wo_entrp">  -1000.44827727 </i>
    <i name="e_0_energy">  -1000.44827727 </i>
   </energy>
  </scstep>
  <scstep>
   <time name="dav">    0.16    0.17</time>
   <time name="total">    0.16    0.17</time>
   <energy>
    <i name="e_fr_energy">  -1151.90747336 </i>
    <i name="e_wo_entrp">  -1151.90747336 </i>
    <i name="e_0_energy">  -1151.90747336 </i>
   </energy>
  </scstep>
  <scstep>
   <time name="dav">    0.18    0.20</time>
   <time name="total">    0.18    0.20</time>
   <energy>
    <i name="e_fr_energy">  -1167.34583834 </i>
    <i name="e_wo_entrp">  -1167.34583834 </i>
    <i name="e_0_energy">  -1167.34583834 </i>
   </energy>
  </scstep>
  <scstep>
   <time name="dav">    0.17    0.19</time>
   <time name="total">    0.18    0.19</time>
   <energy>
    <i name="e_fr_energy">  -1167.68939416 </i>
    <i name="e_wo_entrp">  -1167.68939416 </i>
    <i name="e_0_energy">  -1167.68939416 </i>
   </energy>
  </scstep>
  <scstep>
   <time name="dav">   11.70   11.74</time>
   <time name="total">   12.08   12.13</time>
   <energy>
    <i name="e_fr_energy">    -10.47955247 </i>
    <i name="e_wo_entrp">    -10.47955247 </i>
    <i name="e_0_energy">    -10.47955247 </i>
   </energy>
  </scstep>
  <scstep>
   <time name="dav">   11.15   11.17</time>
   <time name="total">   11.52   11.56</time>
   <energy>
    <i name="e_fr_energy">    -10.02862172 </i>
    <i name="e_wo_entrp">    -10.02862172 </i>
    <i name="e_0_energy">    -10.02862172 </i>
   </energy>
  </scstep>
  <scstep>
   <time name="dav">   11.88   11.91</time>
   <time name="total">   12.25   12.29</time>
   <energy>
    <i name="e_fr_energy">    -10.02004196 </i>
    <i name="e_wo_entrp">    -10.02004196 </i>
    <i name="e_0_energy">    -10.02004196 </i>
   </energy>
  </scstep>
  <scstep>
   <time name="dav">   11.45   11.48</time>
   <time name="total">   11.82   11.86</time>
   <energy>
    <i name="e_fr_energy">    -10.02056983 </i>
    <i name="e_wo_entrp">    -10.02056983 </i>
    <i name="e_0_energy">    -10.02056983 </i>
   </energy>
  </scstep>
  <scstep>
   <time name="dav">   11.31   11.34</time>
   <time name="total">   11.68   11.72</time>
   <energy>
    <i name="e_fr_energy">    -10.01699860 </i>
    <i name="e_wo_entrp">    -10.01699860 </i>
    <i name="e_0_energy">    -10.01699860 </i>
   </energy>
  </scstep>
  <scstep>
   <time name="dav">   11.08   11.11</time>
   <time name="total">   11.45   11.50</time>
   <energy>
    <i name="e_fr_energy">    -10.01607342 </i>
    <i name="e_wo_entrp">    -10.01607342 </i>
    <i name="e_0_energy">    -10.01607342 </i>
   </energy>
  </scstep>
  <scstep>
   <time name="dav">   11.50   11.53</time>
   <time name="total">   11.87   11.92</time>
   <energy>
    <i name="e_fr_energy">    -10.01596097 </i>
    <i name="e_wo_entrp">    -10.01596097 </i>
    <i name="e_0_energy">    -10.01596097 </i>
   </energy>
  </scstep>
  <scstep>
   <time name="dav">   11.70   11.73</time>
   <time name="total">   12.07   12.11</time>
   <energy>
    <i name="e_fr_energy">    -10.01598272 </i>
    <i name="e_wo_entrp">    -10.01598272 </i>
    <i name="e_0_energy">    -10.01598272 </i>
   </energy>
  </scstep>
  <scstep>
   <time name="dav">   11.25   11.28</time>
   <time name="total">   11.62   11.66</time>
   <energy>
    <i name="e_fr_energy">    -10.01602194 </i>
    <i name="e_wo_entrp">    -10.01602194 </i>
    <i name="e_0_energy">    -10.01602194 </i>
   </energy>
  </scstep>
  <scstep>
   <time name="dav">   11.77   11.80</time>
   <time name="total">   12.14   12.18</time>
   <energy>
    <i name="e_fr_energy">    -10.01605293 </i>
    <i name="e_wo_entrp">    -10.01605293 </i>
    <i name="e_0_energy">    -10.01605293 </i>
   </energy>
  </scstep>
  <scstep>
   <time name="dav">   11.57   11.60</time>
   <time name="total">   11.94   11.98</time>
   <energy>
    <i name="e_fr_energy">    -10.01607173 </i>
    <i name="e_wo_entrp">    -10.01607173 </i>
    <i name="e_0_energy">    -10.01607173 </i>
   </energy>
  </scstep>
  <scstep>
   <time name="dav">   11.15   11.17</time>
   <time name="total">   11.51   11.56</time>
   <energy>
    <i name="e_fr_energy">    -10.01608278 </i>
    <i name="e_wo_entrp">    -10.01608278 </i>
    <i name="e_0_energy">    -10.01608278 </i>
   </energy>
  </scstep>
  <scstep>
   <time name="dav">   11.47   11.50</time>
   <time name="total">   11.82   11.87</time>
   <energy>
    <i name="alphaZ">     31.71721604 </i>
    <i name="ewald">  -1211.83925518 </i>
    <i name="hartreedc">   -557.13040707 </i>
    <i name="XCdc">     34.08535555 </i>
    <i name="pawpsdc">   3676.13746227 </i>
    <i name="pawaedc">  -3655.73073197 </i>
    <i name="eentropy">      0.00000000 </i>
    <i name="bandstr">   -116.29440740 </i>
    <i name="atom">   1750.64560241 </i>
    <i name="e_fr_energy">    -10.01608897 </i>
    <i name="e_wo_entrp">    -10.01608897 </i>
    <i name="e_0_energy">    -10.01608897 </i>
   </energy>
  </scstep>
  <structure>
   <crystal>
    <varray name="basis" >
     <v>       3.61541800       0.00000000       2.08736254 </v>
     <v>       1.20513900       3.40864864       2.08736254 </v>
     <v>       0.00000000       0.00000000       4.17472507 </v>
    </varray>
    <i name="volume">     51.44801605 </i>
    <varray name="rec_basis" >
     <v>       0.27659319      -0.09779044       0.00000000 </v>
     <v>       0.00000000       0.29337139       0.00000000 </v>
     <v>      -0.13829660      -0.09779048       0.23953673 </v>
    </varray>
   </crystal>
   <varray name="positions" >
    <v>       0.00000000       0.00000000       0.00000000 </v>
    <v>       0.25000000       0.25000000       0.25000000 </v>
   </varray>
  </structure>
  <varray name="forces" >
   <v>       0.00000000       0.00000000      -0.00000000 </v>
   <v>      -0.00000000      -0.00000000       0.00000000 </v>
  </varray>
  <energy>
   <i name="e_fr_energy">    -10.01608897 </i>
   <i name="e_wo_entrp">    -10.01608897 </i>
   <i name="e_0_energy">    -10.01608897 </i>
  </energy>
  <time name="totalsc">  159.96  160.62</time>
  <eigenvalues>
   <array>
    <dimension dim="1">band</dimension>
    <dimension dim="2">kpoint</dimension>
    <dimension dim="3">spin</dimension>
    <field>eigene</field>
    <field>occ</field>
    <set>
     <set comment="spin 1">
      <set comment="kpoint 1">
       <r>  -11.3312    1.0000 </r>
       <r>  -11.3312    1.0000 </r>
       <r>  -11.3312    1.0000 </r>
       <r>  -11.1803    1.0000 </r>
       <r>  -11.1803    1.0000 </r>
       <r>   -8.0700    1.0000 </r>
       <r>    4.5234    1.0000 </r>
       <r>    4.5234    1.0000 </r>
       <r>    4.5234    1.0000 </r>
       <r>    5.9033    0.0000 </r>
       <r>    9.4564    0.0000 </r>
       <r>    9.4564    0.0000 </r>
       <r>    9.4564    0.0000 </r>
       <r>   14.0094    0.0000 </r>
       <r>   15.0023    0.0000 </r>
       <r>   15.0023    0.0000 </r>
       <r>   16.6686    0.0000 </r>
       <r>   16.6686    0.0000 </r>
       <r>   16.6686    0.0000 </r>
       <r>   19.1979    0.0000 </r>
       <r>   28.0144    0.0000 </r>
       <r>   28.0144    0.0000 </r>
       <r>   28.0144    0.0000 </r>
       <r>   29.8936    0.0000 </r>
       <r>   29.8936    0.0000 </r>
       <r>   29.8936    0.0000 </r>
       <r>   29.9668    0.0000 </r>
       <r>   29.9668    0.0000 </r>
       <r>   29.9668    0.0000 </r>
       <r>   30.9131    0.0000 </r>
       <r>   30.9131    0.0000 </r>
       <r>   38.5469    0.0000 </r>
       <r>   39.7859    0.0000 </r>
       <r>   39.7860    0.0000 </r>
       <r>   39.7862    0.0000 </r>
       <r>   39.9713    0.0000 </r>
      </set>
      <set comment="kpoint 2">
       <r>  -11.3589    1.0000 </r>
       <r>  -11.3195    1.0000 </r>
       <r>  -11.3195    1.0000 </r>
       <r>  -11.1800    1.0000 </r>
       <r>  -11.1800    1.0000 </r>
       <r>   -7.7411    1.0000 </r>
       <r>    2.2650    1.0000 </r>
       <r>    4.2073    1.0000 </r>
       <r>    4.2073    1.0000 </r>
       <r>    7.0285    0.0000 </r>
       <r>    9.8389    0.0000 </r>
       <r>    9.9191    0.0000 </r>
       <r>    9.9191    0.0000 </r>
       <r>   14.1012    0.0000 </r>
       <r>   14.1012    0.0000 </r>
       <r>   14.9263    0.0000 </r>
       <r>   16.3777    0.0000 </r>
       <r>   18.6665    0.0000 </r>
       <r>   18.6665    0.0000 </r>
       <r>   21.3518    0.0000 </r>
       <r>   24.8445    0.0000 </r>
       <r>   24.9403    0.0000 </r>
       <r>   24.9403    0.0000 </r>
       <r>   29.5473    0.0000 </r>
       <r>   29.5473    0.0000 </r>
       <r>   30.2039    0.0000 </r>
       <r>   30.2511    0.0000 </r>
       <r>   30.2511    0.0000 </r>
       <r>   31.6745    0.0000 </r>
       <r>   33.9459    0.0000 </r>
       <r>   33.9459    0.0000 </r>
       <r>   37.0668    0.0000 </r>
       <r>   37.0668    0.0000 </r>
       <r>   37.1622    0.0000 </r>
       <r>   39.4036    0.0000 </r>
       <r>   39.4493    0.0000 </r>
      </set>
      <set comment="kpoint 3">
       <r>  -11.4113    1.0000 </r>
       <r>  -11.3005    1.0000 </r>
       <r>  -11.3005    1.0000 </r>
       <r>  -11.1746    1.0000 </r>
       <r>  -11.1746    1.0000 </r>
       <r>   -6.8938    1.0000 </r>
       <r>   -0.3500    1.0000 </r>
       <r>    3.7052    1.0000 </r>
       <r>    3.7052    1.0000 </r>
       <r>    6.9018    0.0000 </r>
       <r>   10.2644    0.0000 </r>
       <r>   10.2644    0.0000 </r>
       <r>   11.7163    0.0000 </r>
       <r>   14.3098    0.0000 </r>
       <r>   14.6329    0.0000 </r>
       <r>   14.6329    0.0000 </r>
       <r>   19.4654    0.0000 </r>
       <r>   20.8049    0.0000 </r>
       <r>   20.8049    0.0000 </r>
       <r>   21.3412    0.0000 </r>
       <r>   22.1771    0.0000 </r>
       <r>   22.1771    0.0000 </r>
       <r>   25.3435    0.0000 </r>
       <r>   29.3708    0.0000 </r>
       <r>   29.3708    0.0000 </r>
       <r>   30.4661    0.0000 </r>
       <r>   30.5433    0.0000 </r>
       <r>   30.5433    0.0000 </r>
       <r>   30.7839    0.0000 </r>
       <r>   31.9857    0.0000 </r>
       <r>   31.9857    0.0000 </r>
       <r>   34.5104    0.0000 </r>
       <r>   36.6151    0.0000 </r>
       <r>   37.8094    0.0000 </r>
       <r>   37.8094    0.0000 </r>
       <r>   38.2170    0.0000 </r>
      </set>
      <set comment="kpoint 4">
       <r>  -11.4362    1.0000 </r>
       <r>  -11.2937    1.0000 </r>
       <r>  -11.2937    1.0000 </r>
       <r>  -11.1689    1.0000 </r>
       <r>  -11.1689    1.0000 </r>
       <r>   -6.2715    1.0000 </r>
       <r>   -1.6074    1.0000 </r>
       <r>    3.4951    1.0000 </r>
       <r>    3.4951    1.0000 </r>
       <r>    6.7350    0.0000 </r>
       <r>   10.1901    0.0000 </r>
       <r>   10.1901    0.0000 </r>
       <r>   12.5284    0.0000 </r>
       <r>   15.0030    0.0000 </r>
       <r>   16.3188    0.0000 </r>
       <r>   16.3188    0.0000 </r>
       <r>   18.0313    0.0000 </r>
       <r>   18.3002    0.0000 </r>
       <r>   18.3002    0.0000 </r>
       <r>   23.9515    0.0000 </r>
       <r>   25.2258    0.0000 </r>
       <r>   25.2258    0.0000 </r>
       <r>   26.3290    0.0000 </r>
       <r>   26.7835    0.0000 </r>
       <r>   26.7835    0.0000 </r>
       <r>   30.1452    0.0000 </r>
       <r>   30.1452    0.0000 </r>
       <r>   30.4220    0.0000 </r>
       <r>   30.9421    0.0000 </r>
       <r>   31.1619    0.0000 </r>
       <r>   32.1636    0.0000 </r>
       <r>   32.1636    0.0000 </r>
       <r>   35.1782    0.0000 </r>
       <r>   37.0127    0.0000 </r>
       <r>   37.0127    0.0000 </r>
       <r>   37.1410    0.0000 </r>
      </set>
      <set comment="kpoint 5">
       <r>  -11.3799    1.0000 </r>
       <r>  -11.3075    1.0000 </r>
       <r>  -11.3075    1.0000 </r>
       <r>  -11.1901    1.0000 </r>
       <r>  -11.1725    1.0000 </r>
       <r>   -7.6324    1.0000 </r>
       <r>    2.3114    1.0000 </r>
       <r>    3.6763    1.0000 </r>
       <r>    3.6763    1.0000 </r>
       <r>    7.9085    0.0000 </r>
       <r>    8.4123    0.0000 </r>
       <r>   10.7142    0.0000 </r>
       <r>   10.7142    0.0000 </r>
       <r>   12.6542    0.0000 </r>
       <r>   15.2804    0.0000 </r>
       <r>   16.0148    0.0000 </r>
       <r>   17.6129    0.0000 </r>
       <r>   17.6129    0.0000 </r>
       <r>   17.9251    0.0000 </r>
       <r>   22.5751    0.0000 </r>
       <r>   24.2327    0.0000 </r>
       <r>   24.2327    0.0000 </r>
       <r>   26.0593    0.0000 </r>
       <r>   26.3951    0.0000 </r>
       <r>   28.4987    0.0000 </r>
       <r>   30.3264    0.0000 </r>
       <r>   30.3264    0.0000 </r>
       <r>   32.4229    0.0000 </r>
       <r>   33.4311    0.0000 </r>
       <r>   33.4311    0.0000 </r>
       <r>   34.4077    0.0000 </r>
       <r>   34.8407    0.0000 </r>
       <r>   37.3138    0.0000 </r>
       <r>   37.3138    0.0000 </r>
       <r>   38.6819    0.0000 </r>
       <r>   39.6010    0.0000 </r>
      </set>
      <set comment="kpoint 6">
       <r>  -11.4215    1.0000 </r>
       <r>  -11.2904    1.0000 </r>
       <r>  -11.2857    1.0000 </r>
       <r>  -11.1945    1.0000 </r>
       <r>  -11.1660    1.0000 </r>
       <r>   -6.9477    1.0000 </r>
       <r>    0.3180    1.0000 </r>
       <r>    2.9735    1.0000 </r>
       <r>    3.1449    1.0000 </r>
       <r>    7.9985    0.0000 </r>
       <r>    9.0939    0.0000 </r>
       <r>   10.9054    0.0000 </r>
       <r>   11.4140    0.0000 </r>
       <r>   13.5949    0.0000 </r>
       <r>   15.5728    0.0000 </r>
       <r>   16.2458    0.0000 </r>
       <r>   18.8243    0.0000 </r>
       <r>   19.8915    0.0000 </r>
       <r>   20.8652    0.0000 </r>
       <r>   20.9426    0.0000 </r>
       <r>   21.4734    0.0000 </r>
       <r>   24.3699    0.0000 </r>
       <r>   25.9277    0.0000 </r>
       <r>   26.2041    0.0000 </r>
       <r>   27.0218    0.0000 </r>
       <r>   29.7948    0.0000 </r>
       <r>   30.8576    0.0000 </r>
       <r>   31.2715    0.0000 </r>
       <r>   32.6975    0.0000 </r>
       <r>   33.0449    0.0000 </r>
       <r>   33.6201    0.0000 </r>
       <r>   34.5719    0.0000 </r>
       <r>   36.2361    0.0000 </r>
       <r>   36.5620    0.0000 </r>
       <r>   37.5502    0.0000 </r>
       <r>   37.9366    0.0000 </r>
      </set>
      <set comment="kpoint 7">
       <r>  -11.4449    1.0000 </r>
       <r>  -11.2855    1.0000 </r>
       <r>  -11.2770    1.0000 </r>
       <r>  -11.1845    1.0000 </r>
       <r>  -11.1658    1.0000 </r>
       <r>   -6.1449    1.0000 </r>
       <r>   -1.3264    1.0000 </r>
       <r>    2.2653    1.0000 </r>
       <r>    3.0555    1.0000 </r>
       <r>    7.8596    0.0000 </r>
       <r>    9.7458    0.0000 </r>
       <r>   11.1536    0.0000 </r>
       <r>   12.0682    0.0000 </r>
       <r>   14.8160    0.0000 </r>
       <r>   16.3761    0.0000 </r>
       <r>   16.5330    0.0000 </r>
       <r>   17.6176    0.0000 </r>
       <r>   18.6139    0.0000 </r>
       <r>   21.3644    0.0000 </r>
       <r>   22.8877    0.0000 </r>
       <r>   23.3639    0.0000 </r>
       <r>   25.0651    0.0000 </r>
       <r>   25.7177    0.0000 </r>
       <r>   26.7346    0.0000 </r>
       <r>   27.2188    0.0000 </r>
       <r>   29.1474    0.0000 </r>
       <r>   29.2872    0.0000 </r>
       <r>   30.2937    0.0000 </r>
       <r>   31.2186    0.0000 </r>
       <r>   32.1675    0.0000 </r>
       <r>   32.5741    0.0000 </r>
       <r>   32.8150    0.0000 </r>
       <r>   33.4006    0.0000 </r>
       <r>   35.8985    0.0000 </r>
       <r>   36.5455    0.0000 </r>
       <r>   37.8651    0.0000 </r>
      </set>
      <set comment="kpoint 8">
       <r>  -11.4336    1.0000 </r>
       <r>  -11.2885    1.0000 </r>
       <r>  -11.2846    1.0000 </r>
       <r>  -11.1781    1.0000 </r>
       <r>  -11.1742    1.0000 </r>
       <r>   -6.3683    1.0000 </r>
       <r>   -0.9152    1.0000 </r>
       <r>    2.0701    1.0000 </r>
       <r>    3.4545    1.0000 </r>
       <r>    8.0113    0.0000 </r>
       <r>    9.9822    0.0000 </r>
       <r>   10.8034    0.0000 </r>
       <r>   11.8399    0.0000 </r>
       <r>   14.1355    0.0000 </r>
       <r>   15.5799    0.0000 </r>
       <r>   16.7281    0.0000 </r>
       <r>   17.6103    0.0000 </r>
       <r>   20.3516    0.0000 </r>
       <r>   21.1210    0.0000 </r>
       <r>   21.3143    0.0000 </r>
       <r>   23.4011    0.0000 </r>
       <r>   24.8751    0.0000 </r>
       <r>   25.9333    0.0000 </r>
       <r>   27.2259    0.0000 </r>
       <r>   27.9454    0.0000 </r>
       <r>   28.5231    0.0000 </r>
       <r>   29.0154    0.0000 </r>
       <r>   30.2771    0.0000 </r>
       <r>   31.4206    0.0000 </r>
       <r>   31.8142    0.0000 </r>
       <r>   32.4577    0.0000 </r>
       <r>   34.0525    0.0000 </r>
       <r>   35.2186    0.0000 </r>
       <r>   35.8737    0.0000 </r>
       <r>   36.9790    0.0000 </r>
       <r>   37.5277    0.0000 </r>
      </set>
      <set comment="kpoint 9">
       <r>  -11.3951    1.0000 </r>
       <r>  -11.3059    1.0000 </r>
       <r>  -11.2997    1.0000 </r>
       <r>  -11.1851    1.0000 </r>
       <r>  -11.1738    1.0000 </r>
       <r>   -7.2320    1.0000 </r>
       <r>    0.9159    1.0000 </r>
       <r>    2.7619    1.0000 </r>
       <r>    4.0575    1.0000 </r>
       <r>    8.0015    0.0000 </r>
       <r>    9.7732    0.0000 </r>
       <r>   10.2395    0.0000 </r>
       <r>   10.6724    0.0000 </r>
       <r>   13.1749    0.0000 </r>
       <r>   14.9987    0.0000 </r>
       <r>   16.4778    0.0000 </r>
       <r>   17.0532    0.0000 </r>
       <r>   19.3095    0.0000 </r>
       <r>   20.8811    0.0000 </r>
       <r>   21.4726    0.0000 </r>
       <r>   23.4141    0.0000 </r>
       <r>   24.4625    0.0000 </r>
       <r>   24.7455    0.0000 </r>
       <r>   26.0462    0.0000 </r>
       <r>   27.8865    0.0000 </r>
       <r>   30.4383    0.0000 </r>
       <r>   30.7116    0.0000 </r>
       <r>   32.2765    0.0000 </r>
       <r>   32.4759    0.0000 </r>
       <r>   33.4681    0.0000 </r>
       <r>   33.6611    0.0000 </r>
       <r>   35.3442    0.0000 </r>
       <r>   36.5780    0.0000 </r>
       <r>   37.0462    0.0000 </r>
       <r>   37.4929    0.0000 </r>
       <r>   38.2950    0.0000 </r>
      </set>
      <set comment="kpoint 10">
       <r>  -11.4635    1.0000 </r>
       <r>  -11.2583    1.0000 </r>
       <r>  -11.2583    1.0000 </r>
       <r>  -11.2137    1.0000 </r>
       <r>  -11.1570    1.0000 </r>
       <r>   -6.4903    1.0000 </r>
       <r>   -0.2301    1.0000 </r>
       <r>    2.5151    1.0000 </r>
       <r>    2.5151    1.0000 </r>
       <r>    7.2715    0.0000 </r>
       <r>    8.1388    0.0000 </r>
       <r>   13.1229    0.0000 </r>
       <r>   13.1606    0.0000 </r>
       <r>   13.1606    0.0000 </r>
       <r>   15.9961    0.0000 </r>
       <r>   18.8960    0.0000 </r>
       <r>   19.9367    0.0000 </r>
       <r>   19.9367    0.0000 </r>
       <r>   20.4723    0.0000 </r>
       <r>   20.5971    0.0000 </r>
       <r>   20.5971    0.0000 </r>
       <r>   22.7837    0.0000 </r>
       <r>   23.3044    0.0000 </r>
       <r>   27.1556    0.0000 </r>
       <r>   28.8578    0.0000 </r>
       <r>   29.3931    0.0000 </r>
       <r>   29.7142    0.0000 </r>
       <r>   29.7142    0.0000 </r>
       <r>   31.8166    0.0000 </r>
       <r>   31.8166    0.0000 </r>
       <r>   33.4099    0.0000 </r>
       <r>   34.6028    0.0000 </r>
       <r>   35.8399    0.0000 </r>
       <r>   37.0562    0.0000 </r>
       <r>   37.0562    0.0000 </r>
       <r>   39.6169    0.0000 </r>
      </set>
      <set comment="kpoint 11">
       <r>  -11.4792    1.0000 </r>
       <r>  -11.2543    1.0000 </r>
       <r>  -11.2462    1.0000 </r>
       <r>  -11.2123    1.0000 </r>
       <r>  -11.1564    1.0000 </r>
       <r>   -5.8133    1.0000 </r>
       <r>   -1.2505    1.0000 </r>
       <r>    1.5847    1.0000 </r>
       <r>    2.3542    1.0000 </r>
       <r>    7.4668    0.0000 </r>
       <r>    8.7568    0.0000 </r>
       <r>   12.6720    0.0000 </r>
       <r>   13.3568    0.0000 </r>
       <r>   15.1666    0.0000 </r>
       <r>   16.5727    0.0000 </r>
       <r>   17.7145    0.0000 </r>
       <r>   18.5463    0.0000 </r>
       <r>   19.4062    0.0000 </r>
       <r>   21.2850    0.0000 </r>
       <r>   22.3064    0.0000 </r>
       <r>   22.7240    0.0000 </r>
       <r>   23.8415    0.0000 </r>
       <r>   24.5301    0.0000 </r>
       <r>   25.3489    0.0000 </r>
       <r>   26.7096    0.0000 </r>
       <r>   27.6517    0.0000 </r>
       <r>   28.4968    0.0000 </r>
       <r>   30.5601    0.0000 </r>
       <r>   32.0341    0.0000 </r>
       <r>   32.3992    0.0000 </r>
       <r>   32.6962    0.0000 </r>
       <r>   33.7162    0.0000 </r>
       <r>   33.8315    0.0000 </r>
       <r>   36.5228    0.0000 </r>
       <r>   36.7983    0.0000 </r>
       <r>   38.0519    0.0000 </r>
      </set>
      <set comment="kpoint 12">
       <r>  -11.4608    1.0000 </r>
       <r>  -11.2722    1.0000 </r>
       <r>  -11.2567    1.0000 </r>
       <r>  -11.1935    1.0000 </r>
       <r>  -11.1698    1.0000 </r>
       <r>   -5.7416    1.0000 </r>
       <r>   -1.3138    1.0000 </r>
       <r>    0.9406    1.0000 </r>
       <r>    2.7580    1.0000 </r>
       <r>    7.8779    0.0000 </r>
       <r>   10.5579    0.0000 </r>
       <r>   12.3299    0.0000 </r>
       <r>   12.4920    0.0000 </r>
       <r>   13.4772    0.0000 </r>
       <r>   14.7421    0.0000 </r>
       <r>   18.7808    0.0000 </r>
       <r>   19.6867    0.0000 </r>
       <r>   20.0829    0.0000 </r>
       <r>   20.7350    0.0000 </r>
       <r>   20.9885    0.0000 </r>
       <r>   23.2631    0.0000 </r>
       <r>   25.3068    0.0000 </r>
       <r>   26.1405    0.0000 </r>
       <r>   26.7732    0.0000 </r>
       <r>   27.4306    0.0000 </r>
       <r>   27.7146    0.0000 </r>
       <r>   27.9844    0.0000 </r>
       <r>   29.5393    0.0000 </r>
       <r>   30.2059    0.0000 </r>
       <r>   31.8113    0.0000 </r>
       <r>   32.4356    0.0000 </r>
       <r>   32.7559    0.0000 </r>
       <r>   33.3934    0.0000 </r>
       <r>   36.6956    0.0000 </r>
       <r>   37.4088    0.0000 </r>
       <r>   37.4272    0.0000 </r>
      </set>
      <set comment="kpoint 13">
       <r>  -11.5008    1.0000 </r>
       <r>  -11.2329    1.0000 </r>
       <r>  -11.2329    1.0000 </r>
       <r>  -11.2269    1.0000 </r>
       <r>  -11.1491    1.0000 </r>
       <r>   -5.5853    1.0000 </r>
       <r>   -1.6240    1.0000 </r>
       <r>    2.0589    1.0000 </r>
       <r>    2.0589    1.0000 </r>
       <r>    6.9379    0.0000 </r>
       <r>    7.5288    0.0000 </r>
       <r>   14.8129    0.0000 </r>
       <r>   15.2950    0.0000 </r>
       <r>   15.2950    0.0000 </r>
       <r>   16.5052    0.0000 </r>
       <r>   17.4701    0.0000 </r>
       <r>   17.4701    0.0000 </r>
       <r>   19.0613    0.0000 </r>
       <r>   21.8845    0.0000 </r>
       <r>   21.9841    0.0000 </r>
       <r>   24.1261    0.0000 </r>
       <r>   24.1261    0.0000 </r>
       <r>   24.4806    0.0000 </r>
       <r>   25.1096    0.0000 </r>
       <r>   25.1096    0.0000 </r>
       <r>   25.4718    0.0000 </r>
       <r>   26.5710    0.0000 </r>
       <r>   30.4924    0.0000 </r>
       <r>   32.7914    0.0000 </r>
       <r>   32.7914    0.0000 </r>
       <r>   34.0693    0.0000 </r>
       <r>   35.8308    0.0000 </r>
       <r>   35.8308    0.0000 </r>
       <r>   35.8413    0.0000 </r>
       <r>   35.8748    0.0000 </r>
       <r>   37.2142    0.0000 </r>
      </set>
      <set comment="kpoint 14">
       <r>  -11.4507    1.0000 </r>
       <r>  -11.2789    1.0000 </r>
       <r>  -11.2625    1.0000 </r>
       <r>  -11.1982    1.0000 </r>
       <r>  -11.1643    1.0000 </r>
       <r>   -6.2335    1.0000 </r>
       <r>   -0.6966    1.0000 </r>
       <r>    1.6778    1.0000 </r>
       <r>    2.7244    1.0000 </r>
       <r>    8.8843    0.0000 </r>
       <r>    9.1264    0.0000 </r>
       <r>   10.4147    0.0000 </r>
       <r>   13.0406    0.0000 </r>
       <r>   13.8684    0.0000 </r>
       <r>   16.7250    0.0000 </r>
       <r>   17.4680    0.0000 </r>
       <r>   18.2627    0.0000 </r>
       <r>   19.2920    0.0000 </r>
       <r>   20.4606    0.0000 </r>
       <r>   22.4644    0.0000 </r>
       <r>   23.2211    0.0000 </r>
       <r>   23.9618    0.0000 </r>
       <r>   25.4017    0.0000 </r>
       <r>   26.2157    0.0000 </r>
       <r>   27.1743    0.0000 </r>
       <r>   28.3856    0.0000 </r>
       <r>   29.4160    0.0000 </r>
       <r>   30.0012    0.0000 </r>
       <r>   31.3631    0.0000 </r>
       <r>   32.4616    0.0000 </r>
       <r>   33.1068    0.0000 </r>
       <r>   34.0173    0.0000 </r>
       <r>   35.4383    0.0000 </r>
       <r>   35.7057    0.0000 </r>
       <r>   36.6341    0.0000 </r>
       <r>   37.3727    0.0000 </r>
      </set>
      <set comment="kpoint 15">
       <r>  -11.4597    1.0000 </r>
       <r>  -11.2790    1.0000 </r>
       <r>  -11.2522    1.0000 </r>
       <r>  -11.1933    1.0000 </r>
       <r>  -11.1687    1.0000 </r>
       <r>   -5.7407    1.0000 </r>
       <r>   -1.3592    1.0000 </r>
       <r>    1.2554    1.0000 </r>
       <r>    2.3391    1.0000 </r>
       <r>    9.0015    0.0000 </r>
       <r>    9.5955    0.0000 </r>
       <r>   11.1735    0.0000 </r>
       <r>   12.8592    0.0000 </r>
       <r>   13.7734    0.0000 </r>
       <r>   16.6868    0.0000 </r>
       <r>   17.2899    0.0000 </r>
       <r>   18.4770    0.0000 </r>
       <r>   20.2855    0.0000 </r>
       <r>   21.1643    0.0000 </r>
       <r>   22.0111    0.0000 </r>
       <r>   23.3855    0.0000 </r>
       <r>   24.6855    0.0000 </r>
       <r>   25.4980    0.0000 </r>
       <r>   26.8447    0.0000 </r>
       <r>   27.3897    0.0000 </r>
       <r>   27.6501    0.0000 </r>
       <r>   28.7882    0.0000 </r>
       <r>   29.7925    0.0000 </r>
       <r>   29.9188    0.0000 </r>
       <r>   32.3244    0.0000 </r>
       <r>   32.6077    0.0000 </r>
       <r>   33.1847    0.0000 </r>
       <r>   34.1840    0.0000 </r>
       <r>   34.9895    0.0000 </r>
       <r>   35.0542    0.0000 </r>
       <r>   36.9792    0.0000 </r>
      </set>
      <set comment="kpoint 16">
       <r>  -11.4783    1.0000 </r>
       <r>  -11.2623    1.0000 </r>
       <r>  -11.2392    1.0000 </r>
       <r>  -11.2072    1.0000 </r>
       <r>  -11.1610    1.0000 </r>
       <r>   -5.5296    1.0000 </r>
       <r>   -1.4945    1.0000 </r>
       <r>    1.5455    1.0000 </r>
       <r>    1.6016    1.0000 </r>
       <r>    8.5230    0.0000 </r>
       <r>    8.9860    0.0000 </r>
       <r>   12.2759    0.0000 </r>
       <r>   12.5593    0.0000 </r>
       <r>   15.7769    0.0000 </r>
       <r>   16.9856    0.0000 </r>
       <r>   17.6387    0.0000 </r>
       <r>   17.6751    0.0000 </r>
       <r>   20.4961    0.0000 </r>
       <r>   21.7022    0.0000 </r>
       <r>   22.8643    0.0000 </r>
       <r>   23.2495    0.0000 </r>
       <r>   23.4305    0.0000 </r>
       <r>   23.6993    0.0000 </r>
       <r>   25.6973    0.0000 </r>
       <r>   26.7078    0.0000 </r>
       <r>   28.5880    0.0000 </r>
       <r>   29.0926    0.0000 </r>
       <r>   29.5869    0.0000 </r>
       <r>   29.7804    0.0000 </r>
       <r>   31.6528    0.0000 </r>
       <r>   32.9706    0.0000 </r>
       <r>   33.1029    0.0000 </r>
       <r>   34.6886    0.0000 </r>
       <r>   35.8339    0.0000 </r>
       <r>   36.1857    0.0000 </r>
       <r>   37.9827    0.0000 </r>
      </set>
     </set>
    </set>
   </array>
  </eigenvalues>
  <separator name="orbital magnetization" >
   <v name="MAGDIPOLOUT">      0.00000000      0.00000000      0.00000000</v>
  </separator>
  <dielectricfunction comment="density-density">
   <imag>
    <array>
     <dimension dim="1">gridpoints</dimension>
     <field>energy</field>
     <field>xx</field>
     <field>yy</field>
     <field>zz</field>
     <field>xy</field>
     <field>yz</field>
     <field>zx</field>
     <set>
      <r>     0.0000     0.0000     0.0000     0.0000     0.0000     0.0000     0.0000 </r>
      <r>     0.0299     0.0000     0.0000     0.0000     0.0000     0.0000     0.0000 </r>
      <r>     0.0597     0.0000     0.0000     0.0000     0.0000     0.0000     0.0000 </r>
      <r>     0.0896     0.0000     0.0000     0.0000     0.0000     0.0000     0.0000 </r>
      <r>     0.1195     0.0000     0.0000     0.0000     0.0000     0.0000     0.0000 </r>
      <r>     0.1493     0.0000     0.0000     0.0000     0.0000     0.0000     0.0000 </r>
      <r>     0.1792     0.0000     0.0000     0.0000     0.0000     0.0000     0.0000 </r>
      <r>     0.2091     0.0000     0.0000     0.0000     0.0000     0.0000     0.0000 </r>
      <r>     0.2389     0.0000     0.0000     0.0000     0.0000     0.0000     0.0000 </r>
      <r>     0.2688     0.0000     0.0000     0.0000     0.0000     0.0000     0.0000 </r>
      <r>     0.2987     0.0000     0.0000     0.0000     0.0000     0.0000     0.0000 </r>
      <r>     0.3285     0.0000     0.0000     0.0000     0.0000     0.0000     0.0000 </r>
      <r>     0.3584     0.0000     0.0000     0.0000     0.0000     0.0000     0.0000 </r>
      <r>     0.3883     0.0000     0.0000     0.0000     0.0000     0.0000     0.0000 </r>
      <r>     0.4181     0.0000     0.0000     0.0000     0.0000     0.0000     0.0000 </r>
      <r>     0.4480     0.0000     0.0000     0.0000     0.0000     0.0000     0.0000 </r>
      <r>     0.4779     0.0000     0.0000     0.0000     0.0000     0.0000     0.0000 </r>
      <r>     0.5078     0.0000     0.0000     0.0000     0.0000     0.0000     0.0000 </r>
      <r>     0.5376     0.0000     0.0000     0.0000     0.0000     0.0000     0.0000 </r>
      <r>     0.5675     0.0000     0.0000     0.0000     0.0000     0.0000     0.0000 </r>
      <r>     0.5974     0.0000     0.0000     0.0000     0.0000     0.0000     0.0000 </r>
      <r>     0.6272     0.0000     0.0000     0.0000     0.0000     0.0000     0.0000 </r>
      <r>     0.6571     0.0000     0.0000     0.0000     0.0000     0.0000     0.0000 </r>
      <r>     0.6870     0.0000     0.0000     0.0000     0.0000     0.0000     0.0000 </r>
      <r>     0.7168     0.0000     0.0000     0.0000     0.0000     0.0000     0.0000 </r>
      <r>     0.7467     0.0000     0.0000     0.0000     0.0000     0.0000     0.0000 </r>
      <r>     0.7766     0.0000     0.0000     0.0000     0.0000     0.0000     0.0000 </r>
      <r>     0.8064     0.0000     0.0000     0.0000     0.0000     0.0000     0.0000 </r>
      <r>     0.8363     0.0000     0.0000     0.0000     0.0000     0.0000     0.0000 </r>
      <r>     0.8662     0.0000     0.0000     0.0000     0.0000     0.0000     0.0000 </r>
      <r>     0.8960     0.0000     0.0000     0.0000     0.0000     0.0000     0.0000 </r>
      <r>     0.9259     0.0000     0.0000     0.0000     0.0000     0.0000     0.0000 </r>
      <r>     0.9558     0.0000     0.0000     0.0000     0.0000     0.0000     0.0000 </r>
      <r>     0.9856     0.0000     0.0000     0.0000     0.0000     0.0000     0.0000 </r>
      <r>     1.0155     0.0000     0.0000     0.0000     0.0000     0.0000     0.0000 </r>
      <r>     1.0454     0.0000     0.0000     0.0000     0.0000     0.0000     0.0000 </r>
      <r>     1.0752     0.0000     0.0000     0.0000     0.0000     0.0000     0.0000 </r>
      <r>     1.1051     0.0000     0.0000     0.0000     0.0000     0.0000     0.0000 </r>
      <r>     1.1350     0.0000     0.0000     0.0000     0.0000     0.0000     0.0000 </r>
      <r>     1.1648     0.0000     0.0000     0.0000     0.0000     0.0000     0.0000 </r>
      <r>     1.1947     0.0000     0.0000     0.0000     0.0000     0.0000     0.0000 </r>
      <r>     1.2246     0.0000     0.0000     0.0000     0.0000     0.0000     0.0000 </r>
      <r>     1.2544     0.0000     0.0000     0.0000     0.0000     0.0000     0.0000 </r>
      <r>     1.2843     0.0000     0.0000     0.0000     0.0000     0.0000     0.0000 </r>
      <r>     1.3142     0.0000     0.0000     0.0000     0.0000     0.0000     0.0000 </r>
      <r>     1.3440     0.0000     0.0000     0.0000     0.0000     0.0000     0.0000 </r>
      <r>     1.3739     0.0000     0.0000     0.0000     0.0000     0.0000     0.0000 </r>
      <r>     1.4038     0.0010     0.0010     0.0010    -0.0000     0.0000     0.0000 </r>
      <r>     1.4337     0.0052     0.0052     0.0052    -0.0000     0.0000     0.0000 </r>
      <r>     1.4635     0.0125     0.0125     0.0125    -0.0000     0.0000     0.0000 </r>
      <r>     1.4934     0.0230     0.0230     0.0230    -0.0000     0.0000     0.0000 </r>
      <r>     1.5233     0.0367     0.0367     0.0367    -0.0000     0.0000     0.0000 </r>
      <r>     1.5531     0.0535     0.0535     0.0535    -0.0000     0.0000     0.0000 </r>
      <r>     1.5830     0.0736     0.0736     0.0736    -0.0000     0.0000     0.0000 </r>
      <r>     1.6129     0.0968     0.0968     0.0968    -0.0000     0.0000     0.0000 </r>
      <r>     1.6427     0.1232     0.1232     0.1232    -0.0000     0.0000     0.0000 </r>
      <r>     1.6726     0.1528     0.1528     0.1528    -0.0000     0.0000     0.0000 </r>
      <r>     1.7025     0.1856     0.1856     0.1856    -0.0000     0.0000     0.0000 </r>
      <r>     1.7323     0.2216     0.2216     0.2216    -0.0000     0.0000     0.0000 </r>
      <r>     1.7622     0.2607     0.2607     0.2607    -0.0000     0.0000     0.0000 </r>
      <r>     1.7921     0.3031     0.3031     0.3031    -0.0000     0.0000     0.0000 </r>
      <r>     1.8219     0.3486     0.3486     0.3486    -0.0000     0.0000     0.0000 </r>
      <r>     1.8518     0.3973     0.3973     0.3973    -0.0000     0.0000     0.0000 </r>
      <r>     1.8817     0.4492     0.4492     0.4492    -0.0000     0.0000     0.0000 </r>
      <r>     1.9115     0.5043     0.5043     0.5043    -0.0000     0.0000     0.0000 </r>
      <r>     1.9414     0.5625     0.5625     0.5625    -0.0000     0.0000     0.0000 </r>
      <r>     1.9713     0.6240     0.6240     0.6240    -0.0000     0.0000     0.0000 </r>
      <r>     2.0011     0.6886     0.6886     0.6886    -0.0000     0.0000     0.0000 </r>
      <r>     2.0310     0.7564     0.7564     0.7564    -0.0000     0.0000     0.0000 </r>
      <r>     2.0609     0.8274     0.8274     0.8274    -0.0000     0.0000     0.0000 </r>
      <r>     2.0907     0.9015     0.9015     0.9015    -0.0000     0.0000     0.0000 </r>
      <r>     2.1206     0.9789     0.9789     0.9789    -0.0000     0.0000     0.0000 </r>
      <r>     2.1505     1.0594     1.0594     1.0594    -0.0000     0.0000     0.0000 </r>
      <r>     2.1803     1.1431     1.1431     1.1431    -0.0000     0.0000     0.0000 </r>
      <r>     2.2102     1.2301     1.2300     1.2300    -0.0000     0.0000     0.0000 </r>
      <r>     2.2401     1.3201     1.3201     1.3201    -0.0000     0.0000     0.0000 </r>
      <r>     2.2699     1.4134     1.4134     1.4134    -0.0000     0.0000     0.0000 </r>
      <r>     2.2998     1.5099     1.5099     1.5099    -0.0000     0.0000     0.0000 </r>
      <r>     2.3297     1.6095     1.6095     1.6095    -0.0000     0.0000     0.0000 </r>
      <r>     2.3596     1.7123     1.7123     1.7123    -0.0000     0.0000     0.0000 </r>
      <r>     2.3894     1.8183     1.8183     1.8183    -0.0000     0.0000     0.0000 </r>
      <r>     2.4193     1.9275     1.9275     1.9275    -0.0000     0.0000     0.0000 </r>
      <r>     2.4492     2.0399     2.0399     2.0399    -0.0000     0.0000     0.0000 </r>
      <r>     2.4790     2.1554     2.1554     2.1554    -0.0000     0.0000     0.0000 </r>
      <r>     2.5089     2.2742     2.2742     2.2742    -0.0000     0.0000     0.0000 </r>
      <r>     2.5388     2.3961     2.3961     2.3961    -0.0000     0.0000     0.0000 </r>
      <r>     2.5686     2.5212     2.5212     2.5212    -0.0000     0.0000     0.0000 </r>
      <r>     2.5985     2.6495     2.6495     2.6495    -0.0000     0.0000     0.0000 </r>
      <r>     2.6284     2.7810     2.7810     2.7810    -0.0000     0.0000     0.0000 </r>
      <r>     2.6582     2.9156     2.9156     2.9156    -0.0000     0.0000     0.0000 </r>
      <r>     2.6881     3.0535     3.0535     3.0535    -0.0000     0.0000     0.0000 </r>
      <r>     2.7180     3.1945     3.1945     3.1945    -0.0000     0.0000     0.0000 </r>
      <r>     2.7478     3.3387     3.3387     3.3387    -0.0000     0.0000     0.0000 </r>
      <r>     2.7777     3.4861     3.4861     3.4861    -0.0000     0.0000     0.0000 </r>
      <r>     2.8076     3.6366     3.6366     3.6366    -0.0000     0.0000     0.0000 </r>
      <r>     2.8374     3.6967     3.6967     3.6967    -0.0000     0.0000     0.0000 </r>
      <r>     2.8673     3.6899     3.6899     3.6899    -0.0000     0.0000     0.0000 </r>
      <r>     2.8972     3.6973     3.6973     3.6973    -0.0000     0.0000     0.0000 </r>
      <r>     2.9270     3.7190     3.7190     3.7190    -0.0000     0.0000     0.0000 </r>
      <r>     2.9569     3.7551     3.7551     3.7551    -0.0000     0.0000     0.0000 </r>
      <r>     2.9868     3.8055     3.8055     3.8055    -0.0000     0.0000     0.0000 </r>
      <r>     3.0166     3.8703     3.8703     3.8703    -0.0000     0.0000     0.0000 </r>
      <r>     3.0465     3.9493     3.9493     3.9493    -0.0000     0.0000     0.0000 </r>
      <r>     3.0764     4.0427     4.0427     4.0427    -0.0000     0.0000     0.0000 </r>
      <r>     3.1062     4.1504     4.1504     4.1504    -0.0000     0.0000     0.0000 </r>
      <r>     3.1361     4.2724     4.2724     4.2724    -0.0000     0.0000     0.0000 </r>
      <r>     3.1660     4.4088     4.4088     4.4088    -0.0000     0.0000     0.0000 </r>
      <r>     3.1958     4.5594     4.5594     4.5594    -0.0000     0.0000     0.0000 </r>
      <r>     3.2257     4.7697     4.7697     4.7697    -0.0000     0.0000     0.0000 </r>
      <r>     3.2556     5.0737     5.0737     5.0737    -0.0000     0.0000     0.0000 </r>
      <r>     3.2855     5.3848     5.3848     5.3848    -0.0000     0.0000     0.0000 </r>
      <r>     3.3153     5.6898     5.6898     5.6898    -0.0000     0.0000     0.0000 </r>
      <r>     3.3452     5.9887     5.9887     5.9887    -0.0000     0.0000     0.0000 </r>
      <r>     3.3751     6.2816     6.2816     6.2816    -0.0000     0.0000     0.0000 </r>
      <r>     3.4049     6.5683     6.5683     6.5683    -0.0000     0.0000     0.0000 </r>
      <r>     3.4348     6.8491     6.8491     6.8491    -0.0000     0.0000     0.0000 </r>
      <r>     3.4647     7.1237     7.1237     7.1237    -0.0000     0.0000     0.0000 </r>
      <r>     3.4945     7.3923     7.3923     7.3923    -0.0000     0.0000     0.0000 </r>
      <r>     3.5244     7.6548     7.6548     7.6548    -0.0000     0.0000     0.0000 </r>
      <r>     3.5543     7.9112     7.9112     7.9112    -0.0000     0.0000     0.0000 </r>
      <r>     3.5841     8.1616     8.1616     8.1616    -0.0000     0.0000     0.0000 </r>
      <r>     3.6140     8.4059     8.4059     8.4059    -0.0000     0.0000     0.0000 </r>
      <r>     3.6439     8.6441     8.6441     8.6441    -0.0000     0.0000     0.0000 </r>
      <r>     3.6737     8.8763     8.8763     8.8763    -0.0000     0.0000     0.0000 </r>
      <r>     3.7036     9.1024     9.1024     9.1024    -0.0000     0.0000     0.0000 </r>
      <r>     3.7335     9.3224     9.3224     9.3224    -0.0000     0.0000     0.0000 </r>
      <r>     3.7633     9.5364     9.5364     9.5364    -0.0000     0.0000     0.0000 </r>
      <r>     3.7932     9.7442     9.7442     9.7442    -0.0000     0.0000     0.0000 </r>
      <r>     3.8231     9.9460     9.9460     9.9460    -0.0000     0.0000     0.0000 </r>
      <r>     3.8529    10.1418    10.1418    10.1418    -0.0000     0.0000     0.0000 </r>
      <r>     3.8828    10.3314    10.3314    10.3314    -0.0000     0.0000     0.0000 </r>
      <r>     3.9127    10.5150    10.5150    10.5150    -0.0000     0.0000     0.0000 </r>
      <r>     3.9425    10.6926    10.6926    10.6926    -0.0000     0.0000     0.0000 </r>
      <r>     3.9724    10.8650    10.8650    10.8650    -0.0000     0.0000     0.0000 </r>
      <r>     4.0023    11.0334    11.0334    11.0334    -0.0000     0.0000     0.0000 </r>
      <r>     4.0321    11.1979    11.1979    11.1979    -0.0000     0.0000     0.0000 </r>
      <r>     4.0620    11.3584    11.3584    11.3584    -0.0000     0.0000     0.0000 </r>
      <r>     4.0919    11.5149    11.5149    11.5149    -0.0000     0.0000     0.0000 </r>
      <r>     4.1218    11.6674    11.6674    11.6674    -0.0000     0.0000     0.0000 </r>
      <r>     4.1516    11.8160    11.8160    11.8160    -0.0000     0.0000     0.0000 </r>
      <r>     4.1815    11.9606    11.9606    11.9606    -0.0000     0.0000     0.0000 </r>
      <r>     4.2114    12.1013    12.1013    12.1013    -0.0000     0.0000     0.0000 </r>
      <r>     4.2412    12.2382    12.2382    12.2382    -0.0000     0.0000     0.0000 </r>
      <r>     4.2711    12.3751    12.3751    12.3751    -0.0000     0.0000     0.0000 </r>
      <r>     4.3010    12.5134    12.5134    12.5134    -0.0000     0.0000     0.0000 </r>
      <r>     4.3308    12.6529    12.6529    12.6529    -0.0000     0.0000     0.0000 </r>
      <r>     4.3607    12.7937    12.7937    12.7937    -0.0000     0.0000     0.0000 </r>
      <r>     4.3906    12.9358    12.9358    12.9358    -0.0000     0.0000     0.0000 </r>
      <r>     4.4204    13.0791    13.0791    13.0791    -0.0000     0.0000     0.0000 </r>
      <r>     4.4503    13.2238    13.2238    13.2238    -0.0000     0.0000     0.0000 </r>
      <r>     4.4802    13.3698    13.3698    13.3698    -0.0000     0.0000     0.0000 </r>
      <r>     4.5100    13.5170    13.5170    13.5170    -0.0000     0.0000     0.0000 </r>
      <r>     4.5399    13.6656    13.6656    13.6656    -0.0000     0.0000     0.0000 </r>
      <r>     4.5698    13.8135    13.8135    13.8135    -0.0000     0.0000     0.0000 </r>
      <r>     4.5996    13.9350    13.9350    13.9350    -0.0000     0.0000     0.0000 </r>
      <r>     4.6295    14.0225    14.0225    14.0225    -0.0000     0.0000     0.0000 </r>
      <r>     4.6594    14.0761    14.0761    14.0761    -0.0000     0.0000     0.0000 </r>
      <r>     4.6892    14.0957    14.0957    14.0957    -0.0000     0.0000     0.0000 </r>
      <r>     4.7191    14.0813    14.0813    14.0813    -0.0000     0.0000     0.0000 </r>
      <r>     4.7490    14.0344    14.0344    14.0344    -0.0000     0.0000     0.0000 </r>
      <r>     4.7788    13.9197    13.9197    13.9197    -0.0000     0.0000     0.0000 </r>
      <r>     4.8087    13.7584    13.7584    13.7584    -0.0000     0.0000     0.0000 </r>
      <r>     4.8386    13.9860    13.9860    13.9860    -0.0000     0.0000     0.0000 </r>
      <r>     4.8684    14.8917    14.8917    14.8917    -0.0000     0.0000     0.0000 </r>
      <r>     4.8983    16.2624    16.2624    16.2624    -0.0000     0.0000     0.0000 </r>
      <r>     4.9282    17.3907    17.3907    17.3907    -0.0000     0.0000     0.0000 </r>
      <r>     4.9580    18.2481    18.2481    18.2481    -0.0000     0.0000     0.0000 </r>
      <r>     4.9879    18.8252    18.8252    18.8252    -0.0000     0.0000     0.0000 </r>
      <r>     5.0178    19.1216    19.1216    19.1216    -0.0000     0.0000     0.0000 </r>
      <r>     5.0477    19.1717    19.1717    19.1717    -0.0000     0.0000     0.0000 </r>
      <r>     5.0775    18.9763    18.9763    18.9763    -0.0000     0.0000     0.0000 </r>
      <r>     5.1074    18.5278    18.5278    18.5278    -0.0000     0.0000     0.0000 </r>
      <r>     5.1373    18.9273    18.9273    18.9273    -0.0000     0.0000     0.0000 </r>
      <r>     5.1671    18.5064    18.5064    18.5064    -0.0000     0.0000     0.0000 </r>
      <r>     5.1970    18.1058    18.1058    18.1058    -0.0000     0.0000     0.0000 </r>
      <r>     5.2269    17.7255    17.7255    17.7255    -0.0000     0.0000     0.0000 </r>
      <r>     5.2567    17.3637    17.3637    17.3637    -0.0000     0.0000     0.0000 </r>
      <r>     5.2866    17.0117    17.0117    17.0117    -0.0000     0.0000     0.0000 </r>
      <r>     5.3165    16.6686    16.6686    16.6686    -0.0000     0.0000     0.0000 </r>
      <r>     5.3463    16.3342    16.3342    16.3342    -0.0000     0.0000     0.0000 </r>
      <r>     5.3762    16.0086    16.0086    16.0086    -0.0000     0.0000     0.0000 </r>
      <r>     5.4061    15.6918    15.6918    15.6918    -0.0000     0.0000     0.0000 </r>
      <r>     5.4359    15.3837    15.3837    15.3837    -0.0000     0.0000     0.0000 </r>
      <r>     5.4658    15.0845    15.0845    15.0845    -0.0000     0.0000     0.0000 </r>
      <r>     5.4957    14.7977    14.7977    14.7977    -0.0000     0.0000     0.0000 </r>
      <r>     5.5255    14.5294    14.5294    14.5294    -0.0000     0.0000     0.0000 </r>
      <r>     5.5554    14.2797    14.2797    14.2797    -0.0000     0.0000     0.0000 </r>
      <r>     5.5853    14.0486    14.0486    14.0486    -0.0000     0.0000     0.0000 </r>
      <r>     5.6151    13.7644    13.7644    13.7644    -0.0000     0.0000     0.0000 </r>
      <r>     5.6450    13.3935    13.3935    13.3935    -0.0000     0.0000     0.0000 </r>
      <r>     5.6749    12.9915    12.9915    12.9915    -0.0000     0.0000     0.0000 </r>
      <r>     5.7047    12.6779    12.6779    12.6779    -0.0000     0.0000     0.0000 </r>
      <r>     5.7346    12.4107    12.4107    12.4107    -0.0000     0.0000     0.0000 </r>
      <r>     5.7645    12.1665    12.1665    12.1665    -0.0000     0.0000     0.0000 </r>
      <r>     5.7943    11.9507    11.9507    11.9507    -0.0000     0.0000     0.0000 </r>
      <r>     5.8242    11.7631    11.7631    11.7631    -0.0000     0.0000     0.0000 </r>
      <r>     5.8541    11.6037    11.6037    11.6037    -0.0000     0.0000     0.0000 </r>
      <r>     5.8839    11.4720    11.4720    11.4720    -0.0000     0.0000     0.0000 </r>
      <r>     5.9138    11.3597    11.3597    11.3597    -0.0000     0.0000     0.0000 </r>
      <r>     5.9437    11.2778    11.2778    11.2778    -0.0000     0.0000     0.0000 </r>
      <r>     5.9736    11.1722    11.1722    11.1722    -0.0000     0.0000     0.0000 </r>
      <r>     6.0034    11.0616    11.0616    11.0616    -0.0000     0.0000     0.0000 </r>
      <r>     6.0333    10.9543    10.9543    10.9543    -0.0000     0.0000     0.0000 </r>
      <r>     6.0632    10.8504    10.8504    10.8504    -0.0000     0.0000     0.0000 </r>
      <r>     6.0930    10.7499    10.7499    10.7499    -0.0000     0.0000     0.0000 </r>
      <r>     6.1229    10.6534    10.6534    10.6534    -0.0000     0.0000     0.0000 </r>
      <r>     6.1528    10.5698    10.5698    10.5698    -0.0000     0.0000     0.0000 </r>
      <r>     6.1826    10.4902    10.4902    10.4902    -0.0000     0.0000     0.0000 </r>
      <r>     6.2125    10.4114    10.4114    10.4114    -0.0000     0.0000     0.0000 </r>
      <r>     6.2424    10.3331    10.3331    10.3331    -0.0000     0.0000     0.0000 </r>
      <r>     6.2722    10.2553    10.2553    10.2553    -0.0000     0.0000     0.0000 </r>
      <r>     6.3021    10.1780    10.1780    10.1780    -0.0000     0.0000     0.0000 </r>
      <r>     6.3320    10.1012    10.1012    10.1012    -0.0000     0.0000     0.0000 </r>
      <r>     6.3618    10.0250    10.0250    10.0250    -0.0000     0.0000     0.0000 </r>
      <r>     6.3917     9.9493     9.9493     9.9493    -0.0000     0.0000     0.0000 </r>
      <r>     6.4216     9.7028     9.7028     9.7028    -0.0000     0.0000     0.0000 </r>
      <r>     6.4514     9.6616     9.6616     9.6616    -0.0000     0.0000     0.0000 </r>
      <r>     6.4813     9.6067     9.6067     9.6067    -0.0000     0.0000     0.0000 </r>
      <r>     6.5112     9.5382     9.5382     9.5382    -0.0000     0.0000     0.0000 </r>
      <r>     6.5410     9.6348     9.6348     9.6348    -0.0000     0.0000     0.0000 </r>
      <r>     6.5709    10.9220    10.9219    10.9220    -0.0000     0.0000     0.0000 </r>
      <r>     6.6008    12.0995    12.0995    12.0995    -0.0000     0.0000     0.0000 </r>
      <r>     6.6306    12.7878    12.7878    12.7878    -0.0000     0.0000     0.0000 </r>
      <r>     6.6605    12.9870    12.9870    12.9870    -0.0000     0.0000     0.0000 </r>
      <r>     6.6904    12.6306    12.6306    12.6306    -0.0000     0.0000     0.0000 </r>
      <r>     6.7202     9.1949     9.1949     9.1949    -0.0000     0.0000     0.0000 </r>
      <r>     6.7501     9.1073     9.1073     9.1073    -0.0000     0.0000     0.0000 </r>
      <r>     6.7800     8.9831     8.9831     8.9831    -0.0000     0.0000     0.0000 </r>
      <r>     6.8098     8.8224     8.8224     8.8224    -0.0000     0.0000     0.0000 </r>
      <r>     6.8397     8.6252     8.6252     8.6252    -0.0000     0.0000     0.0000 </r>
      <r>     6.8696     8.3915     8.3915     8.3915    -0.0000     0.0000     0.0000 </r>
      <r>     6.8995     8.1213     8.1213     8.1213    -0.0000     0.0000     0.0000 </r>
      <r>     6.9293     7.9058     7.9058     7.9058    -0.0000     0.0000     0.0000 </r>
      <r>     6.9592     7.9295     7.9294     7.9295    -0.0000     0.0000     0.0000 </r>
      <r>     6.9891     7.9601     7.9601     7.9601    -0.0000     0.0000     0.0000 </r>
      <r>     7.0189     8.0000     8.0000     8.0000    -0.0000     0.0000     0.0000 </r>
      <r>     7.0488     8.0379     8.0379     8.0379    -0.0000     0.0000     0.0000 </r>
      <r>     7.0787     8.0733     8.0733     8.0733    -0.0000     0.0000     0.0000 </r>
      <r>     7.1085     8.1061     8.1061     8.1061    -0.0000     0.0000     0.0000 </r>
      <r>     7.1384     8.1364     8.1364     8.1364    -0.0000     0.0000     0.0000 </r>
      <r>     7.1683     8.1643     8.1643     8.1643    -0.0000     0.0000     0.0000 </r>
      <r>     7.1981     8.2805     8.2805     8.2805    -0.0000     0.0000     0.0000 </r>
      <r>     7.2280     8.3743     8.3743     8.3743    -0.0000     0.0000     0.0000 </r>
      <r>     7.2579     8.4732     8.4732     8.4732    -0.0000     0.0000     0.0000 </r>
      <r>     7.2877     9.1846     9.1846     9.1846    -0.0000     0.0000     0.0000 </r>
      <r>     7.3176     9.3832     9.3832     9.3832    -0.0000     0.0000     0.0000 </r>
      <r>     7.3475     9.0691     9.0691     9.0691    -0.0000     0.0000     0.0000 </r>
      <r>     7.3773     8.2129     8.2129     8.2129    -0.0000     0.0000     0.0000 </r>
      <r>     7.4072     7.7313     7.7313     7.7313    -0.0000     0.0000     0.0000 </r>
      <r>     7.4371     7.4392     7.4392     7.4392    -0.0000     0.0000     0.0000 </r>
      <r>     7.4669     7.2643     7.2643     7.2643    -0.0000     0.0000     0.0000 </r>
      <r>     7.4968     7.1041     7.1041     7.1041    -0.0000     0.0000     0.0000 </r>
      <r>     7.5267     6.9287     6.9287     6.9287    -0.0000     0.0000     0.0000 </r>
      <r>     7.5565     6.7603     6.7603     6.7603    -0.0000     0.0000     0.0000 </r>
      <r>     7.5864     6.5994     6.5994     6.5994    -0.0000     0.0000     0.0000 </r>
      <r>     7.6163     6.4460     6.4460     6.4460    -0.0000     0.0000     0.0000 </r>
      <r>     7.6461     6.2998     6.2998     6.2998    -0.0000     0.0000     0.0000 </r>
      <r>     7.6760     6.1556     6.1556     6.1556    -0.0000     0.0000     0.0000 </r>
      <r>     7.7059     6.0013     6.0013     6.0013    -0.0000     0.0000     0.0000 </r>
      <r>     7.7357     5.7698     5.7698     5.7698    -0.0000     0.0000     0.0000 </r>
      <r>     7.7656     5.5111     5.5111     5.5111    -0.0000     0.0000     0.0000 </r>
      <r>     7.7955     5.3343     5.3343     5.3343    -0.0000     0.0000     0.0000 </r>
      <r>     7.8254     5.1664     5.1664     5.1664    -0.0000     0.0000     0.0000 </r>
      <r>     7.8552     5.0020     5.0020     5.0020    -0.0000     0.0000     0.0000 </r>
      <r>     7.8851     4.8412     4.8412     4.8412    -0.0000     0.0000     0.0000 </r>
      <r>     7.9150     4.6855     4.6855     4.6855    -0.0000     0.0000     0.0000 </r>
      <r>     7.9448     4.5508     4.5508     4.5508    -0.0000     0.0000     0.0000 </r>
      <r>     7.9747     4.4218     4.4218     4.4218    -0.0000     0.0000     0.0000 </r>
      <r>     8.0046     4.2975     4.2975     4.2975    -0.0000     0.0000     0.0000 </r>
      <r>     8.0344     4.1792     4.1792     4.1792    -0.0000     0.0000     0.0000 </r>
      <r>     8.0643     4.0693     4.0693     4.0693    -0.0000     0.0000     0.0000 </r>
      <r>     8.0942     3.9681     3.9681     3.9681    -0.0000     0.0000     0.0000 </r>
      <r>     8.1240     3.8664     3.8664     3.8664    -0.0000     0.0000     0.0000 </r>
      <r>     8.1539     3.7672     3.7672     3.7672    -0.0000     0.0000     0.0000 </r>
      <r>     8.1838     3.6714     3.6714     3.6714    -0.0000     0.0000     0.0000 </r>
      <r>     8.2136     3.5790     3.5790     3.5790    -0.0000     0.0000     0.0000 </r>
      <r>     8.2435     3.4901     3.4901     3.4901    -0.0000     0.0000     0.0000 </r>
      <r>     8.2734     3.4048     3.4048     3.4048    -0.0000     0.0000     0.0000 </r>
      <r>     8.3032     3.3250     3.3250     3.3250    -0.0000     0.0000     0.0000 </r>
      <r>     8.3331     3.2492     3.2492     3.2492    -0.0000     0.0000     0.0000 </r>
      <r>     8.3630     3.1862     3.1862     3.1862    -0.0000     0.0000     0.0000 </r>
      <r>     8.3928     3.1283     3.1283     3.1283    -0.0000     0.0000     0.0000 </r>
      <r>     8.4227     3.0722     3.0722     3.0722    -0.0000     0.0000     0.0000 </r>
      <r>     8.4526     3.0205     3.0205     3.0205    -0.0000     0.0000     0.0000 </r>
      <r>     8.4824     2.9735     2.9735     2.9735    -0.0000     0.0000     0.0000 </r>
      <r>     8.5123     2.9286     2.9286     2.9286    -0.0000     0.0000     0.0000 </r>
      <r>     8.5422     2.8861     2.8861     2.8861    -0.0000     0.0000     0.0000 </r>
      <r>     8.5720     2.8460     2.8460     2.8460    -0.0000     0.0000     0.0000 </r>
      <r>     8.6019     2.8100     2.8100     2.8100    -0.0000     0.0000     0.0000 </r>
      <r>     8.6318     2.7785     2.7785     2.7785    -0.0000     0.0000     0.0000 </r>
      <r>     8.6616     2.7517     2.7517     2.7517    -0.0000     0.0000     0.0000 </r>
      <r>     8.6915     2.7295     2.7295     2.7295    -0.0000     0.0000     0.0000 </r>
      <r>     8.7214     2.7095     2.7095     2.7095    -0.0000     0.0000     0.0000 </r>
      <r>     8.7513     2.5764     2.5764     2.5764    -0.0000     0.0000     0.0000 </r>
      <r>     8.7811     2.5114     2.5114     2.5114    -0.0000     0.0000     0.0000 </r>
      <r>     8.8110     2.4672     2.4672     2.4672    -0.0000     0.0000     0.0000 </r>
      <r>     8.8409     2.4267     2.4267     2.4267    -0.0000     0.0000     0.0000 </r>
      <r>     8.8707     2.3864     2.3864     2.3864    -0.0000     0.0000     0.0000 </r>
      <r>     8.9006     2.3484     2.3484     2.3484    -0.0000     0.0000     0.0000 </r>
      <r>     8.9305     2.3042     2.3042     2.3042    -0.0000     0.0000     0.0000 </r>
      <r>     8.9603     2.2687     2.2687     2.2687    -0.0000     0.0000     0.0000 </r>
      <r>     8.9902     2.2345     2.2345     2.2345    -0.0000     0.0000     0.0000 </r>
      <r>     9.0201     2.1886     2.1886     2.1886    -0.0000     0.0000     0.0000 </r>
      <r>     9.0499     2.1508     2.1508     2.1508    -0.0000     0.0000     0.0000 </r>
      <r>     9.0798     2.1299     2.1299     2.1299    -0.0000     0.0000     0.0000 </r>
      <r>     9.1097     2.1148     2.1148     2.1148    -0.0000     0.0000     0.0000 </r>
      <r>     9.1395     2.1041     2.1041     2.1041    -0.0000     0.0000     0.0000 </r>
      <r>     9.1694     2.0942     2.0942     2.0942    -0.0000     0.0000     0.0000 </r>
      <r>     9.1993     2.0818     2.0818     2.0818    -0.0000     0.0000     0.0000 </r>
      <r>     9.2291     2.0630     2.0630     2.0630    -0.0000     0.0000     0.0000 </r>
      <r>     9.2590     2.0460     2.0460     2.0460    -0.0000     0.0000     0.0000 </r>
      <r>     9.2889     2.0308     2.0308     2.0308    -0.0000     0.0000     0.0000 </r>
      <r>     9.3187     2.0174     2.0174     2.0174    -0.0000     0.0000     0.0000 </r>
[...]
        <r>  0.0023  0.0044  0.0084  0.0051  0.0000  0.0000  0.0000  0.0000  0.0000 </r>
       </set>
       <set comment="band 24">
        <r>  0.0005  0.0035  0.0128  0.0128  0.0228  0.0445  0.0198  0.0382  0.0349 </r>
        <r>  0.0001  0.0438  0.0279  0.0041  0.0000  0.0000  0.0000  0.0000  0.0000 </r>
       </set>
       <set comment="band 25">
        <r>  0.0340  0.0169  0.0174  0.0061  0.0165  0.0044  0.0046  0.0176  0.0119 </r>
        <r>  0.0009  0.0001  0.0029  0.0074  0.0000  0.0000  0.0000  0.0000  0.0000 </r>
       </set>
       <set comment="band 26">
        <r>  0.0000  0.0106  0.0094  0.0270  0.0141  0.0179  0.0185  0.0062  0.0329 </r>
        <r>  0.0107  0.0015  0.0073  0.0226  0.0000  0.0000  0.0000  0.0000  0.0000 </r>
       </set>
       <set comment="band 27">
        <r>  0.0429  0.0076  0.0131  0.0119  0.0255  0.0048  0.0344  0.0123  0.0066 </r>
        <r>  0.0394  0.0012  0.0020  0.0159  0.0000  0.0000  0.0000  0.0000  0.0000 </r>
       </set>
       <set comment="band 28">
        <r>  0.0002  0.0004  0.0060  0.0145  0.0247  0.0032  0.0174  0.0319  0.0579 </r>
        <r>  0.0296  0.0106  0.0041  0.0030  0.0000  0.0000  0.0000  0.0000  0.0000 </r>
       </set>
       <set comment="band 29">
        <r>  0.0028  0.0196  0.0172  0.0028  0.0109  0.0252  0.0292  0.0005  0.0113 </r>
        <r>  0.0015  0.0044  0.0071  0.0027  0.0000  0.0000  0.0000  0.0000  0.0000 </r>
       </set>
       <set comment="band 30">
        <r>  0.0000  0.0208  0.0173  0.0008  0.0040  0.0048  0.0177  0.0057  0.0163 </r>
        <r>  0.0000  0.0021  0.0038  0.0029  0.0000  0.0000  0.0000  0.0000  0.0000 </r>
       </set>
       <set comment="band 31">
        <r>  0.0014  0.0311  0.0273  0.0071  0.0059  0.0257  0.0299  0.0019  0.0190 </r>
        <r>  0.0001  0.0054  0.0039  0.0002  0.0000  0.0000  0.0000  0.0000  0.0000 </r>
       </set>
       <set comment="band 32">
        <r>  0.0059  0.0466  0.0431  0.0075  0.0779  0.0125  0.0283  0.0199  0.0207 </r>
        <r>  0.0047  0.0065  0.0017  0.0154  0.0000  0.0000  0.0000  0.0000  0.0000 </r>
       </set>
       <set comment="band 33">
        <r>  0.0017  0.0104  0.0247  0.0168  0.0009  0.0055  0.0002  0.0433  0.0164 </r>
        <r>  0.0020  0.0144  0.0222  0.0135  0.0000  0.0000  0.0000  0.0000  0.0000 </r>
       </set>
       <set comment="band 34">
        <r>  0.0574  0.0202  0.0011  0.0438  0.0512  0.0126  0.0196  0.0049  0.0078 </r>
        <r>  0.0165  0.0002  0.0006  0.0013  0.0000  0.0000  0.0000  0.0000  0.0000 </r>
       </set>
       <set comment="band 35">
        <r>  0.0174  0.0013  0.0043  0.0080  0.0296  0.0369  0.0696  0.0072  0.0025 </r>
        <r>  0.0006  0.0354  0.0340  0.0085  0.0000  0.0000  0.0000  0.0000  0.0000 </r>
       </set>
       <set comment="band 36">
        <r>  0.0003  0.0002  0.0004  0.0024  0.1064  0.0500  0.0256  0.0461  0.0464 </r>
        <r>  0.0025  0.0333  0.0274  0.0014  0.0000  0.0000  0.0000  0.0000  0.0000 </r>
       </set>
      </set>
      <set comment="kpoint 15">
       <set comment="band 1">
        <r>  0.0003  0.0005  0.0002  0.0009  0.1669  0.0519  0.3434  0.0843  0.2815 </r>
        <r>  0.0277  0.0001  0.0000  0.0000  0.0000  0.0000  0.0000  0.0000  0.0000 </r>
       </set>
       <set comment="band 2">
        <r>  0.0000  0.0000  0.0000  0.0000  0.0802  0.1363  0.4465  0.0908  0.2212 </r>
        <r>  0.0000  0.0010  0.0010  0.0003  0.0000  0.0000  0.0000  0.0000  0.0000 </r>
       </set>
       <set comment="band 3">
        <r>  0.0000  0.0001  0.0001  0.0000  0.0566  0.2844  0.0486  0.3142  0.2729 </r>
        <r>  0.0001  0.0008  0.0014  0.0006  0.0000  0.0000  0.0000  0.0000  0.0000 </r>
       </set>
       <set comment="band 4">
        <r>  0.0000  0.0000  0.0000  0.0000  0.4868  0.1200  0.0843  0.1348  0.1534 </r>
        <r>  0.0000  0.0000  0.0000  0.0000  0.0000  0.0000  0.0000  0.0000  0.0000 </r>
       </set>
       <set comment="band 5">
        <r>  0.0000  0.0000  0.0000  0.0000  0.1788  0.3830  0.0356  0.3513  0.0331 </r>
        <r>  0.0000  0.0001  0.0000  0.0000  0.0000  0.0000  0.0000  0.0000  0.0000 </r>
       </set>
       <set comment="band 6">
        <r>  0.0324  0.0145  0.0064  0.0300  0.0130  0.0026  0.0221  0.0057  0.0219 </r>
        <r>  0.4726  0.0008  0.0003  0.0005  0.0000  0.0000  0.0000  0.0000  0.0000 </r>
       </set>
       <set comment="band 7">
        <r>  0.3978  0.0015  0.0005  0.0211  0.0008  0.0004  0.0004  0.0007  0.0008 </r>
        <r>  0.0157  0.0312  0.0115  0.1047  0.0000  0.0000  0.0000  0.0000  0.0000 </r>
       </set>
       <set comment="band 8">
        <r>  0.0241  0.0662  0.0267  0.0631  0.0025  0.0032  0.0067  0.0011  0.0008 </r>
        <r>  0.0062  0.1173  0.0447  0.0695  0.0000  0.0000  0.0000  0.0000  0.0000 </r>
       </set>
       <set comment="band 9">
        <r>  0.0017  0.0497  0.1069  0.0108  0.0030  0.0067  0.0025  0.0039  0.0020 </r>
        <r>  0.0002  0.0722  0.1970  0.0099  0.0000  0.0000  0.0000  0.0000  0.0000 </r>
       </set>
       <set comment="band 10">
        <r>  0.1834  0.0004  0.0127  0.0297  0.0012  0.0135  0.0178  0.0008  0.0076 </r>
        <r>  0.0285  0.0716  0.0758  0.0260  0.0000  0.0000  0.0000  0.0000  0.0000 </r>
       </set>
       <set comment="band 11">
        <r>  0.0175  0.0656  0.0408  0.0077  0.0037  0.0082  0.0206  0.0046  0.0038 </r>
        <r>  0.0304  0.0305  0.0262  0.0343  0.0000  0.0000  0.0000  0.0000  0.0000 </r>
       </set>
       <set comment="band 12">
        <r>  0.0695  0.0332  0.0753  0.0225  0.0086  0.0009  0.0063  0.0041  0.0033 </r>
        <r>  0.0138  0.0482  0.0127  0.1042  0.0000  0.0000  0.0000  0.0000  0.0000 </r>
       </set>
       <set comment="band 13">
        <r>  0.0003  0.0225  0.0054  0.0593  0.0203  0.0084  0.0015  0.0171  0.0244 </r>
        <r>  0.0124  0.0284  0.0099  0.0199  0.0000  0.0000  0.0000  0.0000  0.0000 </r>
       </set>
       <set comment="band 14">
        <r>  0.0000  0.1209  0.1152  0.0362  0.0157  0.0176  0.0074  0.0001  0.0093 </r>
        <r>  0.0321  0.0271  0.0328  0.0420  0.0000  0.0000  0.0000  0.0000  0.0000 </r>
       </set>
       <set comment="band 15">
        <r>  0.0005  0.0174  0.0309  0.0009  0.0041  0.0122  0.0066  0.0331  0.0137 </r>
        <r>  0.0058  0.0001  0.0286  0.0994  0.0000  0.0000  0.0000  0.0000  0.0000 </r>
       </set>
       <set comment="band 16">
        <r>  0.0006  0.0013  0.0211  0.1238  0.0037  0.0093  0.0141  0.0201  0.0033 </r>
        <r>  0.0298  0.0016  0.0004  0.0051  0.0000  0.0000  0.0000  0.0000  0.0000 </r>
       </set>
       <set comment="band 17">
        <r>  0.0362  0.0709  0.0383  0.0140  0.0172  0.0046  0.0025  0.0052  0.0053 </r>
        <r>  0.0009  0.0168  0.0071  0.0280  0.0000  0.0000  0.0000  0.0000  0.0000 </r>
       </set>
       <set comment="band 18">
        <r>  0.0126  0.0192  0.0180  0.0018  0.0059  0.0112  0.0050  0.0022  0.0017 </r>
        <r>  0.0032  0.0699  0.0260  0.0135  0.0000  0.0000  0.0000  0.0000  0.0000 </r>
       </set>
       <set comment="band 19">
        <r>  0.0030  0.0396  0.0299  0.0253  0.0018  0.0042  0.0055  0.0356  0.0190 </r>
        <r>  0.0003  0.0457  0.0568  0.0269  0.0000  0.0000  0.0000  0.0000  0.0000 </r>
       </set>
       <set comment="band 20">
        <r>  0.0036  0.0037  0.0107  0.0953  0.0039  0.0030  0.0083  0.0011  0.0032 </r>
        <r>  0.0035  0.0038  0.0008  0.0128  0.0000  0.0000  0.0000  0.0000  0.0000 </r>
       </set>
       <set comment="band 21">
        <r>  0.0331  0.0014  0.0008  0.0041  0.0119  0.0234  0.0061  0.0242  0.0485 </r>
        <r>  0.0118  0.0004  0.0013  0.0004  0.0000  0.0000  0.0000  0.0000  0.0000 </r>
       </set>
       <set comment="band 22">
        <r>  0.0093  0.0009  0.0030  0.0057  0.0414  0.0426  0.0058  0.0449  0.0256 </r>
        <r>  0.0065  0.0026  0.0049  0.0005  0.0000  0.0000  0.0000  0.0000  0.0000 </r>
       </set>
       <set comment="band 23">
        <r>  0.0034  0.0219  0.0087  0.0432  0.0109  0.0226  0.0178  0.0117  0.0118 </r>
        <r>  0.0012  0.0194  0.0469  0.0003  0.0000  0.0000  0.0000  0.0000  0.0000 </r>
       </set>
       <set comment="band 24">
        <r>  0.0053  0.0295  0.0130  0.0136  0.0125  0.0325  0.0067  0.0143  0.0150 </r>
        <r>  0.0094  0.0015  0.0006  0.0002  0.0000  0.0000  0.0000  0.0000  0.0000 </r>
       </set>
       <set comment="band 25">
        <r>  0.0004  0.0308  0.0103  0.0501  0.0297  0.0050  0.0418  0.0200  0.0446 </r>
        <r>  0.0169  0.0030  0.0014  0.0006  0.0000  0.0000  0.0000  0.0000  0.0000 </r>
       </set>
       <set comment="band 26">
        <r>  0.0303  0.0248  0.0083  0.0372  0.0501  0.0066  0.0035  0.0531  0.0338 </r>
        <r>  0.0039  0.0073  0.0155  0.0002  0.0000  0.0000  0.0000  0.0000  0.0000 </r>
       </set>
       <set comment="band 27">
        <r>  0.0021  0.0112  0.0222  0.0013  0.0338  0.0206  0.0046  0.0326  0.0005 </r>
        <r>  0.0128  0.0037  0.0017  0.0026  0.0000  0.0000  0.0000  0.0000  0.0000 </r>
       </set>
       <set comment="band 28">
        <r>  0.0410  0.0029  0.0001  0.0175  0.0218  0.0053  0.0094  0.0029  0.0140 </r>
        <r>  0.0254  0.0061  0.0108  0.0063  0.0000  0.0000  0.0000  0.0000  0.0000 </r>
       </set>
       <set comment="band 29">
        <r>  0.0027  0.0175  0.0096  0.0156  0.0341  0.0303  0.0711  0.0103  0.0572 </r>
        <r>  0.0317  0.0060  0.0021  0.0030  0.0000  0.0000  0.0000  0.0000  0.0000 </r>
       </set>
       <set comment="band 30">
        <r>  0.0124  0.0188  0.0215  0.0148  0.0043  0.0007  0.0001  0.0343  0.0195 </r>
        <r>  0.0000  0.0010  0.0001  0.0055  0.0000  0.0000  0.0000  0.0000  0.0000 </r>
       </set>
       <set comment="band 31">
        <r>  0.0229  0.0072  0.0278  0.0061  0.0422  0.0417  0.0309  0.0094  0.0168 </r>
        <r>  0.0025  0.0093  0.0059  0.0046  0.0000  0.0000  0.0000  0.0000  0.0000 </r>
       </set>
       <set comment="band 32">
        <r>  0.0003  0.0232  0.0721  0.0052  0.0165  0.0324  0.0569  0.0101  0.0062 </r>
        <r>  0.0007  0.0030  0.0116  0.0203  0.0000  0.0000  0.0000  0.0000  0.0000 </r>
       </set>
       <set comment="band 33">
        <r>  0.0102  0.0082  0.0127  0.0093  0.0102  0.0115  0.0216  0.0313  0.0458 </r>
        <r>  0.0059  0.0003  0.0000  0.0019  0.0000  0.0000  0.0000  0.0000  0.0000 </r>
       </set>
       <set comment="band 34">
        <r>  0.0535  0.0387  0.0148  0.0064  0.0244  0.0310  0.0011  0.0105  0.0061 </r>
        <r>  0.0082  0.0017  0.0007  0.0031  0.0000  0.0000  0.0000  0.0000  0.0000 </r>
       </set>
       <set comment="band 35">
        <r>  0.0011  0.0146  0.0056  0.0110  0.0316  0.0183  0.0096  0.0282  0.0104 </r>
        <r>  0.0112  0.0142  0.0056  0.0018  0.0000  0.0000  0.0000  0.0000  0.0000 </r>
       </set>
       <set comment="band 36">
        <r>  0.0079  0.0009  0.0011  0.0004  0.0038  0.0334  0.0436  0.0123  0.0091 </r>
        <r>  0.0009  0.0236  0.0627  0.0066  0.0000  0.0000  0.0000  0.0000  0.0000 </r>
       </set>
      </set>
      <set comment="kpoint 16">
       <set comment="band 1">
        <r>  0.0000  0.0005  0.0002  0.0008  0.1767  0.0293  0.5633  0.0586  0.0990 </r>
        <r>  0.0283  0.0000  0.0000  0.0000  0.0000  0.0000  0.0000  0.0000  0.0000 </r>
       </set>
       <set comment="band 2">
        <r>  0.0000  0.0000  0.0001  0.0000  0.0855  0.1315  0.1407  0.2631  0.3560 </r>
        <r>  0.0002  0.0006  0.0009  0.0003  0.0000  0.0000  0.0000  0.0000  0.0000 </r>
       </set>
       <set comment="band 3">
        <r>  0.0000  0.0001  0.0001  0.0000  0.1575  0.1421  0.0425  0.2690  0.3662 </r>
        <r>  0.0000  0.0009  0.0008  0.0009  0.0000  0.0000  0.0000  0.0000  0.0000 </r>
       </set>
       <set comment="band 4">
        <r>  0.0001  0.0000  0.0000  0.0000  0.5319  0.0386  0.1956  0.0652  0.1467 </r>
        <r>  0.0000  0.0001  0.0000  0.0002  0.0000  0.0000  0.0000  0.0000  0.0000 </r>
       </set>
       <set comment="band 5">
        <r>  0.0000  0.0000  0.0000  0.0000  0.0158  0.6374  0.0058  0.3198  0.0038 </r>
        <r>  0.0000  0.0000  0.0000  0.0000  0.0000  0.0000  0.0000  0.0000  0.0000 </r>
       </set>
       <set comment="band 6">
        <r>  0.0000  0.0203  0.0070  0.0337  0.0120  0.0031  0.0372  0.0061  0.0096 </r>
        <r>  0.4960  0.0000  0.0000  0.0000  0.0000  0.0000  0.0000  0.0000  0.0000 </r>
       </set>
       <set comment="band 7">
        <r>  0.4592  0.0001  0.0001  0.0000  0.0023  0.0002  0.0009  0.0001  0.0003 </r>
        <r>  0.0000  0.0486  0.0152  0.0819  0.0000  0.0000  0.0000  0.0000  0.0000 </r>
       </set>
       <set comment="band 8">
        <r>  0.0035  0.0515  0.0773  0.0258  0.0067  0.0030  0.0024  0.0034  0.0041 </r>
        <r>  0.0000  0.0860  0.0992  0.0727  0.0000  0.0000  0.0000  0.0000  0.0000 </r>
       </set>
       <set comment="band 9">
        <r>  0.0000  0.0633  0.0668  0.0598  0.0002  0.0006  0.0000  0.0012  0.0016 </r>
        <r>  0.0006  0.0807  0.1211  0.0404  0.0000  0.0000  0.0000  0.0000  0.0000 </r>
       </set>
       <set comment="band 10">
        <r>  0.0000  0.0365  0.0046  0.0683  0.0116  0.0012  0.0377  0.0023  0.0045 </r>
        <r>  0.0408  0.0274  0.0411  0.0137  0.0000  0.0000  0.0000  0.0000  0.0000 </r>
       </set>
       <set comment="band 11">
        <r>  0.2183  0.0066  0.0099  0.0033  0.0211  0.0010  0.0079  0.0009  0.0033 </r>
        <r>  0.0000  0.0561  0.0399  0.0722  0.0000  0.0000  0.0000  0.0000  0.0000 </r>
       </set>
       <set comment="band 12">
        <r>  0.0000  0.0645  0.0721  0.0568  0.0021  0.0063  0.0002  0.0126  0.0168 </r>
        <r>  0.0513  0.0300  0.0449  0.0150  0.0000  0.0000  0.0000  0.0000  0.0000 </r>
       </set>
       <set comment="band 13">
        <r>  0.0536  0.0362  0.0543  0.0181  0.0105  0.0099  0.0037  0.0071  0.0051 </r>
        <r>  0.0000  0.0437  0.0073  0.0801  0.0000  0.0000  0.0000  0.0000  0.0000 </r>
       </set>
       <set comment="band 14">
        <r>  0.0019  0.0731  0.1097  0.0366  0.0035  0.0089  0.0003  0.0170  0.0224 </r>
        <r>  0.0000  0.0966  0.0898  0.1033  0.0000  0.0000  0.0000  0.0000  0.0000 </r>
       </set>
       <set comment="band 15">
        <r>  0.0000  0.0551  0.0663  0.0439  0.0060  0.0072  0.0122  0.0144  0.0196 </r>
        <r>  0.0001  0.0029  0.0043  0.0014  0.0000  0.0000  0.0000  0.0000  0.0000 </r>
       </set>
       <set comment="band 16">
        <r>  0.0081  0.0024  0.0036  0.0012  0.0074  0.0404  0.0025  0.0232  0.0062 </r>
        <r>  0.0000  0.0475  0.0249  0.0701  0.0000  0.0000  0.0000  0.0000  0.0000 </r>
       </set>
       <set comment="band 17">
        <r>  0.0000  0.0405  0.0118  0.0692  0.0029  0.0002  0.0096  0.0004  0.0009 </r>
        <r>  0.0553  0.0013  0.0020  0.0007  0.0000  0.0000  0.0000  0.0000  0.0000 </r>
       </set>
       <set comment="band 18">
        <r>  0.0000  0.0088  0.0115  0.0062  0.0002  0.0000  0.0007  0.0001  0.0001 </r>
        <r>  0.0028  0.0001  0.0002  0.0001  0.0000  0.0000  0.0000  0.0000  0.0000 </r>
       </set>
       <set comment="band 19">
        <r>  0.0000  0.0572  0.0167  0.0977  0.0041  0.0016  0.0119  0.0032  0.0047 </r>
        <r>  0.0309  0.0531  0.0796  0.0265  0.0000  0.0000  0.0000  0.0000  0.0000 </r>
       </set>
       <set comment="band 20">
        <r>  0.0196  0.0001  0.0002  0.0001  0.0117  0.0526  0.0015  0.0603  0.0610 </r>
        <r>  0.0000  0.0028  0.0015  0.0040  0.0000  0.0000  0.0000  0.0000  0.0000 </r>
       </set>
       <set comment="band 21">
        <r>  0.0000  0.0526  0.0368  0.0684  0.0032  0.0054  0.0045  0.0108  0.0146 </r>
        <r>  0.0098  0.0001  0.0001  0.0000  0.0000  0.0000  0.0000  0.0000  0.0000 </r>
       </set>
       <set comment="band 22">
        <r>  0.0015  0.0006  0.0009  0.0003  0.0253  0.0683  0.0085  0.0460  0.0239 </r>
        <r>  0.0000  0.0012  0.0005  0.0018  0.0000  0.0000  0.0000  0.0000  0.0000 </r>
       </set>
       <set comment="band 23">
        <r>  0.0679  0.0048  0.0072  0.0024  0.0085  0.0585  0.0030  0.0319  0.0057 </r>
        <r>  0.0000  0.0011  0.0004  0.0017  0.0000  0.0000  0.0000  0.0000  0.0000 </r>
       </set>
       <set comment="band 24">
        <r>  0.0154  0.0004  0.0006  0.0002  0.0160  0.0012  0.0058  0.0023  0.0050 </r>
        <r>  0.0000  0.0069  0.0075  0.0062  0.0000  0.0000  0.0000  0.0000  0.0000 </r>
       </set>
       <set comment="band 25">
        <r>  0.0000  0.0101  0.0150  0.0052  0.0037  0.0100  0.0013  0.0201  0.0268 </r>
        <r>  0.0026  0.0004  0.0006  0.0002  0.0000  0.0000  0.0000  0.0000  0.0000 </r>
       </set>
       <set comment="band 26">
        <r>  0.0000  0.0541  0.0100  0.0982  0.0073  0.0219  0.0000  0.0438  0.0584 </r>
        <r>  0.0017  0.0016  0.0023  0.0008  0.0000  0.0000  0.0000  0.0000  0.0000 </r>
       </set>
       <set comment="band 27">
        <r>  0.0271  0.0327  0.0490  0.0163  0.0056  0.0312  0.0013  0.0253  0.0176 </r>
        <r>  0.0000  0.0011  0.0014  0.0009  0.0000  0.0000  0.0000  0.0000  0.0000 </r>
       </set>
       <set comment="band 28">
        <r>  0.0000  0.0045  0.0046  0.0043  0.0283  0.0135  0.0802  0.0269  0.0389 </r>
        <r>  0.0861  0.0127  0.0191  0.0064  0.0000  0.0000  0.0000  0.0000  0.0000 </r>
       </set>
       <set comment="band 29">
        <r>  0.0302  0.0188  0.0281  0.0094  0.1555  0.0158  0.0565  0.0301  0.0582 </r>
        <r>  0.0000  0.0108  0.0141  0.0074  0.0000  0.0000  0.0000  0.0000  0.0000 </r>
       </set>
       <set comment="band 30">
        <r>  0.0000  0.0047  0.0050  0.0043  0.0040  0.0009  0.0124  0.0019  0.0030 </r>
        <r>  0.0086  0.0007  0.0010  0.0003  0.0000  0.0000  0.0000  0.0000  0.0000 </r>
       </set>
       <set comment="band 31">
        <r>  0.0000  0.0345  0.0510  0.0180  0.0305  0.0020  0.1006  0.0040  0.0091 </r>
        <r>  0.0016  0.0017  0.0026  0.0009  0.0000  0.0000  0.0000  0.0000  0.0000 </r>
       </set>
       <set comment="band 32">
        <r>  0.0790  0.0119  0.0178  0.0059  0.0017  0.0302  0.0002  0.0208  0.0103 </r>
        <r>  0.0000  0.0026  0.0002  0.0050  0.0000  0.0000  0.0000  0.0000  0.0000 </r>
       </set>
       <set comment="band 33">
        <r>  0.0172  0.0149  0.0223  0.0074  0.0003  0.0286  0.0001  0.0144  0.0003 </r>
        <r>  0.0000  0.0160  0.0139  0.0180  0.0000  0.0000  0.0000  0.0000  0.0000 </r>
       </set>
       <set comment="band 34">
        <r>  0.0000  0.0051  0.0000  0.0101  0.0135  0.0069  0.0378  0.0138  0.0198 </r>
        <r>  0.0015  0.0002  0.0003  0.0001  0.0000  0.0000  0.0000  0.0000  0.0000 </r>
       </set>
       <set comment="band 35">
        <r>  0.0142  0.0036  0.0055  0.0018  0.0574  0.0379  0.0209  0.0263  0.0200 </r>
        <r>  0.0000  0.0324  0.0378  0.0269  0.0000  0.0000  0.0000  0.0000  0.0000 </r>
       </set>
       <set comment="band 36">
        <r>  0.0000  0.0078  0.0070  0.0083  0.0068  0.0029  0.0232  0.0050  0.0095 </r>
        <r>  0.0056  0.0268  0.0368  0.0123  0.0000  0.0000  0.0000  0.0000  0.0000 </r>
       </set>
      </set>
     </set>
    </set>
   </array>
  </projected>
 </calculation>
 <structure name="finalpos" >
  <crystal>
   <varray name="basis" >
    <v>       3.61541800       0.00000000       2.08736254 </v>
    <v>       1.20513900       3.40864864       2.08736254 </v>
    <v>       0.00000000       0.00000000       4.17472507 </v>
   </varray>
   <i name="volume">     51.44801605 </i>
   <varray name="rec_basis" >
    <v>       0.27659319      -0.09779044       0.00000000 </v>
    <v>       0.00000000       0.29337139       0.00000000 </v>
    <v>      -0.13829660      -0.09779048       0.23953673 </v>
   </varray>
  </crystal>
  <varray name="positions" >
   <v>       0.00000000       0.00000000       0.00000000 </v>
   <v>       0.25000000       0.25000000       0.25000000 </v>
  </varray>
 </structure>
</modeling>
