 vasp.6.4.2 20Jul23 (build Mar 15 2024 16:31:38) complex                        
  
 executed on             LinuxIFC date 2025.03.19  14:40:25
 running  120 mpi-ranks, on    3 nodes
 distrk:  each k-point on  120 cores,    1 groups
 distr:  one band on NCORE=  10 cores,   12 groups


--------------------------------------------------------------------------------------------------------


 INCAR:
   ALGO = Fast
   EDIFF = 1e-05
   ENAUG = 1360
   ENCUT = 680
   GGA = Ps
   ISMEAR = -5
   ISPIN = 2
   LAECHG = True
   LASPH = True
   LCHARG = True
   LELF = False
   LMAXMIX = 4
   LMIXTAU = True
   LORBIT = 11
   LREAL = False
   LVTOT = True
   LWAVE = True
   MAGMOM = 20*0.6
   NCORE = 10
   NELM = 200
   NSW = 0
   PREC = Accurate
   SIGMA = 0.2

 POTCAR:    PAW_PBE Sb 06Sep2000                  
 POTCAR:    PAW_PBE Se 06Sep2000                  
 WARNING: For LVTOT=.TRUE., VASP.5.x writes the TOTAL local potential to the
     file LOCPOT. If you want only the Hartree contributions, use LVHAR=.TRUE.
     instead. 

 POTCAR:    PAW_PBE Sb 06Sep2000                  
   VRHFIN =Sb: s2p3                                                                                 
   LEXCH  = PE                                                                                      
   EATOM  =   149.9515 eV,   11.0211 Ry                                                             
                                                                                                    
   TITEL  = PAW_PBE Sb 06Sep2000                                                                    
   LULTRA =        F    use ultrasoft PP ?                                                          
   IUNSCR =        1    unscreen: 0-lin 1-nonlin 2-no                                               
   RPACOR =    2.200    partial core radius                                                         
   POMASS =  121.750; ZVAL   =    5.000    mass and valenz                                          
   RCORE  =    2.300    outmost cutoff radius                                                       
   RWIGS  =    2.980; RWIGS  =    1.577    wigner-seitz radius (au A)                               
   ENMAX  =  172.069; ENMIN  =  129.052 eV                                                          
   ICORE  =        3    local potential                                                             
   LCOR   =        T    correct aug charges                                                         
   LPAW   =        T    paw PP                                                                      
   EAUG   =  380.513                                                                                
   DEXC   =    0.000                                                                                
   RMAX   =    2.346    core radius for proj-oper                                                   
   RAUG   =    1.300    factor for augmentation sphere                                              
   RDEP   =    2.360    radius for radial grids                                                     
   RDEPT  =    2.192    core radius for aug-charge                                                  
                                                                                                    
   Atomic configuration                                                                             
   13 entries                                                                                       
     n  l   j            E        occ.                                                              
     1  0  0.50    -30298.2797   2.0000                                                             
     2  0  0.50     -4610.2252   2.0000                                                             
     2  1  1.50     -4138.3407   6.0000                                                             
     3  0  0.50      -903.8815   2.0000                                                             
     3  1  1.50      -750.1337   6.0000                                                             
     3  2  2.50      -515.7092  10.0000                                                             
     4  0  0.50      -148.8034   2.0000                                                             
     4  1  1.50      -101.7581   6.0000                                                             
     4  2  2.50       -33.5048  10.0000                                                             
     5  0  0.50       -12.8298   2.0000                                                             
     5  1  0.50        -4.8276   3.0000                                                             
     5  2  1.50        -4.0817   0.0000                                                             
     4  3  2.50        -4.0817   0.0000                                                             
   Description                                                                                      
     l       E           TYP  RCUT    TYP  RCUT                                                     
     0    -12.8297861     23  2.300                                                                 
     0     13.6058260     23  2.300                                                                 
     1     -4.8275512     23  2.300                                                                 
     1     -0.7245443     23  2.300                                                                 
     2     -4.0817478     23  2.300                                                                 
     3     -1.3605826     23  2.300                                                                 
  local pseudopotential read in
  partial core-charges read in
  partial kinetic energy density read in
  atomic valenz-charges read in
  non local Contribution for L=           0  read in
    real space projection operators read in
  non local Contribution for L=           0  read in
    real space projection operators read in
  non local Contribution for L=           1  read in
    real space projection operators read in
  non local Contribution for L=           1  read in
    real space projection operators read in
  non local Contribution for L=           2  read in
    real space projection operators read in
    PAW grid and wavefunctions read in
 
   number of l-projection  operators is LMAX  =           5
   number of lm-projection operators is LMMAX =          13
 
 POTCAR:    PAW_PBE Se 06Sep2000                  
   VRHFIN =Se: s2p4                                                                                 
   LEXCH  = PE                                                                                      
   EATOM  =   257.1286 eV,   18.8984 Ry                                                             
                                                                                                    
   TITEL  = PAW_PBE Se 06Sep2000                                                                    
   LULTRA =        F    use ultrasoft PP ?                                                          
   IUNSCR =        1    unscreen: 0-lin 1-nonlin 2-no                                               
   RPACOR =    1.900    partial core radius                                                         
   POMASS =   78.960; ZVAL   =    6.000    mass and valenz                                          
   RCORE  =    2.100    outmost cutoff radius                                                       
   RWIGS  =    2.200; RWIGS  =    1.164    wigner-seitz radius (au A)                               
   ENMAX  =  211.555; ENMIN  =  158.666 eV                                                          
   ICORE  =        3    local potential                                                             
   LCOR   =        T    correct aug charges                                                         
   LPAW   =        T    paw PP                                                                      
   EAUG   =  446.842                                                                                
   DEXC   =    0.000                                                                                
   RMAX   =    2.147    core radius for proj-oper                                                   
   RAUG   =    1.300    factor for augmentation sphere                                              
   RDEP   =    2.177    radius for radial grids                                                     
   RDEPT  =    1.928    core radius for aug-charge                                                  
                                                                                                    
   Atomic configuration                                                                             
   10 entries                                                                                       
     n  l   j            E        occ.                                                              
     1  0  0.50    -12503.4787   2.0000                                                             
     2  0  0.50     -1606.9547   2.0000                                                             
     2  1  1.50     -1413.3140   6.0000                                                             
     3  0  0.50      -213.4885   2.0000                                                             
     3  1  1.50      -152.9538   6.0000                                                             
     3  2  2.50       -53.1221  10.0000                                                             
     4  0  0.50       -17.2865   2.0000                                                             
     4  1  0.50        -6.5110   4.0000                                                             
     4  2  2.50        -6.8029   0.0000                                                             
     4  3  2.50        -6.8029   0.0000                                                             
   Description                                                                                      
     l       E           TYP  RCUT    TYP  RCUT                                                     
     0    -17.2865377     23  2.100                                                                 
     0    -15.3094411     23  2.100                                                                 
     1     -6.5110275     23  2.100                                                                 
     1     -0.0695192     23  2.100                                                                 
     2     -6.8029130     23  2.100                                                                 
     3     -1.3605826      7  2.100                                                                 
  local pseudopotential read in
  partial core-charges read in
  partial kinetic energy density read in
  atomic valenz-charges read in
  non local Contribution for L=           0  read in
    real space projection operators read in
  non local Contribution for L=           0  read in
    real space projection operators read in
  non local Contribution for L=           1  read in
    real space projection operators read in
  non local Contribution for L=           1  read in
    real space projection operators read in
  non local Contribution for L=           2  read in
    real space projection operators read in
    PAW grid and wavefunctions read in
 
   number of l-projection  operators is LMAX  =           5
   number of lm-projection operators is LMMAX =          13
 
 -----------------------------------------------------------------------------
|                                                                             |
|               ----> ADVICE to this user running VASP <----                  |
|                                                                             |
|     You have a (more or less) 'large supercell' and for larger cells it     |
|     might be more efficient to use real-space projection operators.         |
|     Therefore, try LREAL= Auto in the INCAR file.                           |
|     Mind: For very accurate calculation, you might also keep the            |
|     reciprocal projection scheme (i.e. LREAL=.FALSE.).                      |
|                                                                             |
 -----------------------------------------------------------------------------

 -----------------------------------------------------------------------------
|                                                                             |
|               ----> ADVICE to this user running VASP <----                  |
|                                                                             |
|     You enforced a specific xc type in the INCAR file but a different       |
|     type was found in the POTCAR file.                                      |
|     I HOPE YOU KNOW WHAT YOU ARE DOING!                                     |
|                                                                             |
 -----------------------------------------------------------------------------

  PAW_PBE Sb 06Sep2000                  :
 energy of atom  1       EATOM= -149.9515
 kinetic energy error for atom=    0.0002 (will be added to EATOM!!)
  PAW_PBE Se 06Sep2000                  :
 energy of atom  2       EATOM= -257.1286
 kinetic energy error for atom=    0.0004 (will be added to EATOM!!)
 
 
 POSCAR: Sb8 Se12
  positions in direct lattice
  No initial velocities read in
 exchange correlation table for  LEXCH =       14
   RHO(1)=    0.500       N(1)  =     2000
   RHO(2)=  100.500       N(2)  =     4000
 


--------------------------------------------------------------------------------------------------------


 ion  position               nearest neighbor table
   1  0.750  0.038  0.140-   9 2.59  13 2.81  13 2.81  10 2.99  10 2.99
   2  0.250  0.962  0.860-  10 2.59  14 2.81  14 2.81   9 2.99   9 2.99
   3  0.250  0.538  0.360-  11 2.59  15 2.81  15 2.81  12 2.99  12 2.99
   4  0.750  0.462  0.640-  12 2.59  16 2.81  16 2.81  11 2.99  11 2.99
   5  0.250  0.330  0.034-  13 2.66  20 2.68  20 2.68   9 3.27   9 3.27
   6  0.750  0.670  0.966-  14 2.66  19 2.68  19 2.68  10 3.27  10 3.27
   7  0.750  0.830  0.466-  15 2.66  18 2.68  18 2.68  11 3.27  11 3.27
   8  0.250  0.170  0.534-  16 2.66  17 2.68  17 2.68  12 3.27  12 3.27
   9  0.750  0.128  0.948-   1 2.59   2 2.99   2 2.99   5 3.27   5 3.27
  10  0.250  0.872  0.052-   2 2.59   1 2.99   1 2.99   6 3.27   6 3.27
  11  0.250  0.628  0.552-   3 2.59   4 2.99   4 2.99   7 3.27   7 3.27
  12  0.750  0.372  0.448-   4 2.59   3 2.99   3 2.99   8 3.27   8 3.27
  13  0.250  0.192  0.205-   5 2.66   1 2.81   1 2.81
  14  0.750  0.808  0.795-   6 2.66   2 2.81   2 2.81
  15  0.750  0.692  0.295-   7 2.66   3 2.81   3 2.81
  16  0.250  0.308  0.705-   8 2.66   4 2.81   4 2.81
  17  0.750  0.054  0.627-   8 2.68   8 2.68
  18  0.250  0.946  0.373-   7 2.68   7 2.68
  19  0.250  0.554  0.873-   6 2.68   6 2.68
  20  0.750  0.446  0.127-   5 2.68   5 2.68
 
  LATTYP: Found a simple orthorhombic cell.
 ALAT       =     4.0015568700
 B/A-ratio  =     2.9272680835
 C/A-ratio  =     3.0893158842
  
  Lattice vectors:
  
 A1 = (   4.0015568700,   0.0000000000,   0.0000000000)
 A2 = (  -0.0000000000,  11.7136297100,   0.0000000000)
 A3 = (   0.0000000000,   0.0000000000,  12.3620732000)


Analysis of symmetry for initial positions (statically):
=====================================================================
 Subroutine PRICEL returns:
 Original cell was already a primitive cell.
 

 Routine SETGRP: Setting up the symmetry group for a 
 simple orthorhombic supercell.


 Subroutine GETGRP returns: Found  8 space group operations
 (whereof  2 operations were pure point group operations)
 out of a pool of  8 trial point group operations.


The static configuration has the point symmetry S_2 .
 The point group associated with its full space group is D_2h.


Analysis of symmetry for dynamics (positions and initial velocities):
=====================================================================
 Subroutine PRICEL returns:
 Original cell was already a primitive cell.
 

 Routine SETGRP: Setting up the symmetry group for a 
 simple orthorhombic supercell.


 Subroutine GETGRP returns: Found  8 space group operations
 (whereof  2 operations were pure point group operations)
 out of a pool of  8 trial point group operations.


The dynamic configuration has the point symmetry S_2 .
 The point group associated with its full space group is D_2h.


Analysis of structural, dynamic, and magnetic symmetry:
=====================================================================
 Subroutine PRICEL returns:
 Original cell was already a primitive cell.
 

 Routine SETGRP: Setting up the symmetry group for a 
 simple orthorhombic supercell.


 Subroutine GETGRP returns: Found  8 space group operations
 (whereof  2 operations were pure point group operations)
 out of a pool of  8 trial point group operations.


The overall configuration has the point symmetry S_2 .
 The point group associated with its full space group is D_2h.


 Subroutine INISYM returns: Found  8 space group operations
 (whereof  2 operations are pure point group operations),
 and found     1 'primitive' translations


----------------------------------------------------------------------------------------

                                     Primitive cell                                     

  volume of cell :     579.4444

  direct lattice vectors                    reciprocal lattice vectors
     4.001556870  0.000000000  0.000000000     0.249902733  0.000000000  0.000000000
    -0.000000000 11.713629710  0.000000000     0.000000000  0.085370634  0.000000000
     0.000000000  0.000000000 12.362073200    -0.000000000 -0.000000000  0.080892580

  length of vectors
     4.001556870 11.713629710 12.362073200     0.249902733  0.085370634  0.080892580

  position of ions in fractional coordinates (direct lattice)
     0.750000000  0.038094600  0.140322370
     0.250000000  0.961905400  0.859677630
     0.250000000  0.538094600  0.359677630
     0.750000000  0.461905400  0.640322370
     0.250000000  0.329591380  0.033812840
     0.750000000  0.670408620  0.966187160
     0.750000000  0.829591380  0.466187160
     0.250000000  0.170408620  0.533812840
     0.750000000  0.127525360  0.948345200
     0.250000000  0.872474640  0.051654800
     0.250000000  0.627525360  0.551654800
     0.750000000  0.372474640  0.448345200
     0.250000000  0.192100670  0.205331320
     0.750000000  0.807899330  0.794668680
     0.750000000  0.692100670  0.294668680
     0.250000000  0.307899330  0.705331320
     0.750000000  0.054098690  0.627349150
     0.250000000  0.945901310  0.372650850
     0.250000000  0.554098690  0.872650850
     0.750000000  0.445901310  0.127349150

  ion indices of the primitive-cell ions
   primitive index   ion index
                 1           1
                 2           2
                 3           3
                 4           4
                 5           5
                 6           6
                 7           7
                 8           8
                 9           9
                10          10
                11          11
                12          12
                13          13
                14          14
                15          15
                16          16
                17          17
                18          18
                19          19
                20          20

----------------------------------------------------------------------------------------

 
 
 KPOINTS: pymatgen with grid density = 548 / numbe

Automatic generation of k-mesh.
 Grid dimensions read from file:
 generate k-points for:    6    2    2

 Generating k-lattice:

  Cartesian coordinates                     Fractional coordinates (reciprocal lattice)
     0.041650456  0.000000000  0.000000000     0.166666667 -0.000000000  0.000000000
     0.000000000  0.042685317  0.000000000     0.000000000  0.500000000  0.000000000
    -0.000000000 -0.000000000  0.040446290    -0.000000000 -0.000000000  0.500000000

  Length of vectors
     0.041650456  0.042685317  0.040446290

  Shift w.r.t. Gamma in fractional coordinates (k-lattice)
     0.000000000  0.000000000  0.000000000

 TETIRR: Found     72 inequivalent tetrahedra from      144
 
 Subroutine IBZKPT returns following result:
 ===========================================
 
 Found     16 irreducible k-points:
 
 Following reciprocal coordinates:
            Coordinates               Weight
  0.000000  0.000000  0.000000      1.000000
  0.166667  0.000000  0.000000      2.000000
  0.333333 -0.000000  0.000000      2.000000
  0.500000  0.000000  0.000000      1.000000
  0.000000  0.500000  0.000000      1.000000
  0.166667  0.500000  0.000000      2.000000
  0.333333  0.500000  0.000000      2.000000
  0.500000  0.500000  0.000000      1.000000
  0.000000  0.000000  0.500000      1.000000
  0.166667 -0.000000  0.500000      2.000000
  0.333333 -0.000000  0.500000      2.000000
  0.500000 -0.000000  0.500000      1.000000
  0.000000  0.500000  0.500000      1.000000
  0.166667  0.500000  0.500000      2.000000
  0.333333  0.500000  0.500000      2.000000
  0.500000  0.500000  0.500000      1.000000
 
 Following cartesian coordinates:
            Coordinates               Weight
  0.000000  0.000000  0.000000      1.000000
  0.041650  0.000000  0.000000      2.000000
  0.083301  0.000000  0.000000      2.000000
  0.124951  0.000000  0.000000      1.000000
  0.000000  0.042685  0.000000      1.000000
  0.041650  0.042685  0.000000      2.000000
  0.083301  0.042685  0.000000      2.000000
  0.124951  0.042685  0.000000      1.000000
 -0.000000 -0.000000  0.040446      1.000000
  0.041650  0.000000  0.040446      2.000000
  0.083301  0.000000  0.040446      2.000000
  0.124951  0.000000  0.040446      1.000000
 -0.000000  0.042685  0.040446      1.000000
  0.041650  0.042685  0.040446      2.000000
  0.083301  0.042685  0.040446      2.000000
  0.124951  0.042685  0.040446      1.000000
 


--------------------------------------------------------------------------------------------------------




 Dimension of arrays:
   k-points           NKPTS =     16   k-points in BZ     NKDIM =     16   number of bands    NBANDS=     84
   number of dos      NEDOS =    301   number of ions     NIONS =     20
   non local maximal  LDIM  =      5   non local SUM 2l+1 LMDIM =     13
   total plane-waves  NPLWV = 388800
   max r-space proj   IRMAX =      1   max aug-charges    IRDMAX=  37433
   dimension x,y,z NGX =    36 NGY =  100 NGZ =  108
   dimension x,y,z NGXF=    72 NGYF=  200 NGZF=  216
   support grid    NGXF=    72 NGYF=  200 NGZF=  216
   ions per type =               8  12
   NGX,Y,Z   is equivalent  to a cutoff of  14.96, 14.19, 14.52 a.u.
   NGXF,Y,Z  is equivalent  to a cutoff of  29.91, 28.39, 29.05 a.u.

 SYSTEM =  unknown system                          
 POSCAR =  Sb8 Se12                                

 Startparameter for this run:
   NWRITE =      2    write-flag & timer
   PREC   = accura    normal or accurate (medium, high low for compatibility)
   ISTART =      0    job   : 0-new  1-cont  2-samecut
   ICHARG =      2    charge: 1-file 2-atom 10-const
   ISPIN  =      2    spin polarized calculation?
   LNONCOLLINEAR =      F non collinear calculations
   LSORBIT =      F    spin-orbit coupling
   INIWAV =      1    electr: 0-lowe 1-rand  2-diag
   LASPH  =      T    aspherical Exc in radial PAW
 Electronic Relaxation 1
   ENCUT  =  680.0 eV  49.98 Ry    7.07 a.u.   8.51 24.91 26.28*2*pi/ulx,y,z
   ENINI  =  680.0     initial cutoff
   ENAUG  = 1360.0 eV  augmentation charge cutoff
   NELM   =    200;   NELMIN=  2; NELMDL= -5     # of ELM steps 
   EDIFF  = 0.1E-04   stopping-criterion for ELM
   LREAL  =      F    real-space projection
   NLSPLINE    = F    spline interpolate recip. space projectors
   LCOMPAT=      F    compatible to vasp.4.4
   GGA_COMPAT  = T    GGA compatible to vasp.4.4-vasp.4.6
   LMAXPAW     = -100 max onsite density
   LMAXMIX     =    4 max onsite mixed and CHGCAR
   VOSKOWN=      0    Vosko Wilk Nusair interpolation
   ROPT   =    0.00000   0.00000
 Ionic relaxation
   EDIFFG = 0.1E-03   stopping-criterion for IOM
   NSW    =      0    number of steps for IOM
   NBLOCK =      1;   KBLOCK =      1    inner block; outer block 
   IBRION =     -1    ionic relax: 0-MD 1-quasi-New 2-CG
   NFREE  =      0    steps in history (QN), initial steepest desc. (CG)
   ISIF   =      2    stress and relaxation
   IWAVPR =     10    prediction:  0-non 1-charg 2-wave 3-comb
   ISYM   =      2    0-nonsym 1-usesym 2-fastsym
   LCORR  =      T    Harris-Foulkes like correction to forces

   POTIM  = 0.5000    time-step for ionic-motion
   TEIN   =    0.0    initial temperature
   TEBEG  =    0.0;   TEEND  =   0.0 temperature during run
   SMASS  =  -3.00    Nose mass-parameter (am)
   estimated Nose-frequenzy (Omega)   =  0.10E-29 period in steps = 0.13E+47 mass=  -0.366E-27a.u.
   SCALEE = 1.0000    scale energy and forces
   NPACO  =    256;   APACO  = 10.0  distance and # of slots for P.C.
   PSTRESS=    0.0 pullay stress

  Mass of Ions in am
   POMASS = 121.75 78.96
  Ionic Valenz
   ZVAL   =   5.00  6.00
  Atomic Wigner-Seitz radii
   RWIGS  =  -1.00 -1.00
  virtual crystal weights 
   VCA    =   1.00  1.00
   NELECT =     112.0000    total number of electrons
   NUPDOWN=      -1.0000    fix difference up-down

 DOS related values:
   EMIN   =  10.00;   EMAX   =-10.00  energy-range for DOS
   EFERMI =   0.00;   METHOD = LEGACY      
   ISMEAR =    -5;   SIGMA  =   0.20  broadening in eV -4-tet -1-fermi 0-gaus

 Electronic relaxation 2 (details)
   IALGO  =     68    algorithm
   LDIAG  =      T    sub-space diagonalisation (order eigenvalues)
   LSUBROT=      F    optimize rotation matrix (better conditioning)
   TURBO    =      0    0=normal 1=particle mesh
   IRESTART =      0    0=no restart 2=restart with 2 vectors
   NREBOOT  =      0    no. of reboots
   NMIN     =      0    reboot dimension
   EREF     =   0.00    reference energy to select bands
   IMIX   =      4    mixing-type and parameters
     AMIX     =   0.40;   BMIX     =  1.00
     AMIX_MAG =   1.60;   BMIX_MAG =  1.00
     AMIN     =   0.10
     WC   =   100.;   INIMIX=   1;  MIXPRE=   1;  MAXMIX= -45

 Intra band minimization:
   WEIMIN = 0.0000     energy-eigenvalue tresh-hold
   EBREAK =  0.30E-07  absolut break condition
   DEPER  =   0.30     relativ break condition  

   TIME   =   0.40     timestep for ELM

  volume/ion in A,a.u.               =      28.97       195.51
  Fermi-wavevector in a.u.,A,eV,Ry     =   0.946550  1.788720 12.190234  0.895957
  Thomas-Fermi vector in A             =   2.074558
 
 Write flags
   LWAVE        =      T    write WAVECAR
   LDOWNSAMPLE  =      F    k-point downsampling of WAVECAR
   LCHARG       =      T    write CHGCAR
   LVTOT        =      T    write LOCPOT, total local potential
   LVHAR        =      F    write LOCPOT, Hartree potential only
   LELF         =      F    write electronic localiz. function (ELF)
   LORBIT       =     11    0 simple, 1 ext, 2 COOP (PROOUT), +10 PAW based schemes


 Dipole corrections
   LMONO  =      F    monopole corrections only (constant potential shift)
   LDIPOL =      F    correct potential (dipole corrections)
   IDIPOL =      0    1-x, 2-y, 3-z, 4-all directions 
   EPSILON=  1.0000000 bulk dielectric constant

 Exchange correlation treatment:
   GGA     =    PS    GGA type
   LEXCH   =    14    internal setting for exchange type
   LIBXC   =     F    Libxc                    
   VOSKOWN =     0    Vosko Wilk Nusair interpolation
   LHFCALC =     F    Hartree Fock is set to
   LHFONE  =     F    Hartree Fock one center treatment
   AEXX    =    0.0000 exact exchange contribution

 Linear response parameters
   LEPSILON=     F    determine dielectric tensor
   LRPA    =     F    only Hartree local field effects (RPA)
   LNABLA  =     F    use nabla operator in PAW spheres
   LVEL    =     F    velocity operator in full k-point grid
   CSHIFT  =0.1000    complex shift for real part using Kramers Kronig
   OMEGAMAX=  -1.0    maximum frequency
   DEG_THRESHOLD= 0.2000000E-02 threshold for treating states as degnerate
   RTIME   =   -0.100 relaxation time in fs
  (WPLASMAI=    0.000 imaginary part of plasma frequency in eV, 0.658/RTIME)
   DFIELD  = 0.0000000 0.0000000 0.0000000 field for delta impulse in time
 
  Optional k-point grid parameters
   LKPOINTS_OPT  =     F    use optional k-point grid
   KPOINTS_OPT_MODE=     1    mode for optional k-point grid
 
 Orbital magnetization related:
   ORBITALMAG=     F  switch on orbital magnetization
   LCHIMAG   =     F  perturbation theory with respect to B field
   DQ        =  0.001000  dq finite difference perturbation B field
   LLRAUG    =     F  two centre corrections for induced B field
   LBONE     =     F  B-component reconstruction in AE one-centre
   LVGVCALC  =     T  calculate vGv susceptibility
   LVGVAPPL  =     F  apply vGv susceptibility instead of pGv for G=0

 Random number generation:
   RANDOM_GENERATOR = DEFAULT
   PCG_SEED         = not used


--------------------------------------------------------------------------------------------------------


 Static calculation
 charge density and potential will be updated during run
 spin polarized calculation
 RMM-DIIS sequential band-by-band and
  variant of blocked Davidson during initial phase
 perform sub-space diagonalisation
    before iterative eigenvector-optimisation
 modified Broyden-mixing scheme, WC =      100.0
 initial mixing is a Kerker type mixing with AMIX =  0.4000 and BMIX =      1.0000
 Hartree-type preconditioning will be used
 using additional bands           28
 reciprocal scheme for non local part
 use partial core corrections
 calculate Harris-corrections to forces 
   (improved forces if not selfconsistent)
 use gradient corrections 
 use of overlap-Matrix (Vanderbilt PP)
 Fermi weights with tetrahedron method with Bloechl corrections


--------------------------------------------------------------------------------------------------------


  energy-cutoff  :      680.00
  volume of cell :      579.44
      direct lattice vectors                 reciprocal lattice vectors
     4.001556870  0.000000000  0.000000000     0.249902733  0.000000000  0.000000000
    -0.000000000 11.713629710  0.000000000     0.000000000  0.085370634  0.000000000
     0.000000000  0.000000000 12.362073200    -0.000000000 -0.000000000  0.080892580

  length of vectors
     4.001556870 11.713629710 12.362073200     0.249902733  0.085370634  0.080892580


 
 k-points in units of 2pi/SCALE and weight: pymatgen with grid density = 548 / numbe
   0.00000000  0.00000000  0.00000000       0.042
   0.04165046  0.00000000  0.00000000       0.083
   0.08330091  0.00000000  0.00000000       0.083
   0.12495137  0.00000000  0.00000000       0.042
   0.00000000  0.04268532  0.00000000       0.042
   0.04165046  0.04268532  0.00000000       0.083
   0.08330091  0.04268532  0.00000000       0.083
   0.12495137  0.04268532  0.00000000       0.042
  -0.00000000 -0.00000000  0.04044629       0.042
   0.04165046  0.00000000  0.04044629       0.083
   0.08330091  0.00000000  0.04044629       0.083
   0.12495137  0.00000000  0.04044629       0.042
  -0.00000000  0.04268532  0.04044629       0.042
   0.04165046  0.04268532  0.04044629       0.083
   0.08330091  0.04268532  0.04044629       0.083
   0.12495137  0.04268532  0.04044629       0.042
 
 k-points in reciprocal lattice and weights: pymatgen with grid density = 548 / numbe
   0.00000000  0.00000000  0.00000000       0.042
   0.16666667  0.00000000  0.00000000       0.083
   0.33333333 -0.00000000  0.00000000       0.083
   0.50000000  0.00000000  0.00000000       0.042
   0.00000000  0.50000000  0.00000000       0.042
   0.16666667  0.50000000  0.00000000       0.083
   0.33333333  0.50000000  0.00000000       0.083
   0.50000000  0.50000000  0.00000000       0.042
   0.00000000  0.00000000  0.50000000       0.042
   0.16666667 -0.00000000  0.50000000       0.083
   0.33333333 -0.00000000  0.50000000       0.083
   0.50000000 -0.00000000  0.50000000       0.042
   0.00000000  0.50000000  0.50000000       0.042
   0.16666667  0.50000000  0.50000000       0.083
   0.33333333  0.50000000  0.50000000       0.083
   0.50000000  0.50000000  0.50000000       0.042
 
 position of ions in fractional coordinates (direct lattice) 
   0.75000000  0.03809460  0.14032237
   0.25000000  0.96190540  0.85967763
   0.25000000  0.53809460  0.35967763
   0.75000000  0.46190540  0.64032237
   0.25000000  0.32959138  0.03381284
   0.75000000  0.67040862  0.96618716
   0.75000000  0.82959138  0.46618716
   0.25000000  0.17040862  0.53381284
   0.75000000  0.12752536  0.94834520
   0.25000000  0.87247464  0.05165480
   0.25000000  0.62752536  0.55165480
   0.75000000  0.37247464  0.44834520
   0.25000000  0.19210067  0.20533132
   0.75000000  0.80789933  0.79466868
   0.75000000  0.69210067  0.29466868
   0.25000000  0.30789933  0.70533132
   0.75000000  0.05409869  0.62734915
   0.25000000  0.94590131  0.37265085
   0.25000000  0.55409869  0.87265085
   0.75000000  0.44590131  0.12734915
 
 position of ions in cartesian coordinates  (Angst):
   3.00116765  0.44622604  1.73467541
   1.00038922 11.26740367 10.62739779
   1.00038922  6.30304089  4.44636119
   3.00116765  5.41058882  7.91571201
   1.00038922  3.86071138  0.41799680
   3.00116765  7.85291833 11.94407640
   3.00116765  9.71752624  5.76303980
   1.00038922  1.99610347  6.59903340
   3.00116765  1.49378485 11.72351278
   1.00038922 10.21984486  0.63856042
   1.00038922  7.35059970  6.81959702
   3.00116765  4.36303001  5.54247618
   1.00038922  2.25019612  2.53832081
   3.00116765  9.46343359  9.82375239
   3.00116765  8.10701097  3.64271579
   1.00038922  3.60661874  8.71935741
   3.00116765  0.63369202  7.75533611
   1.00038922 11.07993769  4.60673709
   1.00038922  6.49050688 10.78777369
   3.00116765  5.22312283  1.57429951
 


--------------------------------------------------------------------------------------------------------


 k-point   1 :   0.0000 0.0000 0.0000  plane waves:   23349
 k-point   2 :   0.1667 0.0000 0.0000  plane waves:   23365
 k-point   3 :   0.3333-0.0000 0.0000  plane waves:   23321
 k-point   4 :   0.5000 0.0000 0.0000  plane waves:   23238
 k-point   5 :   0.0000 0.5000 0.0000  plane waves:   23390
 k-point   6 :   0.1667 0.5000 0.0000  plane waves:   23370
 k-point   7 :   0.3333 0.5000 0.0000  plane waves:   23302
 k-point   8 :   0.5000 0.5000 0.0000  plane waves:   23240
 k-point   9 :   0.0000 0.0000 0.5000  plane waves:   23420
 k-point  10 :   0.1667-0.0000 0.5000  plane waves:   23362
 k-point  11 :   0.3333-0.0000 0.5000  plane waves:   23308
 k-point  12 :   0.5000-0.0000 0.5000  plane waves:   23260
 k-point  13 :   0.0000 0.5000 0.5000  plane waves:   23332
 k-point  14 :   0.1667 0.5000 0.5000  plane waves:   23368
 k-point  15 :   0.3333 0.5000 0.5000  plane waves:   23324
 k-point  16 :   0.5000 0.5000 0.5000  plane waves:   23272

 maximum and minimum number of plane-waves per node :      2378     2280

 maximum number of plane-waves:     23420
 maximum index in each direction: 
   IXMAX=    8   IYMAX=   24   IZMAX=   26
   IXMIN=   -9   IYMIN=  -25   IZMIN=  -26


 parallel 3D FFT for wavefunctions:
    minimum data exchange during FFTs selected (reduces bandwidth)
 parallel 3D FFT for charge:
    minimum data exchange during FFTs selected (reduces bandwidth)


 total amount of memory used by VASP MPI-rank0    56606. kBytes
=======================================================================

   base      :      30000. kBytes
   nonl-proj :       8492. kBytes
   fftplans  :       2660. kBytes
   grid      :       6950. kBytes
   one-center:         32. kBytes
   wavefun   :       8472. kBytes
 
     INWAV:  cpu time      0.0000: real time      0.0001
 Broyden mixing: mesh for mixing (old mesh)
   NGX = 17   NGY = 49   NGZ = 53
  (NGX  = 72   NGY  =200   NGZ  =216)
  gives a total of  44149 points

 initial charge density was supplied:
 charge density of overlapping atoms calculated
 number of electron     112.0000000 magnetization      12.0000000
 keeping initial charge density in first step


--------------------------------------------------------------------------------------------------------


 Maximum index for augmentation-charges          349 (set IRDMAX)


--------------------------------------------------------------------------------------------------------


 First call to EWALD:  gamma=   0.213
 Maximum number of real-space cells 5x 2x 2
 Maximum number of reciprocal cells 2x 4x 4

    FEWALD:  cpu time      0.0029: real time      0.0030


--------------------------------------- Ionic step        1  -------------------------------------------




--------------------------------------- Iteration      1(   1)  ---------------------------------------


    POTLOK:  cpu time      0.0813: real time      0.0837
    SETDIJ:  cpu time      0.4162: real time      0.4176
     EDDAV:  cpu time      2.4594: real time      2.4720
 BZINTS: Fermi energy:   15.302019;  112.000000 electrons
         Band energy: 0.604301E+03;  BLOECHL correction:   -0.115444
       DOS:  cpu time      0.0191: real time      0.0191
    --------------------------------------------
      LOOP:  cpu time      2.9760: real time      2.9925

 eigenvalue-minimisations  :  5376
 total energy-change (2. order) : 0.7199245E+03  (-0.4766350E+04)
 number of electron     112.0000000 magnetization      12.0000000
 augmentation part      112.0000000 magnetization      12.0000000

 Free energy of the ion-electron system (eV)
  ---------------------------------------------------
  alpha Z        PSCENC =       116.37456510
  Ewald energy   TEWEN  =     -4031.12465643
  -Hartree energ DENC   =      -480.58316384
  -exchange      EXHF   =         0.00000000
  -V(xc)+E(xc)   XCENC  =      -363.69486415
  PAW double counting   =      3819.59042688    -3227.22220154
  entropy T*S    EENTRO =         0.00000000
  eigenvalues    EBANDS =       604.30050648
  atomic energy  EATOM  =      4282.28387907
  Solvation  Ediel_sol  =         0.00000000
  ---------------------------------------------------
  free energy    TOTEN  =       719.92449156 eV

  energy without entropy =      719.92449156  energy(sigma->0) =      719.92449156


--------------------------------------------------------------------------------------------------------




--------------------------------------- Iteration      1(   2)  ---------------------------------------


     EDDAV:  cpu time      2.8826: real time      2.8925
 BZINTS: Fermi energy:    5.604096;  112.000000 electrons
         Band energy:-0.119783E+03;  BLOECHL correction:   -0.010092
       DOS:  cpu time      0.0156: real time      0.0156
    --------------------------------------------
      LOOP:  cpu time      2.8982: real time      2.9082

 eigenvalue-minimisations  :  6576
 total energy-change (2. order) :-0.7240830E+03  (-0.6880190E+03)
 number of electron     112.0000000 magnetization      12.0000000
 augmentation part      112.0000000 magnetization      12.0000000

 Free energy of the ion-electron system (eV)
  ---------------------------------------------------
  alpha Z        PSCENC =       116.37456510
  Ewald energy   TEWEN  =     -4031.12465643
  -Hartree energ DENC   =      -480.58316384
  -exchange      EXHF   =         0.00000000
  -V(xc)+E(xc)   XCENC  =      -363.69486415
  PAW double counting   =      3819.59042688    -3227.22220154
  entropy T*S    EENTRO =         0.00000000
  eigenvalues    EBANDS =      -119.78253977
  atomic energy  EATOM  =      4282.28387907
  Solvation  Ediel_sol  =         0.00000000
  ---------------------------------------------------
  free energy    TOTEN  =        -4.15855469 eV

  energy without entropy =       -4.15855469  energy(sigma->0) =       -4.15855469


--------------------------------------------------------------------------------------------------------




--------------------------------------- Iteration      1(   3)  ---------------------------------------


     EDDAV:  cpu time      3.0946: real time      3.1164
 BZINTS: Fermi energy:    3.899193;  112.000000 electrons
         Band energy:-0.202143E+03;  BLOECHL correction:    0.000000
       DOS:  cpu time      0.0069: real time      0.0072
    --------------------------------------------
      LOOP:  cpu time      3.1015: real time      3.1236

 eigenvalue-minimisations  :  6672
 total energy-change (2. order) :-0.8236027E+02  (-0.8056874E+02)
 number of electron     112.0000000 magnetization      12.0000000
 augmentation part      112.0000000 magnetization      12.0000000

 Free energy of the ion-electron system (eV)
  ---------------------------------------------------
  alpha Z        PSCENC =       116.37456510
  Ewald energy   TEWEN  =     -4031.12465643
  -Hartree energ DENC   =      -480.58316384
  -exchange      EXHF   =         0.00000000
  -V(xc)+E(xc)   XCENC  =      -363.69486415
  PAW double counting   =      3819.59042688    -3227.22220154
  entropy T*S    EENTRO =         0.00000000
  eigenvalues    EBANDS =      -202.14280544
  atomic energy  EATOM  =      4282.28387907
  Solvation  Ediel_sol  =         0.00000000
  ---------------------------------------------------
  free energy    TOTEN  =       -86.51882036 eV

  energy without entropy =      -86.51882036  energy(sigma->0) =      -86.51882036


--------------------------------------------------------------------------------------------------------




--------------------------------------- Iteration      1(   4)  ---------------------------------------


     EDDAV:  cpu time      2.9894: real time      2.9977
 BZINTS: Fermi energy:    3.812719;  112.000000 electrons
         Band energy:-0.204087E+03;  BLOECHL correction:    0.000000
       DOS:  cpu time      0.0068: real time      0.0068
    --------------------------------------------
      LOOP:  cpu time      2.9962: real time      3.0045

 eigenvalue-minimisations  :  6348
 total energy-change (2. order) :-0.1944171E+01  (-0.1931370E+01)
 number of electron     112.0000000 magnetization      12.0000000
 augmentation part      112.0000000 magnetization      12.0000000

 Free energy of the ion-electron system (eV)
  ---------------------------------------------------
  alpha Z        PSCENC =       116.37456510
  Ewald energy   TEWEN  =     -4031.12465643
  -Hartree energ DENC   =      -480.58316384
  -exchange      EXHF   =         0.00000000
  -V(xc)+E(xc)   XCENC  =      -363.69486415
  PAW double counting   =      3819.59042688    -3227.22220154
  entropy T*S    EENTRO =         0.00000000
  eigenvalues    EBANDS =      -204.08697649
  atomic energy  EATOM  =      4282.28387907
  Solvation  Ediel_sol  =         0.00000000
  ---------------------------------------------------
  free energy    TOTEN  =       -88.46299141 eV

  energy without entropy =      -88.46299141  energy(sigma->0) =      -88.46299141


--------------------------------------------------------------------------------------------------------




--------------------------------------- Iteration      1(   5)  ---------------------------------------


     EDDAV:  cpu time      2.6782: real time      2.6982
 BZINTS: Fermi energy:    3.773126;  112.000000 electrons
         Band energy:-0.204112E+03;  BLOECHL correction:    0.000000
       DOS:  cpu time      0.0064: real time      0.0064
    CHARGE:  cpu time      0.1311: real time      0.1316
    MIXING:  cpu time      0.0058: real time      0.0059
    --------------------------------------------
      LOOP:  cpu time      2.8215: real time      2.8421

 eigenvalue-minimisations  :  6156
 total energy-change (2. order) :-0.2473371E-01  (-0.2472550E-01)
 number of electron     111.9999996 magnetization       8.0583022
 augmentation part      -20.2704357 magnetization       8.0755492

 Broyden mixing:
  rms(total) = 0.13699E+01    rms(broyden)= 0.13699E+01
  rms(prec ) = 0.15239E+01
  weight for this iteration     100.00

 Free energy of the ion-electron system (eV)
  ---------------------------------------------------
  alpha Z        PSCENC =       116.37456510
  Ewald energy   TEWEN  =     -4031.12465643
  -Hartree energ DENC   =      -480.58316384
  -exchange      EXHF   =         0.00000000
  -V(xc)+E(xc)   XCENC  =      -363.69486415
  PAW double counting   =      3819.59042688    -3227.22220154
  entropy T*S    EENTRO =         0.00000000
  eigenvalues    EBANDS =      -204.11171021
  atomic energy  EATOM  =      4282.28387907
  Solvation  Ediel_sol  =         0.00000000
  ---------------------------------------------------
  free energy    TOTEN  =       -88.48772512 eV

  energy without entropy =      -88.48772512  energy(sigma->0) =      -88.48772512


--------------------------------------------------------------------------------------------------------




--------------------------------------- Iteration      1(   6)  ---------------------------------------


    POTLOK:  cpu time      0.0675: real time      0.0830
    SETDIJ:  cpu time      0.4108: real time      0.4119
    EDDIAG:  cpu time      0.5463: real time      0.5481
  RMM-DIIS:  cpu time      1.3699: real time      1.3735
    ORTHCH:  cpu time      0.0936: real time      0.0938
 BZINTS: Fermi energy:    3.863388;  112.000000 electrons
         Band energy:-0.184667E+03;  BLOECHL correction:    0.000000
       DOS:  cpu time      0.0078: real time      0.0078
    CHARGE:  cpu time      0.1270: real time      0.1273
    MIXING:  cpu time      0.0022: real time      0.0022
    --------------------------------------------
      LOOP:  cpu time      2.6251: real time      2.6477

 eigenvalue-minimisations  :  5378
 total energy-change (2. order) : 0.2104248E+01  (-0.4647861E+00)
 number of electron     111.9999996 magnetization       4.2386023
 augmentation part      -20.1233511 magnetization       4.4064199

 Broyden mixing:
  rms(total) = 0.79462E+00    rms(broyden)= 0.79462E+00
  rms(prec ) = 0.82399E+00
  weight for this iteration     100.00

 eigenvalues of (default mixing * dielectric matrix)
  average eigenvalue GAMMA=   1.1639
  1.1639

 Free energy of the ion-electron system (eV)
  ---------------------------------------------------
  alpha Z        PSCENC =       116.37456510
  Ewald energy   TEWEN  =     -4031.12465643
  -Hartree energ DENC   =      -498.94348427
  -exchange      EXHF   =         0.00000000
  -V(xc)+E(xc)   XCENC  =      -361.92759942
  PAW double counting   =      4655.23290898    -4063.61166775
  entropy T*S    EENTRO =         0.00000000
  eigenvalues    EBANDS =      -184.66742242
  atomic energy  EATOM  =      4282.28387907
  Solvation  Ediel_sol  =         0.00000000
  ---------------------------------------------------
  free energy    TOTEN  =       -86.38347716 eV

  energy without entropy =      -86.38347716  energy(sigma->0) =      -86.38347716


--------------------------------------------------------------------------------------------------------




--------------------------------------- Iteration      1(   7)  ---------------------------------------


    POTLOK:  cpu time      0.0675: real time      0.0811
    SETDIJ:  cpu time      0.4102: real time      0.4112
    EDDIAG:  cpu time      0.6234: real time      0.6251
  RMM-DIIS:  cpu time      1.4127: real time      1.4163
    ORTHCH:  cpu time      0.0963: real time      0.0965
 BZINTS: Fermi energy:    3.887193;  112.000000 electrons
         Band energy:-0.178365E+03;  BLOECHL correction:    0.000000
       DOS:  cpu time      0.0062: real time      0.0065
    CHARGE:  cpu time      0.1614: real time      0.1618
    MIXING:  cpu time      0.0011: real time      0.0011
    --------------------------------------------
      LOOP:  cpu time      2.7788: real time      2.7996

 eigenvalue-minimisations  :  5519
 total energy-change (2. order) :-0.8060683E+00  (-0.1352060E+00)
 number of electron     111.9999996 magnetization       1.6867377
 augmentation part      -20.0765782 magnetization       1.7700693

 Broyden mixing:
  rms(total) = 0.37824E+00    rms(broyden)= 0.37824E+00
  rms(prec ) = 0.38926E+00
  weight for this iteration     100.00

 eigenvalues of (default mixing * dielectric matrix)
  average eigenvalue GAMMA=   1.4429
  0.8327  2.0531

 Free energy of the ion-electron system (eV)
  ---------------------------------------------------
  alpha Z        PSCENC =       116.37456510
  Ewald energy   TEWEN  =     -4031.12465643
  -Hartree energ DENC   =      -506.05291482
  -exchange      EXHF   =         0.00000000
  -V(xc)+E(xc)   XCENC  =      -361.42397883
  PAW double counting   =      5474.03241653    -4882.91363959
  entropy T*S    EENTRO =         0.00000000
  eigenvalues    EBANDS =      -178.36521647
  atomic energy  EATOM  =      4282.28387907
  Solvation  Ediel_sol  =         0.00000000
  ---------------------------------------------------
  free energy    TOTEN  =       -87.18954545 eV

  energy without entropy =      -87.18954545  energy(sigma->0) =      -87.18954545


--------------------------------------------------------------------------------------------------------




--------------------------------------- Iteration      1(   8)  ---------------------------------------


    POTLOK:  cpu time      0.0785: real time      0.0905
    SETDIJ:  cpu time      0.4112: real time      0.4122
    EDDIAG:  cpu time      0.5809: real time      0.5825
  RMM-DIIS:  cpu time      1.4783: real time      1.4820
    ORTHCH:  cpu time      0.0926: real time      0.0929
 BZINTS: Fermi energy:    3.839839;  112.000000 electrons
         Band energy:-0.178124E+03;  BLOECHL correction:    0.000000
       DOS:  cpu time      0.0064: real time      0.0064
    CHARGE:  cpu time      0.1443: real time      0.1448
    MIXING:  cpu time      0.0016: real time      0.0016
    --------------------------------------------
      LOOP:  cpu time      2.7940: real time      2.8129

 eigenvalue-minimisations  :  5659
 total energy-change (2. order) :-0.3011053E+00  (-0.2367767E-01)
 number of electron     111.9999996 magnetization       0.7895618
 augmentation part      -20.0809857 magnetization       0.8501007

 Broyden mixing:
  rms(total) = 0.14786E+00    rms(broyden)= 0.14786E+00
  rms(prec ) = 0.15128E+00
  weight for this iteration     100.00

 eigenvalues of (default mixing * dielectric matrix)
  average eigenvalue GAMMA=   1.3667
  2.4396  1.0132  0.6474

 Free energy of the ion-electron system (eV)
  ---------------------------------------------------
  alpha Z        PSCENC =       116.37456510
  Ewald energy   TEWEN  =     -4031.12465643
  -Hartree energ DENC   =      -506.50716749
  -exchange      EXHF   =         0.00000000
  -V(xc)+E(xc)   XCENC  =      -361.30020237
  PAW double counting   =      5975.47755657    -5384.57058311
  entropy T*S    EENTRO =         0.00000000
  eigenvalues    EBANDS =      -178.12404204
  atomic energy  EATOM  =      4282.28387907
  Solvation  Ediel_sol  =         0.00000000
  ---------------------------------------------------
  free energy    TOTEN  =       -87.49065071 eV

  energy without entropy =      -87.49065071  energy(sigma->0) =      -87.49065071


--------------------------------------------------------------------------------------------------------




--------------------------------------- Iteration      1(   9)  ---------------------------------------


    POTLOK:  cpu time      0.0728: real time      0.0879
    SETDIJ:  cpu time      0.4107: real time      0.4117
    EDDIAG:  cpu time      0.5835: real time      0.5850
  RMM-DIIS:  cpu time      1.5457: real time      1.5496
    ORTHCH:  cpu time      0.0944: real time      0.0946
 BZINTS: Fermi energy:    3.816029;  112.000000 electrons
         Band energy:-0.178707E+03;  BLOECHL correction:    0.000000
       DOS:  cpu time      0.0069: real time      0.0069
    CHARGE:  cpu time      0.1265: real time      0.1268
    MIXING:  cpu time      0.0010: real time      0.0010
    --------------------------------------------
      LOOP:  cpu time      2.8415: real time      2.8636

 eigenvalue-minimisations  :  5939
 total energy-change (2. order) :-0.4715452E-01  (-0.5551860E-02)
 number of electron     111.9999996 magnetization       0.5325937
 augmentation part      -20.0926719 magnetization       0.5622935

 Broyden mixing:
  rms(total) = 0.48634E-01    rms(broyden)= 0.48634E-01
  rms(prec ) = 0.49904E-01
  weight for this iteration     100.00

 eigenvalues of (default mixing * dielectric matrix)
  average eigenvalue GAMMA=   1.2919
  2.3932  1.2888  0.8392  0.6463

 Free energy of the ion-electron system (eV)
  ---------------------------------------------------
  alpha Z        PSCENC =       116.37456510
  Ewald energy   TEWEN  =     -4031.12465643
  -Hartree energ DENC   =      -505.94249684
  -exchange      EXHF   =         0.00000000
  -V(xc)+E(xc)   XCENC  =      -361.29718712
  PAW double counting   =      6095.54659288    -5504.67173459
  entropy T*S    EENTRO =         0.00000000
  eigenvalues    EBANDS =      -178.70676729
  atomic energy  EATOM  =      4282.28387907
  Solvation  Ediel_sol  =         0.00000000
  ---------------------------------------------------
  free energy    TOTEN  =       -87.53780524 eV

  energy without entropy =      -87.53780524  energy(sigma->0) =      -87.53780524


--------------------------------------------------------------------------------------------------------




--------------------------------------- Iteration      1(  10)  ---------------------------------------


    POTLOK:  cpu time      0.0672: real time      0.0842
    SETDIJ:  cpu time      0.4107: real time      0.4116
    EDDIAG:  cpu time      0.5525: real time      0.5539
  RMM-DIIS:  cpu time      1.6018: real time      1.6058
    ORTHCH:  cpu time      0.0920: real time      0.0923
 BZINTS: Fermi energy:    3.877522;  112.000000 electrons
         Band energy:-0.178845E+03;  BLOECHL correction:    0.000000
       DOS:  cpu time      0.0067: real time      0.0067
    CHARGE:  cpu time      0.1287: real time      0.1290
    MIXING:  cpu time      0.0010: real time      0.0010
    --------------------------------------------
      LOOP:  cpu time      2.8606: real time      2.8846

 eigenvalue-minimisations  :  6216
 total energy-change (2. order) :-0.1056411E-01  (-0.1400541E-02)
 number of electron     111.9999996 magnetization       0.2135857
 augmentation part      -20.0976598 magnetization       0.2294238

 Broyden mixing:
  rms(total) = 0.32756E-01    rms(broyden)= 0.32756E-01
  rms(prec ) = 0.33442E-01
  weight for this iteration     100.00

 eigenvalues of (default mixing * dielectric matrix)
  average eigenvalue GAMMA=   1.3419
  2.1182  2.1182  1.0532  0.8044  0.6151

 Free energy of the ion-electron system (eV)
  ---------------------------------------------------
  alpha Z        PSCENC =       116.37456510
  Ewald energy   TEWEN  =     -4031.12465643
  -Hartree energ DENC   =      -505.82093328
  -exchange      EXHF   =         0.00000000
  -V(xc)+E(xc)   XCENC  =      -361.29921927
  PAW double counting   =      6086.85085525    -5495.96749690
  entropy T*S    EENTRO =         0.00000000
  eigenvalues    EBANDS =      -178.84536287
  atomic energy  EATOM  =      4282.28387907
  Solvation  Ediel_sol  =         0.00000000
  ---------------------------------------------------
  free energy    TOTEN  =       -87.54836934 eV

  energy without entropy =      -87.54836934  energy(sigma->0) =      -87.54836934


--------------------------------------------------------------------------------------------------------




--------------------------------------- Iteration      1(  11)  ---------------------------------------


    POTLOK:  cpu time      0.0669: real time      0.0815
    SETDIJ:  cpu time      0.4104: real time      0.4115
    EDDIAG:  cpu time      0.5446: real time      0.5458
  RMM-DIIS:  cpu time      1.6847: real time      1.6890
    ORTHCH:  cpu time      0.0948: real time      0.0950
 BZINTS: Fermi energy:    3.866883;  112.000000 electrons
         Band energy:-0.178868E+03;  BLOECHL correction:    0.000000
       DOS:  cpu time      0.0067: real time      0.0068
    CHARGE:  cpu time      0.1523: real time      0.1527
    MIXING:  cpu time      0.0012: real time      0.0012
    --------------------------------------------
      LOOP:  cpu time      2.9616: real time      2.9835

 eigenvalue-minimisations  :  6029
 total energy-change (2. order) :-0.6867895E-02  (-0.7482271E-03)
 number of electron     111.9999996 magnetization       0.0479469
 augmentation part      -20.0992361 magnetization       0.0560376

 Broyden mixing:
  rms(total) = 0.13492E-01    rms(broyden)= 0.13492E-01
  rms(prec ) = 0.13774E-01
  weight for this iteration     100.00

 eigenvalues of (default mixing * dielectric matrix)
  average eigenvalue GAMMA=   1.4278
  2.5928  2.5928  1.2046  0.8869  0.7062  0.5834

 Free energy of the ion-electron system (eV)
  ---------------------------------------------------
  alpha Z        PSCENC =       116.37456510
  Ewald energy   TEWEN  =     -4031.12465643
  -Hartree energ DENC   =      -505.81713312
  -exchange      EXHF   =         0.00000000
  -V(xc)+E(xc)   XCENC  =      -361.30028867
  PAW double counting   =      6054.62470009    -5463.72832509
  entropy T*S    EENTRO =         0.00000000
  eigenvalues    EBANDS =      -178.86797818
  atomic energy  EATOM  =      4282.28387907
  Solvation  Ediel_sol  =         0.00000000
  ---------------------------------------------------
  free energy    TOTEN  =       -87.55523724 eV

  energy without entropy =      -87.55523724  energy(sigma->0) =      -87.55523724


--------------------------------------------------------------------------------------------------------




--------------------------------------- Iteration      1(  12)  ---------------------------------------


    POTLOK:  cpu time      0.0694: real time      0.0850
    SETDIJ:  cpu time      0.4106: real time      0.4118
    EDDIAG:  cpu time      0.5877: real time      0.5891
  RMM-DIIS:  cpu time      1.6963: real time      1.7007
    ORTHCH:  cpu time      0.0933: real time      0.0935
 BZINTS: Fermi energy:    3.862958;  112.000000 electrons
         Band energy:-0.178868E+03;  BLOECHL correction:    0.000000
       DOS:  cpu time      0.0068: real time      0.0068
    CHARGE:  cpu time      0.1307: real time      0.1310
    MIXING:  cpu time      0.0014: real time      0.0014
    --------------------------------------------
      LOOP:  cpu time      2.9962: real time      3.0192

 eigenvalue-minimisations  :  6257
 total energy-change (2. order) :-0.1073105E-02  (-0.2546574E-03)
 number of electron     111.9999996 magnetization       0.0192718
 augmentation part      -20.1011831 magnetization       0.0218987

 Broyden mixing:
  rms(total) = 0.36780E-02    rms(broyden)= 0.36780E-02
  rms(prec ) = 0.41852E-02
  weight for this iteration     100.00

 eigenvalues of (default mixing * dielectric matrix)
  average eigenvalue GAMMA=   1.3741
  2.7704  2.5771  1.2450  0.9290  0.8267  0.5939  0.6764

 Free energy of the ion-electron system (eV)
  ---------------------------------------------------
  alpha Z        PSCENC =       116.37456510
  Ewald energy   TEWEN  =     -4031.12465643
  -Hartree energ DENC   =      -505.82244532
  -exchange      EXHF   =         0.00000000
  -V(xc)+E(xc)   XCENC  =      -361.29777361
  PAW double counting   =      6049.88128604    -5458.98311816
  entropy T*S    EENTRO =         0.00000000
  eigenvalues    EBANDS =      -178.86804702
  atomic energy  EATOM  =      4282.28387907
  Solvation  Ediel_sol  =         0.00000000
  ---------------------------------------------------
  free energy    TOTEN  =       -87.55631034 eV

  energy without entropy =      -87.55631034  energy(sigma->0) =      -87.55631034


--------------------------------------------------------------------------------------------------------




--------------------------------------- Iteration      1(  13)  ---------------------------------------


    POTLOK:  cpu time      0.0686: real time      0.0819
    SETDIJ:  cpu time      0.4110: real time      0.4121
    EDDIAG:  cpu time      0.5969: real time      0.5983
  RMM-DIIS:  cpu time      1.7583: real time      1.7628
    ORTHCH:  cpu time      0.0934: real time      0.0936
 BZINTS: Fermi energy:    3.862316;  112.000000 electrons
         Band energy:-0.178819E+03;  BLOECHL correction:    0.000000
       DOS:  cpu time      0.0068: real time      0.0068
    CHARGE:  cpu time      0.1333: real time      0.1336
    MIXING:  cpu time      0.0017: real time      0.0017
    --------------------------------------------
      LOOP:  cpu time      3.0701: real time      3.0910

 eigenvalue-minimisations  :  6423
 total energy-change (2. order) :-0.6036228E-04  (-0.3879446E-04)
 number of electron     111.9999996 magnetization       0.0036235
 augmentation part      -20.1010650 magnetization       0.0048333

 Broyden mixing:
  rms(total) = 0.23724E-02    rms(broyden)= 0.23724E-02
  rms(prec ) = 0.25409E-02
  weight for this iteration     100.00

 eigenvalues of (default mixing * dielectric matrix)
  average eigenvalue GAMMA=   1.4027
  2.8984  2.4863  1.7019  1.1979  0.8223  0.8223  0.6159  0.6766

 Free energy of the ion-electron system (eV)
  ---------------------------------------------------
  alpha Z        PSCENC =       116.37456510
  Ewald energy   TEWEN  =     -4031.12465643
  -Hartree energ DENC   =      -505.87235949
  -exchange      EXHF   =         0.00000000
  -V(xc)+E(xc)   XCENC  =      -361.29565970
  PAW double counting   =      6050.38475473    -5459.48811080
  entropy T*S    EENTRO =         0.00000000
  eigenvalues    EBANDS =      -178.81878316
  atomic energy  EATOM  =      4282.28387907
  Solvation  Ediel_sol  =         0.00000000
  ---------------------------------------------------
  free energy    TOTEN  =       -87.55637070 eV

  energy without entropy =      -87.55637070  energy(sigma->0) =      -87.55637070


--------------------------------------------------------------------------------------------------------




--------------------------------------- Iteration      1(  14)  ---------------------------------------


    POTLOK:  cpu time      0.0834: real time      0.0844
    SETDIJ:  cpu time      0.4116: real time      0.4126
    EDDIAG:  cpu time      0.5440: real time      0.5452
  RMM-DIIS:  cpu time      1.4850: real time      1.4888
    ORTHCH:  cpu time      0.0911: real time      0.0913
 BZINTS: Fermi energy:    3.861393;  112.000000 electrons
         Band energy:-0.178768E+03;  BLOECHL correction:    0.000000
       DOS:  cpu time      0.0067: real time      0.0068
    CHARGE:  cpu time      0.1343: real time      0.1346
    MIXING:  cpu time      0.0017: real time      0.0017
    --------------------------------------------
      LOOP:  cpu time      2.7577: real time      2.7654

 eigenvalue-minimisations  :  5835
 total energy-change (2. order) :-0.2468695E-04  (-0.1375507E-04)
 number of electron     111.9999996 magnetization       0.0007846
 augmentation part      -20.1006531 magnetization       0.0013465

 Broyden mixing:
  rms(total) = 0.63502E-03    rms(broyden)= 0.63502E-03
  rms(prec ) = 0.69457E-03
  weight for this iteration     100.00

 eigenvalues of (default mixing * dielectric matrix)
  average eigenvalue GAMMA=   1.3944
  2.9955  2.5340  2.0508  1.2164  0.8767  0.8767  0.7326  0.6115  0.6556

 Free energy of the ion-electron system (eV)
  ---------------------------------------------------
  alpha Z        PSCENC =       116.37456510
  Ewald energy   TEWEN  =     -4031.12465643
  -Hartree energ DENC   =      -505.92340890
  -exchange      EXHF   =         0.00000000
  -V(xc)+E(xc)   XCENC  =      -361.29492213
  PAW double counting   =      6047.73341488    -5456.83697790
  entropy T*S    EENTRO =         0.00000000
  eigenvalues    EBANDS =      -178.76828907
  atomic energy  EATOM  =      4282.28387907
  Solvation  Ediel_sol  =         0.00000000
  ---------------------------------------------------
  free energy    TOTEN  =       -87.55639539 eV

  energy without entropy =      -87.55639539  energy(sigma->0) =      -87.55639539


--------------------------------------------------------------------------------------------------------




--------------------------------------- Iteration      1(  15)  ---------------------------------------


    POTLOK:  cpu time      0.0699: real time      0.0852
    SETDIJ:  cpu time      0.4106: real time      0.4117
    EDDIAG:  cpu time      0.5427: real time      0.5439
  RMM-DIIS:  cpu time      1.2303: real time      1.2334
    ORTHCH:  cpu time      0.0914: real time      0.0918
 BZINTS: Fermi energy:    3.860716;  112.000000 electrons
         Band energy:-0.178764E+03;  BLOECHL correction:    0.000000
       DOS:  cpu time      0.0067: real time      0.0067
    --------------------------------------------
      LOOP:  cpu time      2.3515: real time      2.3728

 eigenvalue-minimisations  :  4495
 total energy-change (2. order) :-0.5162796E-05  (-0.3323362E-05)
 number of electron     111.9999996 magnetization       0.0007846
 augmentation part      -20.1006531 magnetization       0.0013465

 Free energy of the ion-electron system (eV)
  ---------------------------------------------------
  alpha Z        PSCENC =       116.37456510
  Ewald energy   TEWEN  =     -4031.12465643
  -Hartree energ DENC   =      -505.92758144
  -exchange      EXHF   =         0.00000000
  -V(xc)+E(xc)   XCENC  =      -361.29502213
  PAW double counting   =      6046.95929994    -5456.06263241
  entropy T*S    EENTRO =         0.00000000
  eigenvalues    EBANDS =      -178.76425224
  atomic energy  EATOM  =      4282.28387907
  Solvation  Ediel_sol  =         0.00000000
  ---------------------------------------------------
  free energy    TOTEN  =       -87.55640055 eV

  energy without entropy =      -87.55640055  energy(sigma->0) =      -87.55640055


--------------------------------------------------------------------------------------------------------




 average (electrostatic) potential at core
  the test charge radii are     1.1712  1.0808
  (the norm of the test charge is              1.0000)
       1 -88.8116       2 -88.8116       3 -88.8116       4 -88.8116       5 -88.8809
       6 -88.8809       7 -88.8809       8 -88.8809       9 -53.8167      10 -53.8167
      11 -53.8167      12 -53.8167      13 -53.9064      14 -53.9064      15 -53.9064
      16 -53.9064      17 -53.8310      18 -53.8310      19 -53.8310      20 -53.8310
 
 
 
 E-fermi :   3.8607     XC(G=0):  -9.1651     alpha+bet : -9.3892

 Fermi energy:         3.8607159873

 spin component 1

 k-point     1 :       0.0000    0.0000    0.0000
  band No.  band energies     occupation 
      1     -10.1839      1.00000
      2      -9.9772      1.00000
      3      -9.6509      1.00000
      4      -9.5381      1.00000
      5      -9.4269      1.00000
      6      -9.2751      1.00000
      7      -8.7649      1.00000
      8      -8.5976      1.00000
      9      -8.5142      1.00000
     10      -8.3832      1.00000
     11      -8.3519      1.00000
     12      -8.2938      1.00000
     13      -5.1418      1.00000
     14      -4.9616      1.00000
     15      -4.8533      1.00000
     16      -4.4536      1.00000
     17      -4.3730      1.00000
     18      -4.3372      1.00000
     19      -3.3771      1.00000
     20      -3.0939      1.00000
     21      -0.6978      1.00000
     22      -0.5826      1.00000
     23      -0.1713      1.00000
     24       0.0009      1.00000
     25       0.3000      1.00000
     26       0.4278      1.00000
     27       0.5338      1.00000
     28       0.6407      1.00000
     29       0.8705      1.00000
     30       0.9070      1.00000
     31       1.2121      1.00000
     32       1.3049      1.00000
     33       1.3648      1.00000
     34       1.3689      1.00000
     35       1.5404      1.00000
     36       1.6188      1.00000
     37       1.6534      1.00000
     38       1.6819      1.00000
     39       1.9218      1.00000
     40       2.0355      1.00000
     41       2.3168      1.00000
     42       2.4439      1.00000
     43       2.4731      1.00000
     44       2.6468      1.00000
     45       2.7495      1.00000
     46       2.8954      1.00000
     47       2.9006      1.00000
     48       3.0661      1.00000
     49       3.0803      1.00000
     50       3.1353      1.00000
     51       3.2023      1.00000
     52       3.2104      1.00000
     53       3.5066      1.00000
     54       3.6631      1.00000
     55       3.6736      1.00000
     56       3.7201      1.00000
     57       4.8820      0.00000
     58       5.0405      0.00000
     59       5.1207      0.00000
     60       5.1481      0.00000
     61       5.5415      0.00000
     62       5.5850      0.00000
     63       5.9890      0.00000
     64       6.0285      0.00000
     65       6.2139      0.00000
     66       6.2274      0.00000
     67       6.2695      0.00000
     68       6.5012      0.00000
     69       6.5715      0.00000
     70       6.5917      0.00000
     71       6.6673      0.00000
     72       6.7519      0.00000
     73       6.8861      0.00000
     74       6.9664      0.00000
     75       7.3552      0.00000
     76       7.3991      0.00000
     77       7.5924      0.00000
     78       8.0449      0.00000
     79       8.1484      0.00000
     80       8.3281      0.00000
     81       8.3858      0.00000
     82       8.6542      0.00000
     83       9.7237      0.00000
     84       9.9671      0.00000

 k-point     2 :       0.1667    0.0000    0.0000
  band No.  band energies     occupation 
      1     -10.0032      1.00000
      2      -9.8044      1.00000
      3      -9.4913      1.00000
      4      -9.3835      1.00000
      5      -9.2632      1.00000
      6      -9.1301      1.00000
      7      -8.6499      1.00000
      8      -8.5392      1.00000
      9      -8.4506      1.00000
     10      -8.3331      1.00000
     11      -8.2862      1.00000
     12      -8.2752      1.00000
     13      -5.2233      1.00000
     14      -5.0751      1.00000
     15      -4.8280      1.00000
     16      -4.5326      1.00000
     17      -4.4439      1.00000
     18      -4.4050      1.00000
     19      -3.5666      1.00000
     20      -3.3952      1.00000
     21      -0.6456      1.00000
     22      -0.4852      1.00000
     23      -0.2538      1.00000
     24      -0.2342      1.00000
     25      -0.2221      1.00000
     26      -0.1261      1.00000
     27       0.1386      1.00000
     28       0.1886      1.00000
     29       0.2161      1.00000
     30       0.4834      1.00000
     31       0.7610      1.00000
     32       0.8486      1.00000
     33       0.9233      1.00000
     34       1.0739      1.00000
     35       1.3413      1.00000
     36       1.5060      1.00000
     37       1.5412      1.00000
     38       1.5747      1.00000
     39       1.8124      1.00000
     40       1.8347      1.00000
     41       1.8463      1.00000
     42       1.9889      1.00000
     43       2.3559      1.00000
     44       2.3932      1.00000
     45       2.5919      1.00000
     46       2.8471      1.00000
     47       2.8483      1.00000
     48       2.9929      1.00000
     49       3.1296      1.00000
     50       3.1663      1.00000
     51       3.1837      1.00000
     52       3.2732      1.00000
     53       3.5286      1.00000
     54       3.5762      1.00000
     55       3.5798      1.00000
     56       3.6432      1.00000
     57       5.0514      0.00000
     58       5.2533      0.00000
     59       5.4666      0.00000
     60       5.8419      0.00000
     61       5.9116      0.00000
     62       5.9948      0.00000
     63       6.0195      0.00000
     64       6.1479      0.00000
     65       6.2832      0.00000
     66       6.4479      0.00000
     67       6.4754      0.00000
     68       6.4874      0.00000
     69       6.5965      0.00000
     70       7.0450      0.00000
     71       7.0477      0.00000
     72       7.1807      0.00000
     73       7.2681      0.00000
     74       7.3837      0.00000
     75       7.5128      0.00000
     76       7.7095      0.00000
     77       7.7492      0.00000
     78       7.9302      0.00000
     79       8.2467      0.00000
     80       8.2924      0.00000
     81       8.9745      0.00000
     82       9.3102      0.00000
     83       9.7873      0.00000
     84       9.8162      0.00000

 k-point     3 :       0.3333   -0.0000    0.0000
  band No.  band energies     occupation 
      1      -9.5042      1.00000
      2      -9.3346      1.00000
      3      -9.0783      1.00000
      4      -8.9862      1.00000
      5      -8.8365      1.00000
      6      -8.7757      1.00000
      7      -8.4652      1.00000
      8      -8.4566      1.00000
      9      -8.4211      1.00000
     10      -8.3251      1.00000
     11      -8.2780      1.00000
     12      -8.1992      1.00000
     13      -5.3366      1.00000
     14      -5.3047      1.00000
     15      -4.8632      1.00000
     16      -4.8455      1.00000
     17      -4.7430      1.00000
     18      -4.6055      1.00000
     19      -4.2038      1.00000
     20      -4.1909      1.00000
     21      -1.0190      1.00000
     22      -0.9933      1.00000
     23      -0.8970      1.00000
     24      -0.8783      1.00000
     25      -0.3123      1.00000
     26      -0.2599      1.00000
     27      -0.2033      1.00000
     28      -0.0640      1.00000
     29      -0.0086      1.00000
     30       0.3376      1.00000
     31       0.3533      1.00000
     32       0.4950      1.00000
     33       0.6036      1.00000
     34       0.6904      1.00000
     35       0.9741      1.00000
     36       1.0352      1.00000
     37       1.0458      1.00000
     38       1.2426      1.00000
     39       1.3712      1.00000
     40       1.4560      1.00000
     41       1.6184      1.00000
     42       1.7866      1.00000
     43       1.9834      1.00000
     44       2.0066      1.00000
     45       2.4001      1.00000
     46       2.4444      1.00000
     47       2.5392      1.00000
     48       2.5543      1.00000
     49       2.6657      1.00000
     50       2.8447      1.00000
     51       2.9014      1.00000
     52       2.9440      1.00000
     53       3.2894      1.00000
     54       3.3086      1.00000
     55       3.3642      1.00000
     56       3.5010      1.00000
     57       5.2565      0.00000
     58       5.5721      0.00000
     59       5.6857      0.00000
     60       5.7785      0.00000
     61       6.0335      0.00000
     62       6.1582      0.00000
     63       6.2269      0.00000
     64       6.3409      0.00000
     65       6.4149      0.00000
     66       6.4706      0.00000
     67       6.7897      0.00000
     68       6.9198      0.00000
     69       6.9205      0.00000
     70       7.0560      0.00000
     71       7.3116      0.00000
     72       7.4261      0.00000
     73       7.4606      0.00000
     74       7.5952      0.00000
     75       7.8657      0.00000
     76       7.9230      0.00000
     77       8.2848      0.00000
     78       8.5062      0.00000
     79       8.5344      0.00000
     80       8.6482      0.00000
     81       8.9973      0.00000
     82       9.1526      0.00000
     83       9.1971      0.00000
     84       9.5944      0.00000

 k-point     4 :       0.5000    0.0000    0.0000
  band No.  band energies     occupation 
      1      -8.8615      1.00000
      2      -8.8615      1.00000
      3      -8.7722      1.00000
      4      -8.7722      1.00000
      5      -8.6124      1.00000
      6      -8.6124      1.00000
      7      -8.5903      1.00000
      8      -8.5903      1.00000
      9      -8.3757      1.00000
     10      -8.3757      1.00000
     11      -8.3193      1.00000
     12      -8.3193      1.00000
     13      -5.1330      1.00000
     14      -5.1330      1.00000
     15      -5.1231      1.00000
     16      -5.1231      1.00000
     17      -4.8828      1.00000
     18      -4.8828      1.00000
     19      -4.7719      1.00000
     20      -4.7719      1.00000
     21      -1.1832      1.00000
     22      -1.1832      1.00000
     23      -1.1397      1.00000
     24      -1.1397      1.00000
     25      -0.1428      1.00000
     26      -0.1428      1.00000
     27      -0.1032      1.00000
     28      -0.1032      1.00000
     29       0.1743      1.00000
     30       0.1743      1.00000
     31       0.3154      1.00000
     32       0.3154      1.00000
     33       0.6177      1.00000
     34       0.6177      1.00000
     35       0.6778      1.00000
     36       0.6778      1.00000
     37       0.9893      1.00000
     38       0.9893      1.00000
     39       1.2027      1.00000
     40       1.2027      1.00000
     41       1.2157      1.00000
     42       1.2157      1.00000
     43       1.6745      1.00000
     44       1.6745      1.00000
     45       2.5104      1.00000
     46       2.5104      1.00000
     47       2.5395      1.00000
     48       2.5395      1.00000
     49       2.6133      1.00000
     50       2.6133      1.00000
     51       2.6603      1.00000
     52       2.6603      1.00000
     53       3.2212      1.00000
     54       3.2212      1.00000
     55       3.4793      1.00000
     56       3.4793      1.00000
     57       5.6358      0.00000
     58       5.6358      0.00000
     59       5.7215      0.00000
     60       5.7215      0.00000
     61       5.8376      0.00000
     62       5.8376      0.00000
     63       5.9652      0.00000
     64       5.9652      0.00000
     65       6.3426      0.00000
     66       6.3426      0.00000
     67       7.0544      0.00000
     68       7.0544      0.00000
     69       7.2309      0.00000
     70       7.2309      0.00000
     71       7.2835      0.00000
     72       7.2835      0.00000
     73       7.5205      0.00000
     74       7.5205      0.00000
     75       7.5660      0.00000
     76       7.5660      0.00000
     77       8.4938      0.00000
     78       8.4938      0.00000
     79       8.7792      0.00000
     80       8.7792      0.00000
     81       8.9531      0.00000
     82       8.9531      0.00000
     83       9.1581      0.00000
     84       9.1581      0.00000

 k-point     5 :       0.0000    0.5000    0.0000
  band No.  band energies     occupation 
      1     -10.0492      1.00000
      2     -10.0492      1.00000
      3      -9.7658      1.00000
      4      -9.7658      1.00000
      5      -9.0815      1.00000
      6      -9.0815      1.00000
      7      -8.8607      1.00000
      8      -8.8607      1.00000
      9      -8.3876      1.00000
     10      -8.3876      1.00000
     11      -8.3332      1.00000
     12      -8.3332      1.00000
     13      -5.0307      1.00000
     14      -5.0307      1.00000
     15      -4.9091      1.00000
     16      -4.9091      1.00000
     17      -3.9953      1.00000
     18      -3.9953      1.00000
     19      -3.3503      1.00000
     20      -3.3503      1.00000
     21      -0.5282      1.00000
     22      -0.5282      1.00000
     23      -0.4042      1.00000
     24      -0.4042      1.00000
     25       0.2374      1.00000
     26       0.2374      1.00000
[...]
     50       2.7089      1.00000
     51       2.7089      1.00000
     52       2.7089      1.00000
     53       3.0580      1.00000
     54       3.0580      1.00000
     55       3.0580      1.00000
     56       3.0580      1.00000
     57       5.5254      0.00000
     58       5.5254      0.00000
     59       5.5254      0.00000
     60       5.5254      0.00000
     61       6.1180      0.00000
     62       6.1180      0.00000
     63       6.1180      0.00000
     64       6.1180      0.00000
     65       6.7905      0.00000
     66       6.7905      0.00000
     67       6.7905      0.00000
     68       6.7905      0.00000
     69       7.3069      0.00000
     70       7.3069      0.00000
     71       7.3069      0.00000
     72       7.3069      0.00000
     73       7.7991      0.00000
     74       7.7991      0.00000
     75       7.7991      0.00000
     76       7.7991      0.00000
     77       8.3994      0.00000
     78       8.3994      0.00000
     79       8.3994      0.00000
     80       8.3994      0.00000
     81       9.0171      0.00000
     82       9.0171      0.00000
     83       9.0171      0.00000
     84       9.0171      0.00000


--------------------------------------------------------------------------------------------------------


 soft charge-density along one line, spin component           1
         0         1         2         3         4         5         6         7         8         9
 total charge-density along one line
 
 soft charge-density along one line, spin component           2
         0         1         2         3         4         5         6         7         8         9
 total charge-density along one line
 
 pseudopotential strength for first ion, spin component:           1
 40.395 -68.410   0.042  -0.043  -0.000   0.067  -0.068  -0.000
-68.410 118.277  -0.069   0.070   0.000  -0.111   0.113   0.000
  0.042  -0.069   9.255   0.003   0.000  14.744   0.004   0.000
 -0.043   0.070   0.003   9.255   0.000   0.004  14.743   0.000
 -0.000   0.000   0.000   0.000   9.258   0.000   0.000  14.748
  0.067  -0.111  14.744   0.004   0.000  23.496   0.007   0.000
 -0.068   0.113   0.004  14.743   0.000   0.007  23.495   0.000
 -0.000   0.000   0.000   0.000  14.748   0.000   0.000  23.503
 -0.000   0.000  -0.000   0.000   0.004  -0.000   0.000   0.007
  0.004  -0.007  -0.005   0.004   0.000  -0.008   0.007   0.000
 -0.002   0.003  -0.003  -0.004   0.000  -0.005  -0.007   0.000
  0.000  -0.000   0.000  -0.000  -0.005   0.000  -0.000  -0.009
  0.002  -0.004  -0.005  -0.000  -0.000  -0.009  -0.000  -0.000
 pseudopotential strength for first ion, spin component:           2
 40.395 -68.410   0.042  -0.043  -0.000   0.067  -0.068  -0.000
-68.410 118.277  -0.069   0.070   0.000  -0.111   0.113   0.000
  0.042  -0.069   9.255   0.003  -0.000  14.744   0.004  -0.000
 -0.043   0.070   0.003   9.255   0.000   0.004  14.743   0.000
 -0.000   0.000  -0.000   0.000   9.258  -0.000   0.000  14.748
  0.067  -0.111  14.744   0.004  -0.000  23.496   0.007  -0.000
 -0.068   0.113   0.004  14.743   0.000   0.007  23.495   0.000
 -0.000   0.000  -0.000   0.000  14.748  -0.000   0.000  23.503
 -0.000   0.000  -0.000   0.000   0.004  -0.000   0.000   0.007
  0.004  -0.007  -0.005   0.004   0.000  -0.008   0.007   0.000
 -0.002   0.003  -0.003  -0.004   0.000  -0.005  -0.007   0.000
  0.000  -0.000   0.000  -0.000  -0.005   0.000  -0.000  -0.009
  0.002  -0.004  -0.005  -0.000  -0.000  -0.009  -0.000  -0.000
 total augmentation occupancy for first ion, spin component:           1
  2.017  -0.021  -0.127   0.136   0.000   0.022  -0.023  -0.000   0.000  -0.012   0.015   0.000   0.001
 -0.021   0.012   0.060  -0.065  -0.000  -0.014   0.017   0.000  -0.000   0.003  -0.003  -0.000   0.000
 -0.127   0.060   2.393  -0.166  -0.000  -0.644   0.038   0.000  -0.000  -0.048   0.003   0.000  -0.024
  0.136  -0.065  -0.166   2.680   0.000   0.038  -0.755  -0.000   0.000   0.105  -0.132  -0.000   0.025
  0.000  -0.000  -0.000   0.000   2.328   0.000  -0.000  -0.641   0.070   0.000   0.000  -0.009  -0.000
  0.022  -0.014  -0.644   0.038   0.000   0.196  -0.013  -0.000   0.000   0.015  -0.002  -0.000   0.007
 -0.023   0.017   0.038  -0.755  -0.000  -0.013   0.241   0.000  -0.000  -0.030   0.038   0.000  -0.007
 -0.000   0.000   0.000  -0.000  -0.641  -0.000   0.000   0.198  -0.019  -0.000  -0.000   0.002   0.000
  0.000  -0.000  -0.000   0.000   0.070   0.000  -0.000  -0.019   0.033   0.000   0.000   0.011  -0.000
 -0.012   0.003  -0.048   0.105   0.000   0.015  -0.030  -0.000   0.000   0.021  -0.013  -0.000   0.002
  0.015  -0.003   0.003  -0.132   0.000  -0.002   0.038  -0.000   0.000  -0.013   0.023   0.000  -0.002
  0.000  -0.000   0.000  -0.000  -0.009  -0.000   0.000   0.002   0.011  -0.000   0.000   0.017  -0.000
  0.001   0.000  -0.024   0.025  -0.000   0.007  -0.007   0.000  -0.000   0.002  -0.002  -0.000   0.009
 total augmentation occupancy for first ion, spin component:           2
  0.000   0.000  -0.000   0.000   0.000   0.000  -0.000  -0.000   0.000  -0.000   0.000   0.000   0.000
  0.000   0.000  -0.000  -0.000   0.000   0.000   0.000  -0.000  -0.000   0.000   0.000  -0.000  -0.000
 -0.000  -0.000   0.001  -0.000  -0.000  -0.001   0.000   0.000  -0.000  -0.000   0.000   0.000  -0.000
  0.000  -0.000  -0.000   0.001   0.000   0.000  -0.001  -0.000  -0.000  -0.000   0.000  -0.000  -0.000
  0.000   0.000  -0.000   0.000   0.001   0.000  -0.000  -0.000  -0.000  -0.000  -0.000  -0.000   0.000
  0.000   0.000  -0.001   0.000   0.000   0.000  -0.000  -0.000   0.000   0.000  -0.000  -0.000   0.000
 -0.000   0.000   0.000  -0.001  -0.000  -0.000   0.000   0.000   0.000   0.000  -0.000   0.000   0.000
 -0.000  -0.000   0.000  -0.000  -0.000  -0.000   0.000   0.000   0.000  -0.000   0.000   0.000  -0.000
  0.000  -0.000  -0.000  -0.000  -0.000   0.000   0.000   0.000  -0.000  -0.000  -0.000  -0.000   0.000
 -0.000   0.000  -0.000  -0.000  -0.000   0.000   0.000  -0.000  -0.000   0.000   0.000  -0.000  -0.000
  0.000   0.000   0.000   0.000  -0.000  -0.000  -0.000   0.000  -0.000   0.000   0.000  -0.000   0.000
  0.000  -0.000   0.000  -0.000  -0.000  -0.000   0.000   0.000  -0.000  -0.000  -0.000   0.000   0.000
  0.000  -0.000  -0.000  -0.000   0.000   0.000   0.000  -0.000   0.000  -0.000   0.000   0.000   0.000


------------------------ aborting loop because EDIFF is reached ----------------------------------------





 total charge

# of ion       s       p       d       tot
------------------------------------------
    1        1.290   0.940   0.060   2.289
    2        1.290   0.940   0.060   2.289
    3        1.290   0.940   0.060   2.289
    4        1.290   0.940   0.060   2.289
    5        1.284   0.950   0.057   2.291
    6        1.284   0.950   0.057   2.291
    7        1.284   0.950   0.057   2.291
    8        1.284   0.950   0.057   2.291
    9        1.484   2.277   0.028   3.789
   10        1.484   2.277   0.028   3.789
   11        1.484   2.277   0.028   3.789
   12        1.484   2.277   0.028   3.789
   13        1.488   2.269   0.029   3.785
   14        1.488   2.269   0.029   3.785
   15        1.488   2.269   0.029   3.785
   16        1.488   2.269   0.029   3.785
   17        1.483   2.274   0.025   3.782
   18        1.483   2.274   0.025   3.782
   19        1.483   2.274   0.025   3.782
   20        1.483   2.274   0.025   3.782
--------------------------------------------------
tot         28.116  34.841   0.791  63.748



 magnetization (x)

# of ion       s       p       d       tot
------------------------------------------
    1       -0.000   0.000   0.000   0.000
    2       -0.000   0.000   0.000   0.000
    3       -0.000   0.000   0.000   0.000
    4       -0.000   0.000   0.000   0.000
    5        0.000   0.000   0.000   0.000
    6        0.000   0.000   0.000   0.000
    7        0.000   0.000   0.000   0.000
    8        0.000   0.000   0.000   0.000
    9       -0.000  -0.000   0.000  -0.000
   10       -0.000  -0.000   0.000  -0.000
   11       -0.000  -0.000   0.000  -0.000
   12       -0.000  -0.000   0.000  -0.000
   13       -0.000  -0.000   0.000  -0.000
   14       -0.000  -0.000   0.000  -0.000
   15       -0.000  -0.000   0.000  -0.000
   16       -0.000  -0.000   0.000  -0.000
   17       -0.000  -0.000   0.000  -0.000
   18       -0.000  -0.000   0.000  -0.000
   19       -0.000  -0.000   0.000  -0.000
   20       -0.000  -0.000   0.000  -0.000
--------------------------------------------------
tot         -0.000  -0.001   0.000  -0.001
 
    CHARGE:  cpu time      0.1280: real time      0.1283
    FORLOC:  cpu time      0.0024: real time      0.0024
    FORNL :  cpu time      0.5765: real time      0.5783
    STRESS:  cpu time      1.0346: real time      1.0373
    FORCOR:  cpu time      0.0682: real time      0.0684
    FORHAR:  cpu time      0.0124: real time      0.0125
    MIXING:  cpu time      0.0014: real time      0.0014
    OFIELD:  cpu time      0.0003: real time      0.0003

  FORCE on cell =-STRESS in cart. coord.  units (eV):
  Direction    XX          YY          ZZ          XY          YZ          ZX
  --------------------------------------------------------------------------------------
  Alpha Z   116.37457   116.37457   116.37457
  Ewald   -1197.35339 -1282.62549 -1551.15724    -0.00000     0.00000     0.00000
  Hartree   252.20336   200.30602    53.41239    -0.00000    -0.00000    -0.00000
  E(xc)    -419.28663  -418.99724  -421.01009     0.00000    -0.00000    -0.00000
  Local    -814.65231  -683.33426  -276.78497    -0.00000    -0.00000    -0.00000
  n-local  1145.57969  1143.92508  1158.24615    -0.00000    -0.00000     0.00000
  augment  -189.82402  -189.91260  -193.22066    -0.00000     0.00000     0.00000
  Kinetic  1102.40835  1108.86423  1111.11921     0.00001    -0.00000     0.00003
  Fock        0.00000     0.00000     0.00000     0.00000     0.00000     0.00000
  -------------------------------------------------------------------------------------
  Total      -4.55039    -5.39968    -3.02065     0.00000    -0.00000    -0.00000
  in kB     -12.58192   -14.93025    -8.35216     0.00000    -0.00000    -0.00000
  external pressure =      -11.95 kB  Pullay stress =        0.00 kB


 VOLUME and BASIS-vectors are now :
 -----------------------------------------------------------------------------
  energy-cutoff  :      680.00
  volume of cell :      579.44
      direct lattice vectors                 reciprocal lattice vectors
     4.001556870  0.000000000  0.000000000     0.249902733  0.000000000  0.000000000
    -0.000000000 11.713629710  0.000000000     0.000000000  0.085370634  0.000000000
     0.000000000  0.000000000 12.362073200    -0.000000000 -0.000000000  0.080892580

  length of vectors
     4.001556870 11.713629710 12.362073200     0.249902733  0.085370634  0.080892580


 FORCES acting on ions
    electron-ion (+dipol)            ewald-force                    non-local-force                 convergence-correction
 -----------------------------------------------------------------------------------------------
   0.356E-14 0.158E+02 -.388E+02   0.112E-13 -.215E+02 0.447E+02   -.335E-15 0.560E+01 -.586E+01   0.658E-15 0.862E-03 -.159E-02
   -.292E-14 -.158E+02 0.388E+02   -.774E-14 0.215E+02 -.447E+02   0.335E-15 -.560E+01 0.586E+01   -.319E-14 -.862E-03 0.159E-02
   -.121E-13 0.158E+02 0.388E+02   -.537E-14 -.215E+02 -.447E+02   -.335E-15 0.560E+01 0.586E+01   -.345E-14 0.862E-03 0.159E-02
   -.354E-13 -.158E+02 -.388E+02   0.198E-14 0.215E+02 0.447E+02   0.335E-15 -.560E+01 -.586E+01   0.135E-14 -.862E-03 -.159E-02
   -.127E-13 -.125E+02 0.336E+02   -.532E-14 0.994E+01 -.424E+02   -.145E-15 0.243E+01 0.864E+01   0.259E-14 -.605E-03 0.700E-03
   -.269E-13 0.125E+02 -.336E+02   0.793E-14 -.994E+01 0.424E+02   0.145E-15 -.243E+01 -.864E+01   -.311E-14 0.605E-03 -.700E-03
   -.633E-13 -.125E+02 -.336E+02   0.751E-14 0.994E+01 0.424E+02   -.145E-15 0.243E+01 -.864E+01   -.242E-14 -.605E-03 -.700E-03
   -.396E-13 0.125E+02 0.336E+02   -.149E-13 -.994E+01 -.424E+02   0.145E-15 -.243E+01 0.864E+01   0.102E-14 0.605E-03 0.700E-03
   -.199E-13 -.445E+02 0.475E+02   -.128E-13 0.459E+02 -.493E+02   0.779E-16 -.130E+01 0.172E+01   0.110E-13 -.256E-02 0.277E-02
   -.218E-14 0.445E+02 -.475E+02   0.156E-13 -.459E+02 0.493E+02   -.779E-16 0.130E+01 -.172E+01   -.164E-15 0.256E-02 -.277E-02
   -.185E-13 -.445E+02 -.475E+02   -.593E-14 0.459E+02 0.493E+02   0.779E-16 -.130E+01 -.172E+01   0.277E-14 -.256E-02 -.277E-02
   0.140E-14 0.445E+02 0.475E+02   0.152E-13 -.459E+02 -.493E+02   -.779E-16 0.130E+01 0.172E+01   0.796E-14 0.256E-02 0.277E-02
   -.245E-13 -.156E+02 -.611E+02   -.773E-14 0.164E+02 0.636E+02   0.537E-16 -.898E+00 -.238E+01   0.627E-14 -.925E-03 -.200E-02
   -.337E-14 0.156E+02 0.611E+02   0.928E-14 -.164E+02 -.636E+02   -.537E-16 0.898E+00 0.238E+01   0.555E-14 0.925E-03 0.200E-02
   0.115E-13 -.156E+02 0.611E+02   0.579E-14 0.164E+02 -.636E+02   0.537E-16 -.898E+00 0.238E+01   0.554E-14 -.925E-03 0.200E-02
   0.183E-13 0.156E+02 -.611E+02   -.304E-15 -.164E+02 0.636E+02   -.537E-16 0.898E+00 -.238E+01   0.713E-14 0.925E-03 -.200E-02
   -.672E-14 0.281E+02 -.153E+02   0.613E-14 -.298E+02 0.172E+02   -.921E-16 0.154E+01 -.172E+01   -.202E-15 0.200E-03 -.109E-03
   -.456E-13 -.281E+02 0.153E+02   -.138E-13 0.298E+02 -.172E+02   0.921E-16 -.154E+01 0.172E+01   0.124E-13 -.200E-03 0.109E-03
   -.533E-14 0.281E+02 0.153E+02   -.975E-14 -.298E+02 -.172E+02   -.921E-16 0.154E+01 0.172E+01   0.137E-13 0.200E-03 0.109E-03
   -.120E-13 -.281E+02 -.153E+02   0.432E-14 0.298E+02 0.172E+02   0.921E-16 -.154E+01 -.172E+01   -.336E-14 -.200E-03 -.109E-03
 -----------------------------------------------------------------------------------------------
   -.296E-12 0.359E-10 0.446E-11   0.129E-14 0.355E-13 0.355E-13   -.234E-21 0.888E-15 0.222E-15   0.621E-13 0.661E-13 -.157E-12
 
 
 POSITION                                       TOTAL-FORCE (eV/Angst)
 -----------------------------------------------------------------------------------
      3.00117      0.44623      1.73468         0.000000     -0.091451      0.054083
      1.00039     11.26740     10.62740        -0.000000      0.091451     -0.054083
      1.00039      6.30304      4.44636         0.000000     -0.091451     -0.054083
      3.00117      5.41059      7.91571        -0.000000      0.091451      0.054083
      1.00039      3.86071      0.41800         0.000000     -0.104679     -0.163342
      3.00117      7.85292     11.94408        -0.000000      0.104679      0.163342
      3.00117      9.71753      5.76304         0.000000     -0.104679      0.163342
      1.00039      1.99610      6.59903        -0.000000      0.104679     -0.163342
      3.00117      1.49378     11.72351        -0.000000      0.100896     -0.058089
      1.00039     10.21984      0.63856         0.000000     -0.100896      0.058089
      1.00039      7.35060      6.81960        -0.000000      0.100896      0.058089
      3.00117      4.36303      5.54248         0.000000     -0.100896     -0.058089
      1.00039      2.25020      2.53832         0.000000     -0.058119      0.082102
      3.00117      9.46343      9.82375        -0.000000      0.058119     -0.082102
      3.00117      8.10701      3.64272         0.000000     -0.058119     -0.082102
      1.00039      3.60662      8.71936        -0.000000      0.058119      0.082102
      3.00117      0.63369      7.75534         0.000000     -0.140600      0.106406
      1.00039     11.07994      4.60674        -0.000000      0.140600     -0.106406
      1.00039      6.49051     10.78777         0.000000     -0.140600     -0.106406
      3.00117      5.22312      1.57430        -0.000000      0.140600      0.106406
 -----------------------------------------------------------------------------------
    total drift:                               -0.000000      0.000000      0.000000


--------------------------------------------------------------------------------------------------------



  FREE ENERGIE OF THE ION-ELECTRON SYSTEM (eV)
  ---------------------------------------------------
  free  energy   TOTEN  =       -87.55640055 eV

  energy  without entropy=      -87.55640055  energy(sigma->0) =      -87.55640055
 


--------------------------------------------------------------------------------------------------------


    POTLOK:  cpu time      0.5073: real time      0.5086


--------------------------------------------------------------------------------------------------------


 writing wavefunctions
     LOOP+:  cpu time     54.4432: real time     54.7809
    4ORBIT:  cpu time      0.0000: real time      0.0000



 total charge

# of ion       s       p       d       tot
------------------------------------------
    1        1.290   0.940   0.060   2.289
    2        1.290   0.940   0.060   2.289
    3        1.290   0.940   0.060   2.289
    4        1.290   0.940   0.060   2.289
    5        1.284   0.950   0.057   2.291
    6        1.284   0.950   0.057   2.291
    7        1.284   0.950   0.057   2.291
    8        1.284   0.950   0.057   2.291
    9        1.484   2.277   0.028   3.789
   10        1.484   2.277   0.028   3.789
   11        1.484   2.277   0.028   3.789
   12        1.484   2.277   0.028   3.789
   13        1.488   2.269   0.029   3.785
   14        1.488   2.269   0.029   3.785
   15        1.488   2.269   0.029   3.785
   16        1.488   2.269   0.029   3.785
   17        1.483   2.274   0.025   3.782
   18        1.483   2.274   0.025   3.782
   19        1.483   2.274   0.025   3.782
   20        1.483   2.274   0.025   3.782
--------------------------------------------------
tot         28.116  34.841   0.791  63.748



 magnetization (x)

# of ion       s       p       d       tot
------------------------------------------
    1       -0.000   0.000   0.000   0.000
    2       -0.000   0.000   0.000   0.000
    3       -0.000   0.000   0.000   0.000
    4       -0.000   0.000   0.000   0.000
    5        0.000   0.000   0.000   0.000
    6        0.000   0.000   0.000   0.000
    7        0.000   0.000   0.000   0.000
    8        0.000   0.000   0.000   0.000
    9       -0.000  -0.000   0.000  -0.000
   10       -0.000  -0.000   0.000  -0.000
   11       -0.000  -0.000   0.000  -0.000
   12       -0.000  -0.000   0.000  -0.000
   13       -0.000  -0.000   0.000  -0.000
   14       -0.000  -0.000   0.000  -0.000
   15       -0.000  -0.000   0.000  -0.000
   16       -0.000  -0.000   0.000  -0.000
   17       -0.000  -0.000   0.000  -0.000
   18       -0.000  -0.000   0.000  -0.000
   19       -0.000  -0.000   0.000  -0.000
   20       -0.000  -0.000   0.000  -0.000
--------------------------------------------------
tot         -0.000  -0.001   0.000  -0.001
 
 BZINTS: Fermi energy:    3.860716;  112.000000 electrons
         Band energy:-0.178764E+03;  BLOECHL correction:    0.000000

 total amount of memory used by VASP MPI-rank0    56606. kBytes
=======================================================================

   base      :      30000. kBytes
   nonl-proj :       8492. kBytes
   fftplans  :       2660. kBytes
   grid      :       6950. kBytes
   one-center:         32. kBytes
   wavefun   :       8472. kBytes
 
  
  
 General timing and accounting informations for this job:
 ========================================================
  
                  Total CPU time used (sec):       86.269
                            User time (sec):       77.799
                          System time (sec):        8.470
                         Elapsed time (sec):       87.357
  
                   Maximum memory used (kb):      228144.
                   Average memory used (kb):          N/A
  
                          Minor page faults:        62103
                          Major page faults:            0
                 Voluntary context switches:         2131
