 vasp.6.4.2 20Jul23 (build Mar 15 2024 16:31:38) complex                        
  
 executed on             LinuxIFC date 2025.03.19  14:55:51
 running  120 mpi-ranks, on    3 nodes
 distrk:  each k-point on  120 cores,    1 groups
 distr:  one band on NCORE=  10 cores,   12 groups


--------------------------------------------------------------------------------------------------------


 INCAR:
   ALGO = Fast
   EDIFF = 1e-05
   ENAUG = 1360
   ENCUT = 680
   GGA = Ps
   ISMEAR = -5
   ISPIN = 2
   LAECHG = True
   LASPH = True
   LCHARG = True
   LELF = False
   LMAXMIX = 6
   LMIXTAU = True
   LORBIT = 11
   LREAL = False
   LVTOT = True
   LWAVE = True
   MAGMOM = 48*0.6
   NCORE = 10
   NELM = 200
   NSW = 0
   PREC = Accurate
   SIGMA = 0.2

 POTCAR:    PAW_PBE H 15Jun2001                   
 POTCAR:    PAW_PBE Pb_d 06Sep2000                
 POTCAR:    PAW_PBE C 08Apr2002                   
 POTCAR:    PAW_PBE I 08Apr2002                   
 POTCAR:    PAW_PBE N 08Apr2002                   
 WARNING: For LVTOT=.TRUE., VASP.5.x writes the TOTAL local potential to the
     file LOCPOT. If you want only the Hartree contributions, use LVHAR=.TRUE.
     instead. 

 POTCAR:    PAW_PBE H 15Jun2001                   
   VRHFIN =H: ultrasoft test                                                                        
   LEXCH  = PE                                                                                      
   EATOM  =    12.4884 eV,    0.9179 Ry                                                             
                                                                                                    
   TITEL  = PAW_PBE H 15Jun2001                                                                     
   LULTRA =        F    use ultrasoft PP ?                                                          
   IUNSCR =        0    unscreen: 0-lin 1-nonlin 2-no                                               
   RPACOR =    0.000    partial core radius                                                         
   POMASS =    1.000; ZVAL   =    1.000    mass and valenz                                          
   RCORE  =    1.100    outmost cutoff radius                                                       
   RWIGS  =    0.700; RWIGS  =    0.370    wigner-seitz radius (au A)                               
   ENMAX  =  250.000; ENMIN  =  200.000 eV                                                          
   RCLOC  =    0.701    cutoff for local pot                                                        
   LCOR   =        T    correct aug charges                                                         
   LPAW   =        T    paw PP                                                                      
   EAUG   =  400.000                                                                                
   RMAX   =    1.123    core radius for proj-oper                                                   
   RAUG   =    1.200    factor for augmentation sphere                                              
   RDEP   =    1.112    radius for radial grids                                                     
   RDEPT  =    0.926    core radius for aug-charge                                                  
                                                                                                    
   Atomic configuration                                                                             
    2 entries                                                                                       
     n  l   j            E        occ.                                                              
     1  0  0.50        -6.4927   1.0000                                                             
     2  1  0.50        -3.4015   0.0000                                                             
   Description                                                                                      
     l       E           TYP  RCUT    TYP  RCUT                                                     
     0     -6.4927494     23  1.100                                                                 
     0      6.8029130     23  1.100                                                                 
     1     -4.0817478     23  1.100                                                                 
  local pseudopotential read in
  atomic valenz-charges read in
  non local Contribution for L=           0  read in
    real space projection operators read in
  non local Contribution for L=           0  read in
    real space projection operators read in
  non local Contribution for L=           1  read in
    real space projection operators read in
    PAW grid and wavefunctions read in
 
   number of l-projection  operators is LMAX  =           3
   number of lm-projection operators is LMMAX =           5
 
 POTCAR:    PAW_PBE Pb_d 06Sep2000                
   VRHFIN =Pb:                                                                                      
   LEXCH  = PE                                                                                      
   EATOM  =  1661.6185 eV,  122.1255 Ry                                                             
                                                                                                    
   TITEL  = PAW_PBE Pb_d 06Sep2000                                                                  
   LULTRA =        F    use ultrasoft PP ?                                                          
   IUNSCR =        1    unscreen: 0-lin 1-nonlin 2-no                                               
   RPACOR =    2.200    partial core radius                                                         
   POMASS =  207.200; ZVAL   =   14.000    mass and valenz                                          
   RCORE  =    2.500    outmost cutoff radius                                                       
   RWIGS  =    3.260; RWIGS  =    1.725    wigner-seitz radius (au A)                               
   ENMAX  =  237.835; ENMIN  =  178.376 eV                                                          
   ICORE  =        3    local potential                                                             
   LCOR   =        T    correct aug charges                                                         
   LPAW   =        T    paw PP                                                                      
   EAUG   =  391.914                                                                                
   DEXC   =    0.000                                                                                
   RMAX   =    2.565    core radius for proj-oper                                                   
   RAUG   =    1.300    factor for augmentation sphere                                              
   RDEP   =    2.643    radius for radial grids                                                     
   RDEPT  =    2.092    core radius for aug-charge                                                  
                                                                                                    
   Atomic configuration                                                                             
   16 entries                                                                                       
     n  l   j            E        occ.                                                              
     1  0  0.50    -88091.8466   2.0000                                                             
     2  0  0.50    -15753.4197   2.0000                                                             
     2  1  1.50    -13508.1797   6.0000                                                             
     3  0  0.50     -3781.7194   2.0000                                                             
     3  1  1.50     -3138.2529   6.0000                                                             
     3  2  2.50     -2483.2977  10.0000                                                             
     4  0  0.50      -856.2895   2.0000                                                             
     4  1  1.50      -645.4942   6.0000                                                             
     4  2  2.50      -401.8768  10.0000                                                             
     4  3  3.50      -132.9059  14.0000                                                             
     5  0  0.50      -144.0950   2.0000                                                             
     5  1  1.50       -85.7879   6.0000                                                             
     5  2  2.50       -21.1769  10.0000                                                             
     6  0  0.50       -12.0372   2.0000                                                             
     6  1  1.50        -3.4971   2.0000                                                             
     5  3  2.50        -2.7212   0.0000                                                             
   Description                                                                                      
     l       E           TYP  RCUT    TYP  RCUT                                                     
     2    -21.1768523     23  2.500                                                                 
     2      1.3605826     23  2.500                                                                 
     0    -12.0371562     23  2.500                                                                 
     0     13.6058260     23  2.500                                                                 
     1     -3.4971339     23  2.500                                                                 
     1     13.6058260     23  2.500                                                                 
     3     -1.3605826      7  2.500                                                                 
  local pseudopotential read in
  partial core-charges read in
  partial kinetic energy density read in
  atomic valenz-charges read in
  non local Contribution for L=           2  read in
    real space projection operators read in
  non local Contribution for L=           2  read in
    real space projection operators read in
  non local Contribution for L=           0  read in
    real space projection operators read in
  non local Contribution for L=           0  read in
    real space projection operators read in
  non local Contribution for L=           1  read in
    real space projection operators read in
  non local Contribution for L=           1  read in
    real space projection operators read in
    PAW grid and wavefunctions read in
 
   number of l-projection  operators is LMAX  =           6
   number of lm-projection operators is LMMAX =          18
 
 POTCAR:    PAW_PBE C 08Apr2002                   
   VRHFIN =C: s2p2                                                                                  
   LEXCH  = PE                                                                                      
   EATOM  =   147.1560 eV,   10.8157 Ry                                                             
                                                                                                    
   TITEL  = PAW_PBE C 08Apr2002                                                                     
   LULTRA =        F    use ultrasoft PP ?                                                          
   IUNSCR =        1    unscreen: 0-lin 1-nonlin 2-no                                               
   RPACOR =    1.200    partial core radius                                                         
   POMASS =   12.011; ZVAL   =    4.000    mass and valenz                                          
   RCORE  =    1.500    outmost cutoff radius                                                       
   RWIGS  =    1.630; RWIGS  =    0.863    wigner-seitz radius (au A)                               
   ENMAX  =  400.000; ENMIN  =  300.000 eV                                                          
   ICORE  =        2    local potential                                                             
   LCOR   =        T    correct aug charges                                                         
   LPAW   =        T    paw PP                                                                      
   EAUG   =  644.873                                                                                
   DEXC   =    0.000                                                                                
   RMAX   =    1.529    core radius for proj-oper                                                   
   RAUG   =    1.300    factor for augmentation sphere                                              
   RDEP   =    1.501    radius for radial grids                                                     
   RDEPT  =    1.300    core radius for aug-charge                                                  
                                                                                                    
   Atomic configuration                                                                             
    4 entries                                                                                       
     n  l   j            E        occ.                                                              
     1  0  0.50      -273.3789   2.0000                                                             
     2  0  0.50       -13.7508   2.0000                                                             
     2  1  0.50        -5.2854   2.0000                                                             
     3  2  1.50        -5.4423   0.0000                                                             
   Description                                                                                      
     l       E           TYP  RCUT    TYP  RCUT                                                     
     0    -13.7508458     23  1.200                                                                 
     0     -8.2022199     23  1.200                                                                 
     1     -5.2854383     23  1.500                                                                 
     1     34.0145650     23  1.500                                                                 
     2     -5.4423304      7  1.500                                                                 
  local pseudopotential read in
  partial core-charges read in
  partial kinetic energy density read in
  atomic valenz-charges read in
  non local Contribution for L=           0  read in
    real space projection operators read in
  non local Contribution for L=           0  read in
    real space projection operators read in
  non local Contribution for L=           1  read in
    real space projection operators read in
  non local Contribution for L=           1  read in
    real space projection operators read in
    PAW grid and wavefunctions read in
 
   number of l-projection  operators is LMAX  =           4
   number of lm-projection operators is LMMAX =           8
 
 POTCAR:    PAW_PBE I 08Apr2002                   
   VRHFIN =I : s2p5                                                                                 
   LEXCH  = PE                                                                                      
   EATOM  =   315.8678 eV,   23.2156 Ry                                                             
                                                                                                    
   TITEL  = PAW_PBE I 08Apr2002                                                                     
   LULTRA =        F    use ultrasoft PP ?                                                          
   IUNSCR =        1    unscreen: 0-lin 1-nonlin 2-no                                               
   RPACOR =    2.200    partial core radius                                                         
   POMASS =  126.904; ZVAL   =    7.000    mass and valenz                                          
   RCORE  =    2.300    outmost cutoff radius                                                       
   RWIGS  =    2.810; RWIGS  =    1.487    wigner-seitz radius (au A)                               
   ENMAX  =  175.647; ENMIN  =  131.735 eV                                                          
   ICORE  =        3    local potential                                                             
   LCOR   =        T    correct aug charges                                                         
   LPAW   =        T    paw PP                                                                      
   EAUG   =  370.139                                                                                
   DEXC   =    0.000                                                                                
   RMAX   =    2.359    core radius for proj-oper                                                   
   RAUG   =    1.300    factor for augmentation sphere                                              
   RDEP   =    2.392    radius for radial grids                                                     
   RDEPT  =    2.170    core radius for aug-charge                                                  
                                                                                                    
   Atomic configuration                                                                             
   13 entries                                                                                       
     n  l   j            E        occ.                                                              
     1  0  0.50    -32976.3739   2.0000                                                             
     2  0  0.50     -5094.5933   2.0000                                                             
     2  1  1.50     -4572.0131   6.0000                                                             
     3  0  0.50     -1028.2813   2.0000                                                             
     3  1  1.50      -859.0250   6.0000                                                             
     3  2  2.50      -605.7620  10.0000                                                             
     4  0  0.50      -180.5540   2.0000                                                             
     4  1  1.50      -127.5306   6.0000                                                             
     4  2  2.50       -50.2720  10.0000                                                             
     5  0  0.50       -17.4058   2.0000                                                             
     5  1  0.50        -7.0851   5.0000                                                             
     5  2  1.50        -7.0750   0.0000                                                             
     4  3  2.50        -7.0750   0.0000                                                             
   Description                                                                                      
     l       E           TYP  RCUT    TYP  RCUT                                                     
     0    -17.4058016     23  2.300                                                                 
     0    -18.7663842     23  2.300                                                                 
     1     -7.0850686     23  2.300                                                                 
     1     -4.2150896     23  2.300                                                                 
     2     -7.0750295     23  2.300                                                                 
     3     -1.3605826     23  2.300                                                                 
  local pseudopotential read in
  partial core-charges read in
  partial kinetic energy density read in
  atomic valenz-charges read in
  non local Contribution for L=           0  read in
    real space projection operators read in
  non local Contribution for L=           0  read in
    real space projection operators read in
  non local Contribution for L=           1  read in
    real space projection operators read in
  non local Contribution for L=           1  read in
    real space projection operators read in
  non local Contribution for L=           2  read in
    real space projection operators read in
    PAW grid and wavefunctions read in
 
   number of l-projection  operators is LMAX  =           5
   number of lm-projection operators is LMMAX =          13
 
 POTCAR:    PAW_PBE N 08Apr2002                   
   VRHFIN =N: s2p3                                                                                  
   LEXCH  = PE                                                                                      
   EATOM  =   264.5486 eV,   19.4438 Ry                                                             
                                                                                                    
   TITEL  = PAW_PBE N 08Apr2002                                                                     
   LULTRA =        F    use ultrasoft PP ?                                                          
   IUNSCR =        1    unscreen: 0-lin 1-nonlin 2-no                                               
   RPACOR =    1.200    partial core radius                                                         
   POMASS =   14.001; ZVAL   =    5.000    mass and valenz                                          
   RCORE  =    1.500    outmost cutoff radius                                                       
   RWIGS  =    1.400; RWIGS  =    0.741    wigner-seitz radius (au A)                               
   ENMAX  =  400.000; ENMIN  =  300.000 eV                                                          
   ICORE  =        2    local potential                                                             
   LCOR   =        T    correct aug charges                                                         
   LPAW   =        T    paw PP                                                                      
   EAUG   =  627.112                                                                                
   DEXC   =    0.000                                                                                
   RMAX   =    1.529    core radius for proj-oper                                                   
   RAUG   =    1.300    factor for augmentation sphere                                              
   RDEP   =    1.514    radius for radial grids                                                     
   RDEPT  =    1.338    core radius for aug-charge                                                  
                                                                                                    
   Atomic configuration                                                                             
    4 entries                                                                                       
     n  l   j            E        occ.                                                              
     1  0  0.50      -384.7179   2.0000                                                             
     2  0  0.50       -18.5828   2.0000                                                             
     2  1  0.50        -7.0898   3.0000                                                             
     3  2  1.50        -6.8029   0.0000                                                             
   Description                                                                                      
     l       E           TYP  RCUT    TYP  RCUT                                                     
     0    -18.5828119     23  1.200                                                                 
     0    -13.5018863     23  1.200                                                                 
     1     -7.0897853     23  1.500                                                                 
     1      9.5240782     23  1.500                                                                 
     2     -6.8029130      7  1.500                                                                 
  local pseudopotential read in
  partial core-charges read in
  partial kinetic energy density read in
  atomic valenz-charges read in
  non local Contribution for L=           0  read in
    real space projection operators read in
  non local Contribution for L=           0  read in
    real space projection operators read in
  non local Contribution for L=           1  read in
    real space projection operators read in
  non local Contribution for L=           1  read in
    real space projection operators read in
    PAW grid and wavefunctions read in
 
   number of l-projection  operators is LMAX  =           4
   number of lm-projection operators is LMMAX =           8
 
 -----------------------------------------------------------------------------
|                                                                             |
|               ----> ADVICE to this user running VASP <----                  |
|                                                                             |
|     You have a (more or less) 'large supercell' and for larger cells it     |
|     might be more efficient to use real-space projection operators.         |
|     Therefore, try LREAL= Auto in the INCAR file.                           |
|     Mind: For very accurate calculation, you might also keep the            |
|     reciprocal projection scheme (i.e. LREAL=.FALSE.).                      |
|                                                                             |
 -----------------------------------------------------------------------------

 -----------------------------------------------------------------------------
|                                                                             |
|               ----> ADVICE to this user running VASP <----                  |
|                                                                             |
|     You enforced a specific xc type in the INCAR file but a different       |
|     type was found in the POTCAR file.                                      |
|     I HOPE YOU KNOW WHAT YOU ARE DOING!                                     |
|                                                                             |
 -----------------------------------------------------------------------------

  PAW_PBE H 15Jun2001                   :
 energy of atom  1       EATOM=  -12.4884
 kinetic energy error for atom=    0.0002 (will be added to EATOM!!)
  PAW_PBE Pb_d 06Sep2000                :
 energy of atom  2       EATOM=-1661.6185
 kinetic energy error for atom=    0.0012 (will be added to EATOM!!)
  PAW_PBE C 08Apr2002                   :
 energy of atom  3       EATOM= -147.1560
 kinetic energy error for atom=    0.0037 (will be added to EATOM!!)
  PAW_PBE I 08Apr2002                   :
 energy of atom  4       EATOM= -315.8678
 kinetic energy error for atom=    0.0004 (will be added to EATOM!!)
  PAW_PBE N 08Apr2002                   :
 energy of atom  5       EATOM= -264.5486
 kinetic energy error for atom=    0.0069 (will be added to EATOM!!)
 
 
 POSCAR: H24 Pb4 C4 I12 N4
  positions in direct lattice
  No initial velocities read in
 exchange correlation table for  LEXCH =       14
   RHO(1)=    0.500       N(1)  =     2000
   RHO(2)=  100.500       N(2)  =     4000
 


--------------------------------------------------------------------------------------------------------


 ion  position               nearest neighbor table
   1  0.388  0.411  0.321-  32 1.09
   2  0.612  0.589  0.679-  31 1.09
   3  0.888  0.089  0.679-  30 1.09
   4  0.112  0.911  0.321-  29 1.09
   5  0.612  0.589  0.821-  31 1.09
   6  0.388  0.411  0.179-  32 1.09
   7  0.112  0.911  0.179-  29 1.09
   8  0.888  0.089  0.821-  30 1.09
   9  0.603  0.578  0.315-  47 1.03
  10  0.397  0.422  0.685-  48 1.03
  11  0.103  0.922  0.685-  45 1.03
  12  0.897  0.078  0.315-  46 1.03
  13  0.397  0.422  0.815-  48 1.03
  14  0.603  0.578  0.185-  47 1.03
  15  0.897  0.078  0.185-  46 1.03
  16  0.103  0.922  0.815-  45 1.03
  17  0.543  0.332  0.250-  32 1.09
  18  0.457  0.668  0.750-  31 1.09
  19  0.043  0.168  0.750-  30 1.09
  20  0.957  0.832  0.250-  29 1.09
  21  0.460  0.654  0.250-  47 1.03
  22  0.540  0.346  0.750-  48 1.03
  23  0.960  0.846  0.750-  45 1.03
  24  0.040  0.154  0.250-  46 1.03
  25  0.000  0.500  0.000-  41 3.23  42 3.23  33 3.24  34 3.24  35 3.25  36 3.25
  26  0.500  0.000  0.000-  43 3.23  44 3.23  35 3.24  36 3.24  33 3.25  34 3.25
  27  0.000  0.500  0.500-  41 3.23  42 3.23  37 3.24  38 3.24  39 3.25  40 3.25
  28  0.500  0.000  0.500-  43 3.23  44 3.23  39 3.24  40 3.24  37 3.25  38 3.25
  29  0.042  0.919  0.250-  20 1.09   7 1.09   4 1.09  46 1.50
  30  0.958  0.081  0.750-  19 1.09   8 1.09   3 1.09  45 1.50
  31  0.542  0.581  0.750-  18 1.09   5 1.09   2 1.09  48 1.50
  32  0.458  0.419  0.250-  17 1.09   6 1.09   1 1.09  47 1.50
  33  0.197  0.199  0.018-  25 3.24  26 3.25
  34  0.803  0.801  0.982-  25 3.24  26 3.25
  35  0.697  0.301  0.982-  26 3.24  25 3.25
  36  0.303  0.699  0.018-  26 3.24  25 3.25
  37  0.803  0.801  0.518-  27 3.24  28 3.25
  38  0.197  0.199  0.482-  27 3.24  28 3.25
  39  0.303  0.699  0.482-  28 3.24  27 3.25
  40  0.697  0.301  0.518-  28 3.24  27 3.25
  41  0.942  0.478  0.250-  25 3.23  27 3.23
  42  0.058  0.522  0.750-  25 3.23  27 3.23
  43  0.442  0.022  0.750-  26 3.23  28 3.23
  44  0.558  0.978  0.250-  26 3.23  28 3.23
  45  0.035  0.934  0.750-  11 1.03  16 1.03  23 1.03  30 1.50
  46  0.965  0.066  0.250-  12 1.03  15 1.03  24 1.03  29 1.50
  47  0.535  0.566  0.250-   9 1.03  14 1.03  21 1.03  32 1.50
  48  0.465  0.434  0.750-  10 1.03  13 1.03  22 1.03  31 1.50
 
  LATTYP: Found a simple orthorhombic cell.
 ALAT       =     8.9195190000
 B/A-ratio  =     1.0104386795
 C/A-ratio  =     1.4284127877
  
  Lattice vectors:
  
 A1 = (   8.9195190000,   0.0000000000,   0.0000000000)
 A2 = (  -0.0000000000,   9.0126270000,   0.0000000000)
 A3 = (   0.0000000000,   0.0000000000,  12.7407550000)


Analysis of symmetry for initial positions (statically):
=====================================================================
 Subroutine PRICEL returns:
 Original cell was already a primitive cell.
 

 Routine SETGRP: Setting up the symmetry group for a 
 simple orthorhombic supercell.


 Subroutine GETGRP returns: Found  8 space group operations
 (whereof  2 operations were pure point group operations)
 out of a pool of  8 trial point group operations.


The static configuration has the point symmetry S_2 .
 The point group associated with its full space group is D_2h.


Analysis of symmetry for dynamics (positions and initial velocities):
=====================================================================
 Subroutine PRICEL returns:
 Original cell was already a primitive cell.
 

 Routine SETGRP: Setting up the symmetry group for a 
 simple orthorhombic supercell.


 Subroutine GETGRP returns: Found  8 space group operations
 (whereof  2 operations were pure point group operations)
 out of a pool of  8 trial point group operations.


The dynamic configuration has the point symmetry S_2 .
 The point group associated with its full space group is D_2h.


Analysis of structural, dynamic, and magnetic symmetry:
=====================================================================
 Subroutine PRICEL returns:
 Original cell was already a primitive cell.
 

 Routine SETGRP: Setting up the symmetry group for a 
 simple orthorhombic supercell.


 Subroutine GETGRP returns: Found  8 space group operations
 (whereof  2 operations were pure point group operations)
 out of a pool of  8 trial point group operations.


The overall configuration has the point symmetry S_2 .
 The point group associated with its full space group is D_2h.


 Subroutine INISYM returns: Found  8 space group operations
 (whereof  2 operations are pure point group operations),
 and found     1 'primitive' translations


----------------------------------------------------------------------------------------

                                     Primitive cell                                     

  volume of cell :    1024.2076

  direct lattice vectors                    reciprocal lattice vectors
     8.919519000  0.000000000  0.000000000     0.112113669  0.000000000  0.000000000
    -0.000000000  9.012627000  0.000000000     0.000000000  0.110955441  0.000000000
     0.000000000  0.000000000 12.740755000    -0.000000000 -0.000000000  0.078488284

  length of vectors
     8.919519000  9.012627000 12.740755000     0.112113669  0.110955441  0.078488284

  position of ions in fractional coordinates (direct lattice)
     0.388408000  0.410677000  0.320741000
     0.611592000  0.589323000  0.679259000
     0.888408000  0.089323000  0.679259000
     0.111592000  0.910677000  0.320741000
     0.611592000  0.589323000  0.820741000
     0.388408000  0.410677000  0.179259000
     0.111592000  0.910677000  0.179259000
     0.888408000  0.089323000  0.820741000
     0.602561000  0.577773000  0.315093000
     0.397439000  0.422227000  0.684907000
     0.102561000  0.922227000  0.684907000
     0.897439000  0.077773000  0.315093000
     0.397439000  0.422227000  0.815093000
     0.602561000  0.577773000  0.184907000
     0.897439000  0.077773000  0.184907000
     0.102561000  0.922227000  0.815093000
     0.543180000  0.331775000  0.250000000
     0.456820000  0.668225000  0.750000000
     0.043180000  0.168225000  0.750000000
     0.956820000  0.831775000  0.250000000
     0.460150000  0.653692000  0.250000000
     0.539850000  0.346308000  0.750000000
     0.960150000  0.846308000  0.750000000
     0.039850000  0.153692000  0.250000000
     0.000000000  0.500000000  1.000000000
     0.500000000  0.000000000  1.000000000
     0.000000000  0.500000000  0.500000000
     0.500000000  0.000000000  0.500000000
     0.042431000  0.918718000  0.250000000
     0.957569000  0.081282000  0.750000000
     0.542431000  0.581282000  0.750000000
     0.457569000  0.418718000  0.250000000
     0.197198000  0.198644000  0.018389000
     0.802802000  0.801356000  0.981611000
     0.697198000  0.301356000  0.981611000
     0.302802000  0.698644000  0.018389000
     0.802802000  0.801356000  0.518389000
     0.197198000  0.198644000  0.481611000
     0.302802000  0.698644000  0.481611000
     0.697198000  0.301356000  0.518389000
     0.942067000  0.478144000  0.250000000
     0.057933000  0.521856000  0.750000000
     0.442067000  0.021856000  0.750000000
     0.557933000  0.978144000  0.250000000
     0.034877000  0.934074000  0.750000000
     0.965123000  0.065926000  0.250000000
     0.534877000  0.565926000  0.250000000
     0.465123000  0.434074000  0.750000000

  ion indices of the primitive-cell ions
   primitive index   ion index
                 1           1
                 2           2
                 3           3
                 4           4
                 5           5
                 6           6
                 7           7
                 8           8
                 9           9
                10          10
                11          11
                12          12
                13          13
                14          14
                15          15
                16          16
                17          17
                18          18
                19          19
                20          20
                21          21
                22          22
                23          23
                24          24
                25          25
                26          26
                27          27
                28          28
                29          29
                30          30
                31          31
                32          32
                33          33
                34          34
                35          35
                36          36
                37          37
                38          38
                39          39
                40          40
                41          41
                42          42
                43          43
                44          44
                45          45
                46          46
                47          47
                48          48

----------------------------------------------------------------------------------------

 
 
 KPOINTS: pymatgen with grid density = 744 / numbe

Automatic generation of k-mesh.
 Grid dimensions read from file:
 generate k-points for:    2    2    1

 Generating k-lattice:

  Cartesian coordinates                     Fractional coordinates (reciprocal lattice)
     0.056056834  0.000000000  0.000000000     0.500000000  0.000000000  0.000000000
     0.000000000  0.055477720  0.000000000     0.000000000  0.500000000  0.000000000
    -0.000000000 -0.000000000  0.078488284    -0.000000000 -0.000000000  1.000000000

  Length of vectors
     0.056056834  0.055477720  0.078488284

  Shift w.r.t. Gamma in fractional coordinates (k-lattice)
     0.000000000  0.000000000  0.000000000

 TETIRR: Found     12 inequivalent tetrahedra from       24
 
 Subroutine IBZKPT returns following result:
 ===========================================
 
 Found      4 irreducible k-points:
 
 Following reciprocal coordinates:
            Coordinates               Weight
  0.000000  0.000000  0.000000      1.000000
  0.500000  0.000000  0.000000      1.000000
  0.000000  0.500000  0.000000      1.000000
  0.500000  0.500000  0.000000      1.000000
 
 Following cartesian coordinates:
            Coordinates               Weight
  0.000000  0.000000  0.000000      1.000000
  0.056057  0.000000  0.000000      1.000000
  0.000000  0.055478  0.000000      1.000000
  0.056057  0.055478  0.000000      1.000000
 


--------------------------------------------------------------------------------------------------------




 Dimension of arrays:
   k-points           NKPTS =      4   k-points in BZ     NKDIM =      4   number of bands    NBANDS=    144
   number of dos      NEDOS =    301   number of ions     NIONS =     48
   non local maximal  LDIM  =      6   non local SUM 2l+1 LMDIM =     18
   total plane-waves  NPLWV = 691200
   max r-space proj   IRMAX =      1   max aug-charges    IRDMAX=  39233
   dimension x,y,z NGX =    80 NGY =   80 NGZ =  108
   dimension x,y,z NGXF=   160 NGYF=  160 NGZF=  216
   support grid    NGXF=   160 NGYF=  160 NGZF=  216
   ions per type =              24   4   4  12   4
   NGX,Y,Z   is equivalent  to a cutoff of  14.91, 14.76, 14.09 a.u.
   NGXF,Y,Z  is equivalent  to a cutoff of  29.82, 29.51, 28.18 a.u.

 SYSTEM =  unknown system                          
 POSCAR =  H24 Pb4 C4 I12 N4                       

 Startparameter for this run:
   NWRITE =      2    write-flag & timer
   PREC   = accura    normal or accurate (medium, high low for compatibility)
   ISTART =      0    job   : 0-new  1-cont  2-samecut
   ICHARG =      2    charge: 1-file 2-atom 10-const
   ISPIN  =      2    spin polarized calculation?
   LNONCOLLINEAR =      F non collinear calculations
   LSORBIT =      F    spin-orbit coupling
   INIWAV =      1    electr: 0-lowe 1-rand  2-diag
   LASPH  =      T    aspherical Exc in radial PAW
 Electronic Relaxation 1
   ENCUT  =  680.0 eV  49.98 Ry    7.07 a.u.  18.96 19.16 27.09*2*pi/ulx,y,z
   ENINI  =  680.0     initial cutoff
   ENAUG  = 1360.0 eV  augmentation charge cutoff
   NELM   =    200;   NELMIN=  2; NELMDL= -5     # of ELM steps 
   EDIFF  = 0.1E-04   stopping-criterion for ELM
   LREAL  =      F    real-space projection
   NLSPLINE    = F    spline interpolate recip. space projectors
   LCOMPAT=      F    compatible to vasp.4.4
   GGA_COMPAT  = T    GGA compatible to vasp.4.4-vasp.4.6
   LMAXPAW     = -100 max onsite density
   LMAXMIX     =    6 max onsite mixed and CHGCAR
   VOSKOWN=      0    Vosko Wilk Nusair interpolation
   ROPT   =    0.00000   0.00000   0.00000   0.00000
   ROPT   =    0.00000
 Ionic relaxation
   EDIFFG = 0.1E-03   stopping-criterion for IOM
   NSW    =      0    number of steps for IOM
   NBLOCK =      1;   KBLOCK =      1    inner block; outer block 
   IBRION =     -1    ionic relax: 0-MD 1-quasi-New 2-CG
   NFREE  =      0    steps in history (QN), initial steepest desc. (CG)
   ISIF   =      2    stress and relaxation
   IWAVPR =     10    prediction:  0-non 1-charg 2-wave 3-comb
   ISYM   =      2    0-nonsym 1-usesym 2-fastsym
   LCORR  =      T    Harris-Foulkes like correction to forces

   POTIM  = 0.5000    time-step for ionic-motion
   TEIN   =    0.0    initial temperature
   TEBEG  =    0.0;   TEEND  =   0.0 temperature during run
   SMASS  =  -3.00    Nose mass-parameter (am)
   estimated Nose-frequenzy (Omega)   =  0.10E-29 period in steps = 0.13E+47 mass=  -0.182E-26a.u.
   SCALEE = 1.0000    scale energy and forces
   NPACO  =    256;   APACO  = 10.0  distance and # of slots for P.C.
   PSTRESS=    0.0 pullay stress

  Mass of Ions in am
   POMASS =   1.00207.20 12.01126.90 14.00
  Ionic Valenz
   ZVAL   =   1.00 14.00  4.00  7.00  5.00
  Atomic Wigner-Seitz radii
   RWIGS  =  -1.00 -1.00 -1.00 -1.00 -1.00
  virtual crystal weights 
   VCA    =   1.00  1.00  1.00  1.00  1.00
   NELECT =     200.0000    total number of electrons
   NUPDOWN=      -1.0000    fix difference up-down

 DOS related values:
   EMIN   =  10.00;   EMAX   =-10.00  energy-range for DOS
   EFERMI =   0.00;   METHOD = LEGACY      
   ISMEAR =    -5;   SIGMA  =   0.20  broadening in eV -4-tet -1-fermi 0-gaus

 Electronic relaxation 2 (details)
   IALGO  =     68    algorithm
   LDIAG  =      T    sub-space diagonalisation (order eigenvalues)
   LSUBROT=      F    optimize rotation matrix (better conditioning)
   TURBO    =      0    0=normal 1=particle mesh
   IRESTART =      0    0=no restart 2=restart with 2 vectors
   NREBOOT  =      0    no. of reboots
   NMIN     =      0    reboot dimension
   EREF     =   0.00    reference energy to select bands
   IMIX   =      4    mixing-type and parameters
     AMIX     =   0.40;   BMIX     =  1.00
     AMIX_MAG =   1.60;   BMIX_MAG =  1.00
     AMIN     =   0.10
     WC   =   100.;   INIMIX=   1;  MIXPRE=   1;  MAXMIX= -45

 Intra band minimization:
   WEIMIN = 0.0000     energy-eigenvalue tresh-hold
   EBREAK =  0.17E-07  absolut break condition
   DEPER  =   0.30     relativ break condition  

   TIME   =   0.40     timestep for ELM

  volume/ion in A,a.u.               =      21.34       143.99
  Fermi-wavevector in a.u.,A,eV,Ry     =   0.949778  1.794820 12.273523  0.902078
  Thomas-Fermi vector in A             =   2.078093
 
 Write flags
   LWAVE        =      T    write WAVECAR
   LDOWNSAMPLE  =      F    k-point downsampling of WAVECAR
   LCHARG       =      T    write CHGCAR
   LVTOT        =      T    write LOCPOT, total local potential
   LVHAR        =      F    write LOCPOT, Hartree potential only
   LELF         =      F    write electronic localiz. function (ELF)
   LORBIT       =     11    0 simple, 1 ext, 2 COOP (PROOUT), +10 PAW based schemes


 Dipole corrections
   LMONO  =      F    monopole corrections only (constant potential shift)
   LDIPOL =      F    correct potential (dipole corrections)
   IDIPOL =      0    1-x, 2-y, 3-z, 4-all directions 
   EPSILON=  1.0000000 bulk dielectric constant

 Exchange correlation treatment:
   GGA     =    PS    GGA type
   LEXCH   =    14    internal setting for exchange type
   LIBXC   =     F    Libxc                    
   VOSKOWN =     0    Vosko Wilk Nusair interpolation
   LHFCALC =     F    Hartree Fock is set to
   LHFONE  =     F    Hartree Fock one center treatment
   AEXX    =    0.0000 exact exchange contribution

 Linear response parameters
   LEPSILON=     F    determine dielectric tensor
   LRPA    =     F    only Hartree local field effects (RPA)
   LNABLA  =     F    use nabla operator in PAW spheres
   LVEL    =     F    velocity operator in full k-point grid
   CSHIFT  =0.1000    complex shift for real part using Kramers Kronig
   OMEGAMAX=  -1.0    maximum frequency
   DEG_THRESHOLD= 0.2000000E-02 threshold for treating states as degnerate
   RTIME   =   -0.100 relaxation time in fs
  (WPLASMAI=    0.000 imaginary part of plasma frequency in eV, 0.658/RTIME)
   DFIELD  = 0.0000000 0.0000000 0.0000000 field for delta impulse in time
 
  Optional k-point grid parameters
   LKPOINTS_OPT  =     F    use optional k-point grid
   KPOINTS_OPT_MODE=     1    mode for optional k-point grid
 
 Orbital magnetization related:
   ORBITALMAG=     F  switch on orbital magnetization
   LCHIMAG   =     F  perturbation theory with respect to B field
   DQ        =  0.001000  dq finite difference perturbation B field
   LLRAUG    =     F  two centre corrections for induced B field
   LBONE     =     F  B-component reconstruction in AE one-centre
   LVGVCALC  =     T  calculate vGv susceptibility
   LVGVAPPL  =     F  apply vGv susceptibility instead of pGv for G=0

 Random number generation:
   RANDOM_GENERATOR = DEFAULT
   PCG_SEED         = not used


--------------------------------------------------------------------------------------------------------


 Static calculation
 charge density and potential will be updated during run
 spin polarized calculation
 RMM-DIIS sequential band-by-band and
  variant of blocked Davidson during initial phase
 perform sub-space diagonalisation
    before iterative eigenvector-optimisation
 modified Broyden-mixing scheme, WC =      100.0
 initial mixing is a Kerker type mixing with AMIX =  0.4000 and BMIX =      1.0000
 Hartree-type preconditioning will be used
 using additional bands           44
 reciprocal scheme for non local part
 use partial core corrections
 calculate Harris-corrections to forces 
   (improved forces if not selfconsistent)
 use gradient corrections 
 use of overlap-Matrix (Vanderbilt PP)
 Fermi weights with tetrahedron method with Bloechl corrections


--------------------------------------------------------------------------------------------------------


  energy-cutoff  :      680.00
  volume of cell :     1024.21
      direct lattice vectors                 reciprocal lattice vectors
     8.919519000  0.000000000  0.000000000     0.112113669  0.000000000  0.000000000
    -0.000000000  9.012627000  0.000000000     0.000000000  0.110955441  0.000000000
     0.000000000  0.000000000 12.740755000    -0.000000000 -0.000000000  0.078488284

  length of vectors
     8.919519000  9.012627000 12.740755000     0.112113669  0.110955441  0.078488284


 
 k-points in units of 2pi/SCALE and weight: pymatgen with grid density = 744 / numbe
   0.00000000  0.00000000  0.00000000       0.250
   0.05605683  0.00000000  0.00000000       0.250
   0.00000000  0.05547772  0.00000000       0.250
   0.05605683  0.05547772  0.00000000       0.250
 
 k-points in reciprocal lattice and weights: pymatgen with grid density = 744 / numbe
   0.00000000  0.00000000  0.00000000       0.250
   0.50000000  0.00000000  0.00000000       0.250
   0.00000000  0.50000000  0.00000000       0.250
   0.50000000  0.50000000  0.00000000       0.250
 
 position of ions in fractional coordinates (direct lattice) 
   0.38840800  0.41067700  0.32074100
   0.61159200  0.58932300  0.67925900
   0.88840800  0.08932300  0.67925900
   0.11159200  0.91067700  0.32074100
   0.61159200  0.58932300  0.82074100
   0.38840800  0.41067700  0.17925900
   0.11159200  0.91067700  0.17925900
   0.88840800  0.08932300  0.82074100
   0.60256100  0.57777300  0.31509300
   0.39743900  0.42222700  0.68490700
   0.10256100  0.92222700  0.68490700
   0.89743900  0.07777300  0.31509300
   0.39743900  0.42222700  0.81509300
   0.60256100  0.57777300  0.18490700
   0.89743900  0.07777300  0.18490700
   0.10256100  0.92222700  0.81509300
   0.54318000  0.33177500  0.25000000
   0.45682000  0.66822500  0.75000000
   0.04318000  0.16822500  0.75000000
   0.95682000  0.83177500  0.25000000
   0.46015000  0.65369200  0.25000000
   0.53985000  0.34630800  0.75000000
   0.96015000  0.84630800  0.75000000
   0.03985000  0.15369200  0.25000000
   0.00000000  0.50000000  0.00000000
   0.50000000  0.00000000  0.00000000
   0.00000000  0.50000000  0.50000000
   0.50000000  0.00000000  0.50000000
   0.04243100  0.91871800  0.25000000
   0.95756900  0.08128200  0.75000000
   0.54243100  0.58128200  0.75000000
   0.45756900  0.41871800  0.25000000
   0.19719800  0.19864400  0.01838900
   0.80280200  0.80135600  0.98161100
   0.69719800  0.30135600  0.98161100
   0.30280200  0.69864400  0.01838900
   0.80280200  0.80135600  0.51838900
   0.19719800  0.19864400  0.48161100
   0.30280200  0.69864400  0.48161100
   0.69719800  0.30135600  0.51838900
   0.94206700  0.47814400  0.25000000
   0.05793300  0.52185600  0.75000000
   0.44206700  0.02185600  0.75000000
   0.55793300  0.97814400  0.25000000
   0.03487700  0.93407400  0.75000000
   0.96512300  0.06592600  0.25000000
   0.53487700  0.56592600  0.25000000
   0.46512300  0.43407400  0.75000000
 
 position of ions in cartesian coordinates  (Angst):
   3.46441254  3.70127862  4.08648250
   5.45510646  5.31134838  8.65427250
   7.92417204  0.80503488  8.65427250
   0.99534696  8.20759212  4.08648250
   5.45510646  5.31134838 10.45686000
   3.46441254  3.70127862  2.28389500
   0.99534696  8.20759212  2.28389500
   7.92417204  0.80503488 10.45686000
   5.37455429  5.20725254  4.01452272
   3.54496471  3.80537446  8.72623228
   0.91479479  8.31168796  8.72623228
   8.00472421  0.70093904  4.01452272
   3.54496471  3.80537446 10.38490022
   5.37455429  5.20725254  2.35585478
   8.00472421  0.70093904  2.35585478
   0.91479479  8.31168796 10.38490022
   4.84490433  2.99016432  3.18518875
   4.07461467  6.02246268  9.55556625
   0.38514483  1.51614918  9.55556625
   8.53437417  7.49647782  3.18518875
   4.10431667  5.89148217  3.18518875
   4.81520233  3.12114483  9.55556625
   8.56407617  7.62745833  9.55556625
   0.35544283  1.38516867  3.18518875
  -0.00000000  4.50631350  0.00000000
   4.45975950  0.00000000  0.00000000
  -0.00000000  4.50631350  6.37037750
   4.45975950  0.00000000  6.37037750
   0.37846411  8.28006265  3.18518875
   8.54105489  0.73256435  9.55556625
   4.83822361  5.23887785  9.55556625
   4.08129539  3.77374915  3.18518875
   1.75891131  1.79030428  0.23428974
   7.16060769  7.22232272 12.50646526
   6.21867081  2.71600922 12.50646526
   2.70084819  6.29661778  0.23428974
   7.16060769  7.22232272  6.60466724
   1.75891131  1.79030428  6.13608776
   2.70084819  6.29661778  6.13608776
   6.21867081  2.71600922  6.60466724
   8.40278451  4.30933352  3.18518875
   0.51673449  4.70329348  9.55556625
   3.94302501  0.19697998  9.55556625
   4.97649399  8.81564702  3.18518875
   0.31108606  8.41846055  9.55556625
   8.60843294  0.59416645  3.18518875
   4.77084556  5.10047995  3.18518875
   4.14867344  3.91214705  9.55556625
 


--------------------------------------------------------------------------------------------------------


 k-point   1 :   0.0000 0.0000 0.0000  plane waves:   41225
 k-point   2 :   0.5000 0.0000 0.0000  plane waves:   41258
 k-point   3 :   0.0000 0.5000 0.0000  plane waves:   41190
 k-point   4 :   0.5000 0.5000 0.0000  plane waves:   41168

 maximum and minimum number of plane-waves per node :      4155     4094

 maximum number of plane-waves:     41258
 maximum index in each direction: 
   IXMAX=   18   IYMAX=   19   IZMAX=   27
   IXMIN=  -19   IYMIN=  -19   IZMIN=  -27


 parallel 3D FFT for wavefunctions:
    minimum data exchange during FFTs selected (reduces bandwidth)
 parallel 3D FFT for charge:
    minimum data exchange during FFTs selected (reduces bandwidth)


 total amount of memory used by VASP MPI-rank0    68716. kBytes
=======================================================================

   base      :      30000. kBytes
   nonl-proj :      15102. kBytes
   fftplans  :       4214. kBytes
   grid      :      12794. kBytes
   one-center:        155. kBytes
   wavefun   :       6451. kBytes
 
     INWAV:  cpu time      0.0001: real time      0.0006
 Broyden mixing: mesh for mixing (old mesh)
   NGX = 37   NGY = 39   NGZ = 55
  (NGX  =160   NGY  =160   NGZ  =216)
  gives a total of  79365 points

 initial charge density was supplied:
 charge density of overlapping atoms calculated
 number of electron     200.0000000 magnetization      28.8000000
 keeping initial charge density in first step


--------------------------------------------------------------------------------------------------------


 Maximum index for augmentation-charges         1267 (set IRDMAX)


--------------------------------------------------------------------------------------------------------


 First call to EWALD:  gamma=   0.176
 Maximum number of real-space cells 3x 3x 2
 Maximum number of reciprocal cells 2x 3x 3

    FEWALD:  cpu time      0.0025: real time      0.0027


--------------------------------------- Ionic step        1  -------------------------------------------




--------------------------------------- Iteration      1(   1)  ---------------------------------------


    POTLOK:  cpu time      0.1099: real time      0.1132
    SETDIJ:  cpu time      0.4144: real time      0.4161
     EDDAV:  cpu time      2.3256: real time      2.3362
 BZINTS: Fermi energy:   12.074502;  200.000000 electrons
         Band energy: 0.371607E+03;  BLOECHL correction:   -0.014248
       DOS:  cpu time      0.0068: real time      0.0070
    --------------------------------------------
      LOOP:  cpu time      2.8567: real time      2.8725

 eigenvalue-minimisations  :  2304
 total energy-change (2. order) : 0.1710184E+04  (-0.9308078E+04)
 number of electron     200.0000000 magnetization      28.8000000
 augmentation part      200.0000000 magnetization      28.8000000

 Free energy of the ion-electron system (eV)
  ---------------------------------------------------
  alpha Z        PSCENC =       180.38090441
  Ewald energy   TEWEN  =     -7816.47850740
  -Hartree energ DENC   =     -3969.61158142
  -exchange      EXHF   =         0.00000000
  -V(xc)+E(xc)   XCENC  =       197.13969209
  PAW double counting   =     10297.35152481    -9924.70310689
  entropy T*S    EENTRO =         0.00000000
  eigenvalues    EBANDS =       371.60717664
  atomic energy  EATOM  =     12374.49751190
  Solvation  Ediel_sol  =         0.00000000
  ---------------------------------------------------
  free energy    TOTEN  =      1710.18361413 eV

  energy without entropy =     1710.18361413  energy(sigma->0) =     1710.18361413


--------------------------------------------------------------------------------------------------------




--------------------------------------- Iteration      1(   2)  ---------------------------------------


     EDDAV:  cpu time      2.4551: real time      2.4689
 BZINTS: Fermi energy:    3.615598;  200.000000 electrons
         Band energy:-0.128087E+04;  BLOECHL correction:    0.000000
       DOS:  cpu time      0.0025: real time      0.0025
    --------------------------------------------
      LOOP:  cpu time      2.4576: real time      2.4714

 eigenvalue-minimisations  :  2628
 total energy-change (2. order) :-0.1652481E+04  (-0.1550525E+04)
 number of electron     200.0000000 magnetization      28.8000000
 augmentation part      200.0000000 magnetization      28.8000000

 Free energy of the ion-electron system (eV)
  ---------------------------------------------------
  alpha Z        PSCENC =       180.38090441
  Ewald energy   TEWEN  =     -7816.47850740
  -Hartree energ DENC   =     -3969.61158142
  -exchange      EXHF   =         0.00000000
  -V(xc)+E(xc)   XCENC  =       197.13969209
  PAW double counting   =     10297.35152481    -9924.70310689
  entropy T*S    EENTRO =         0.00000000
  eigenvalues    EBANDS =     -1280.87424561
  atomic energy  EATOM  =     12374.49751190
  Solvation  Ediel_sol  =         0.00000000
  ---------------------------------------------------
  free energy    TOTEN  =        57.70219189 eV

  energy without entropy =       57.70219189  energy(sigma->0) =       57.70219189


--------------------------------------------------------------------------------------------------------




--------------------------------------- Iteration      1(   3)  ---------------------------------------


     EDDAV:  cpu time      2.8109: real time      2.8319
 BZINTS: Fermi energy:    1.318169;  200.000000 electrons
         Band energy:-0.153190E+04;  BLOECHL correction:    0.000000
       DOS:  cpu time      0.0029: real time      0.0029
    --------------------------------------------
      LOOP:  cpu time      2.8138: real time      2.8348

 eigenvalue-minimisations  :  3048
 total energy-change (2. order) :-0.2510307E+03  (-0.2479772E+03)
 number of electron     200.0000000 magnetization      28.8000000
 augmentation part      200.0000000 magnetization      28.8000000

 Free energy of the ion-electron system (eV)
  ---------------------------------------------------
  alpha Z        PSCENC =       180.38090441
  Ewald energy   TEWEN  =     -7816.47850740
  -Hartree energ DENC   =     -3969.61158142
  -exchange      EXHF   =         0.00000000
  -V(xc)+E(xc)   XCENC  =       197.13969209
  PAW double counting   =     10297.35152481    -9924.70310689
  entropy T*S    EENTRO =         0.00000000
  eigenvalues    EBANDS =     -1531.90494941
  atomic energy  EATOM  =     12374.49751190
  Solvation  Ediel_sol  =         0.00000000
  ---------------------------------------------------
  free energy    TOTEN  =      -193.32851191 eV

  energy without entropy =     -193.32851191  energy(sigma->0) =     -193.32851191


--------------------------------------------------------------------------------------------------------




--------------------------------------- Iteration      1(   4)  ---------------------------------------


     EDDAV:  cpu time      2.8958: real time      2.9201
 BZINTS: Fermi energy:    1.221913;  200.000000 electrons
         Band energy:-0.154786E+04;  BLOECHL correction:    0.000000
       DOS:  cpu time      0.0022: real time      0.0022
    --------------------------------------------
      LOOP:  cpu time      2.8980: real time      2.9224

 eigenvalue-minimisations  :  3228
 total energy-change (2. order) :-0.1595430E+02  (-0.1589213E+02)
 number of electron     200.0000000 magnetization      28.8000000
 augmentation part      200.0000000 magnetization      28.8000000

 Free energy of the ion-electron system (eV)
  ---------------------------------------------------
  alpha Z        PSCENC =       180.38090441
  Ewald energy   TEWEN  =     -7816.47850740
  -Hartree energ DENC   =     -3969.61158142
  -exchange      EXHF   =         0.00000000
  -V(xc)+E(xc)   XCENC  =       197.13969209
  PAW double counting   =     10297.35152481    -9924.70310689
  entropy T*S    EENTRO =         0.00000000
  eigenvalues    EBANDS =     -1547.85924529
  atomic energy  EATOM  =     12374.49751190
  Solvation  Ediel_sol  =         0.00000000
  ---------------------------------------------------
  free energy    TOTEN  =      -209.28280779 eV

  energy without entropy =     -209.28280779  energy(sigma->0) =     -209.28280779


--------------------------------------------------------------------------------------------------------




--------------------------------------- Iteration      1(   5)  ---------------------------------------


     EDDAV:  cpu time      3.0089: real time      3.0318
 BZINTS: Fermi energy:    1.227530;  200.000000 electrons
         Band energy:-0.154836E+04;  BLOECHL correction:    0.000000
       DOS:  cpu time      0.0021: real time      0.0021
    CHARGE:  cpu time      0.1990: real time      0.1999
    MIXING:  cpu time      0.0061: real time      0.0067
    --------------------------------------------
      LOOP:  cpu time      3.2163: real time      3.2405

 eigenvalue-minimisations  :  3264
 total energy-change (2. order) :-0.4982918E+00  (-0.4975645E+00)
 number of electron     199.9999995 magnetization      19.7855396
 augmentation part        3.7296513 magnetization      19.8105657

 Broyden mixing:
  rms(total) = 0.29306E+01    rms(broyden)= 0.29306E+01
  rms(prec ) = 0.32457E+01
  weight for this iteration     100.00

 Free energy of the ion-electron system (eV)
  ---------------------------------------------------
  alpha Z        PSCENC =       180.38090441
  Ewald energy   TEWEN  =     -7816.47850740
  -Hartree energ DENC   =     -3969.61158142
  -exchange      EXHF   =         0.00000000
  -V(xc)+E(xc)   XCENC  =       197.13969209
  PAW double counting   =     10297.35152481    -9924.70310689
  entropy T*S    EENTRO =         0.00000000
  eigenvalues    EBANDS =     -1548.35753709
  atomic energy  EATOM  =     12374.49751190
  Solvation  Ediel_sol  =         0.00000000
  ---------------------------------------------------
  free energy    TOTEN  =      -209.78109960 eV

  energy without entropy =     -209.78109960  energy(sigma->0) =     -209.78109960


--------------------------------------------------------------------------------------------------------




--------------------------------------- Iteration      1(   6)  ---------------------------------------


    POTLOK:  cpu time      0.1059: real time      0.1165
    SETDIJ:  cpu time      0.4284: real time      0.4296
    EDDIAG:  cpu time      0.4169: real time      0.4183
  RMM-DIIS:  cpu time      1.5550: real time      1.5593
    ORTHCH:  cpu time      0.0746: real time      0.0748
 BZINTS: Fermi energy:    1.359037;  200.000000 electrons
         Band energy:-0.144896E+04;  BLOECHL correction:    0.000000
       DOS:  cpu time      0.0023: real time      0.0023
    CHARGE:  cpu time      0.1970: real time      0.1974
    MIXING:  cpu time      0.0024: real time      0.0027
    --------------------------------------------
      LOOP:  cpu time      2.7824: real time      2.8009

 eigenvalue-minimisations  :  2588
 total energy-change (2. order) : 0.3139149E+02  (-0.5850708E+01)
 number of electron     199.9999995 magnetization      12.5807152
 augmentation part        3.6922157 magnetization      12.9763065

 Broyden mixing:
  rms(total) = 0.14052E+01    rms(broyden)= 0.14052E+01
  rms(prec ) = 0.15792E+01
  weight for this iteration     100.00

 eigenvalues of (default mixing * dielectric matrix)
  average eigenvalue GAMMA=   0.9150
  0.9150

 Free energy of the ion-electron system (eV)
  ---------------------------------------------------
  alpha Z        PSCENC =       180.38090441
  Ewald energy   TEWEN  =     -7816.47850740
  -Hartree energ DENC   =     -4056.91708609
  -exchange      EXHF   =         0.00000000
  -V(xc)+E(xc)   XCENC  =       214.66010955
  PAW double counting   =     11463.70773059   -11089.28149519
  entropy T*S    EENTRO =         0.00000000
  eigenvalues    EBANDS =     -1448.95877977
  atomic energy  EATOM  =     12374.49751190
  Solvation  Ediel_sol  =         0.00000000
  ---------------------------------------------------
  free energy    TOTEN  =      -178.38961201 eV

  energy without entropy =     -178.38961201  energy(sigma->0) =     -178.38961201


--------------------------------------------------------------------------------------------------------




--------------------------------------- Iteration      1(   7)  ---------------------------------------


    POTLOK:  cpu time      0.1004: real time      0.1134
    SETDIJ:  cpu time      0.4114: real time      0.4125
    EDDIAG:  cpu time      0.4195: real time      0.4206
  RMM-DIIS:  cpu time      1.6455: real time      1.6502
    ORTHCH:  cpu time      0.0756: real time      0.0758
 BZINTS: Fermi energy:    1.333131;  200.000000 electrons
         Band energy:-0.140193E+04;  BLOECHL correction:    0.000000
       DOS:  cpu time      0.0018: real time      0.0018
    CHARGE:  cpu time      0.2097: real time      0.2102
    MIXING:  cpu time      0.0023: real time      0.0023
    --------------------------------------------
      LOOP:  cpu time      2.8662: real time      2.8868

 eigenvalue-minimisations  :  2720
 total energy-change (2. order) :-0.1609660E+02  (-0.3173043E+01)
 number of electron     199.9999994 magnetization       7.5333672
 augmentation part        3.9090046 magnetization       7.9640035

 Broyden mixing:
  rms(total) = 0.82587E+00    rms(broyden)= 0.82586E+00
  rms(prec ) = 0.87173E+00
  weight for this iteration     100.00

 eigenvalues of (default mixing * dielectric matrix)
  average eigenvalue GAMMA=   1.0599
  1.3466  0.7732

 Free energy of the ion-electron system (eV)
  ---------------------------------------------------
  alpha Z        PSCENC =       180.38090441
  Ewald energy   TEWEN  =     -7816.47850740
  -Hartree energ DENC   =     -4116.79420805
  -exchange      EXHF   =         0.00000000
  -V(xc)+E(xc)   XCENC  =       211.09357470
  PAW double counting   =     12589.62628115   -12214.88156730
  entropy T*S    EENTRO =         0.00000000
  eigenvalues    EBANDS =     -1401.93019941
  atomic energy  EATOM  =     12374.49751190
  Solvation  Ediel_sol  =         0.00000000
  ---------------------------------------------------
  free energy    TOTEN  =      -194.48621000 eV

  energy without entropy =     -194.48621000  energy(sigma->0) =     -194.48621000


--------------------------------------------------------------------------------------------------------




--------------------------------------- Iteration      1(   8)  ---------------------------------------


    POTLOK:  cpu time      0.1139: real time      0.1145
    SETDIJ:  cpu time      0.4106: real time      0.4117
    EDDIAG:  cpu time      0.4192: real time      0.4204
  RMM-DIIS:  cpu time      1.7910: real time      1.7960
    ORTHCH:  cpu time      0.0756: real time      0.0758
 BZINTS: Fermi energy:    1.339153;  200.000000 electrons
         Band energy:-0.139311E+04;  BLOECHL correction:    0.000000
       DOS:  cpu time      0.0018: real time      0.0018
    CHARGE:  cpu time      0.1969: real time      0.1974
    MIXING:  cpu time      0.0019: real time      0.0019
    --------------------------------------------
      LOOP:  cpu time      3.0110: real time      3.0195

 eigenvalue-minimisations  :  2880
 total energy-change (2. order) :-0.8522570E+01  (-0.1284455E+01)
 number of electron     199.9999994 magnetization       3.8191850
 augmentation part        4.0488456 magnetization       4.1152166

 Broyden mixing:
  rms(total) = 0.49590E+00    rms(broyden)= 0.49590E+00
  rms(prec ) = 0.52789E+00
  weight for this iteration     100.00

 eigenvalues of (default mixing * dielectric matrix)
  average eigenvalue GAMMA=   1.2229
  1.7622  1.1879  0.7186

 Free energy of the ion-electron system (eV)
  ---------------------------------------------------
  alpha Z        PSCENC =       180.38090441
  Ewald energy   TEWEN  =     -7816.47850740
  -Hartree energ DENC   =     -4132.57998313
  -exchange      EXHF   =         0.00000000
  -V(xc)+E(xc)   XCENC  =       209.54483424
  PAW double counting   =     13389.02690235   -13014.28966581
  entropy T*S    EENTRO =         0.00000000
  eigenvalues    EBANDS =     -1393.11077679
  atomic energy  EATOM  =     12374.49751190
  Solvation  Ediel_sol  =         0.00000000
  ---------------------------------------------------
  free energy    TOTEN  =      -203.00878024 eV

  energy without entropy =     -203.00878024  energy(sigma->0) =     -203.00878024


--------------------------------------------------------------------------------------------------------




--------------------------------------- Iteration      1(   9)  ---------------------------------------


    POTLOK:  cpu time      0.1098: real time      0.1163
    SETDIJ:  cpu time      0.4075: real time      0.4085
    EDDIAG:  cpu time      0.4356: real time      0.4369
  RMM-DIIS:  cpu time      1.8582: real time      1.8632
    ORTHCH:  cpu time      0.0755: real time      0.0757
 BZINTS: Fermi energy:    1.243013;  200.000000 electrons
         Band energy:-0.140672E+04;  BLOECHL correction:    0.000000
       DOS:  cpu time      0.0021: real time      0.0021
    CHARGE:  cpu time      0.2105: real time      0.2110
    MIXING:  cpu time      0.0017: real time      0.0017
    --------------------------------------------
      LOOP:  cpu time      3.1008: real time      3.1154

 eigenvalue-minimisations  :  2870
 total energy-change (2. order) :-0.3609494E+01  (-0.6565851E+00)
 number of electron     199.9999994 magnetization       1.5768427
 augmentation part        4.0846163 magnetization       1.7249027

 Broyden mixing:
  rms(total) = 0.22175E+00    rms(broyden)= 0.22174E+00
  rms(prec ) = 0.23283E+00
  weight for this iteration     100.00

 eigenvalues of (default mixing * dielectric matrix)
  average eigenvalue GAMMA=   1.3172
  2.3509  1.4025  0.8532  0.6622

 Free energy of the ion-electron system (eV)
  ---------------------------------------------------
  alpha Z        PSCENC =       180.38090441
  Ewald energy   TEWEN  =     -7816.47850740
  -Hartree energ DENC   =     -4121.27050905
  -exchange      EXHF   =         0.00000000
  -V(xc)+E(xc)   XCENC  =       208.19098389
  PAW double counting   =     13865.86057799   -13491.08292755
  entropy T*S    EENTRO =         0.00000000
  eigenvalues    EBANDS =     -1406.71630830
  atomic energy  EATOM  =     12374.49751190
  Solvation  Ediel_sol  =         0.00000000
  ---------------------------------------------------
  free energy    TOTEN  =      -206.61827411 eV

  energy without entropy =     -206.61827411  energy(sigma->0) =     -206.61827411


--------------------------------------------------------------------------------------------------------




--------------------------------------- Iteration      1(  10)  ---------------------------------------


    POTLOK:  cpu time      0.1018: real time      0.1182
    SETDIJ:  cpu time      0.4109: real time      0.4120
    EDDIAG:  cpu time      0.4344: real time      0.4355
  RMM-DIIS:  cpu time      1.7912: real time      1.7962
    ORTHCH:  cpu time      0.0729: real time      0.0731
 BZINTS: Fermi energy:    1.231708;  200.000000 electrons
         Band energy:-0.141275E+04;  BLOECHL correction:    0.000000
       DOS:  cpu time      0.0019: real time      0.0019
    CHARGE:  cpu time      0.1976: real time      0.1982
    MIXING:  cpu time      0.0016: real time      0.0016
    --------------------------------------------
      LOOP:  cpu time      3.0123: real time      3.0367

 eigenvalue-minimisations  :  2944
 total energy-change (2. order) :-0.5035108E+00  (-0.1494019E+00)
 number of electron     199.9999994 magnetization       1.0001434
 augmentation part        4.0722737 magnetization       1.0817438

 Broyden mixing:
  rms(total) = 0.94503E-01    rms(broyden)= 0.94501E-01
  rms(prec ) = 0.10534E+00
  weight for this iteration     100.00

 eigenvalues of (default mixing * dielectric matrix)
  average eigenvalue GAMMA=   1.2591
  2.4763  1.3231  1.1262  0.7636  0.6066

 Free energy of the ion-electron system (eV)
  ---------------------------------------------------
  alpha Z        PSCENC =       180.38090441
  Ewald energy   TEWEN  =     -7816.47850740
  -Hartree energ DENC   =     -4115.72662357
  -exchange      EXHF   =         0.00000000
  -V(xc)+E(xc)   XCENC  =       207.91575996
  PAW double counting   =     14113.28897294   -13738.24989359
  entropy T*S    EENTRO =         0.00000000
  eigenvalues    EBANDS =     -1412.74990958
  atomic energy  EATOM  =     12374.49751190
  Solvation  Ediel_sol  =         0.00000000
  ---------------------------------------------------
  free energy    TOTEN  =      -207.12178494 eV

  energy without entropy =     -207.12178494  energy(sigma->0) =     -207.12178494


--------------------------------------------------------------------------------------------------------




--------------------------------------- Iteration      1(  11)  ---------------------------------------


    POTLOK:  cpu time      0.0992: real time      0.1140
    SETDIJ:  cpu time      0.4093: real time      0.4105
    EDDIAG:  cpu time      0.4166: real time      0.4177
  RMM-DIIS:  cpu time      2.0695: real time      2.0755
    ORTHCH:  cpu time      0.0743: real time      0.0745
 BZINTS: Fermi energy:    1.172547;  200.000000 electrons
         Band energy:-0.141219E+04;  BLOECHL correction:    0.000000
       DOS:  cpu time      0.0018: real time      0.0020
    CHARGE:  cpu time      0.1983: real time      0.1988
    MIXING:  cpu time      0.0019: real time      0.0019
    --------------------------------------------
      LOOP:  cpu time      3.2708: real time      3.2948

 eigenvalue-minimisations  :  3466
 total energy-change (2. order) :-0.2971145E-01  (-0.3423102E-01)
 number of electron     199.9999994 magnetization       0.5584691
 augmentation part        4.0560554 magnetization       0.6010539

 Broyden mixing:
  rms(total) = 0.60870E-01    rms(broyden)= 0.60869E-01
  rms(prec ) = 0.67768E-01
  weight for this iteration     100.00

 eigenvalues of (default mixing * dielectric matrix)
  average eigenvalue GAMMA=   1.2403
  2.3377  1.6042  1.0387  1.0387  0.7535  0.6691

 Free energy of the ion-electron system (eV)
  ---------------------------------------------------
  alpha Z        PSCENC =       180.38090441
  Ewald energy   TEWEN  =     -7816.47850740
  -Hartree energ DENC   =     -4116.52805815
  -exchange      EXHF   =         0.00000000
  -V(xc)+E(xc)   XCENC  =       207.99137330
  PAW double counting   =     14146.66517715   -13771.49166560
  entropy T*S    EENTRO =         0.00000000
  eigenvalues    EBANDS =     -1412.18823199
  atomic energy  EATOM  =     12374.49751190
  Solvation  Ediel_sol  =         0.00000000
  ---------------------------------------------------
  free energy    TOTEN  =      -207.15149639 eV

  energy without entropy =     -207.15149639  energy(sigma->0) =     -207.15149639


--------------------------------------------------------------------------------------------------------




--------------------------------------- Iteration      1(  12)  ---------------------------------------


    POTLOK:  cpu time      0.1022: real time      0.1152
    SETDIJ:  cpu time      0.4092: real time      0.4102
    EDDIAG:  cpu time      0.4186: real time      0.4197
  RMM-DIIS:  cpu time      1.9691: real time      1.9743
    ORTHCH:  cpu time      0.0771: real time      0.0773
 BZINTS: Fermi energy:    1.099585;  200.000000 electrons
         Band energy:-0.141464E+04;  BLOECHL correction:    0.000000
       DOS:  cpu time      0.0023: real time      0.0025
    CHARGE:  cpu time      0.2446: real time      0.2453
    MIXING:  cpu time      0.0022: real time      0.0022
    --------------------------------------------
      LOOP:  cpu time      3.2252: real time      3.2468

 eigenvalue-minimisations  :  3254
 total energy-change (2. order) :-0.2377608E-01  (-0.1031945E-01)
 number of electron     199.9999994 magnetization       0.2737531
 augmentation part        4.0378935 magnetization       0.2923366

 Broyden mixing:
  rms(total) = 0.34958E-01    rms(broyden)= 0.34956E-01
  rms(prec ) = 0.37355E-01
  weight for this iteration     100.00

 eigenvalues of (default mixing * dielectric matrix)
  average eigenvalue GAMMA=   1.2756
  2.2434  2.2434  1.2016  1.2016  0.7760  0.6314  0.6314

 Free energy of the ion-electron system (eV)
  ---------------------------------------------------
  alpha Z        PSCENC =       180.38090441
  Ewald energy   TEWEN  =     -7816.47850740
  -Hartree energ DENC   =     -4114.03537597
  -exchange      EXHF   =         0.00000000
  -V(xc)+E(xc)   XCENC  =       207.78963958
  PAW double counting   =     14124.80945533   -13749.50218182
  entropy T*S    EENTRO =         0.00000000
  eigenvalues    EBANDS =     -1414.63671849
  atomic energy  EATOM  =     12374.49751190
  Solvation  Ediel_sol  =         0.00000000
  ---------------------------------------------------
  free energy    TOTEN  =      -207.17527247 eV

  energy without entropy =     -207.17527247  energy(sigma->0) =     -207.17527247


--------------------------------------------------------------------------------------------------------




--------------------------------------- Iteration      1(  13)  ---------------------------------------


    POTLOK:  cpu time      0.1096: real time      0.1219
    SETDIJ:  cpu time      0.4098: real time      0.4109
    EDDIAG:  cpu time      0.4379: real time      0.4393
  RMM-DIIS:  cpu time      2.1572: real time      2.1630
    ORTHCH:  cpu time      0.0760: real time      0.0761
 BZINTS: Fermi energy:    1.087820;  200.000000 electrons
         Band energy:-0.141603E+04;  BLOECHL correction:    0.000000
       DOS:  cpu time      0.0022: real time      0.0022
    CHARGE:  cpu time      0.2223: real time      0.2228
    MIXING:  cpu time      0.0021: real time      0.0021
    --------------------------------------------
      LOOP:  cpu time      3.4171: real time      3.4383

 eigenvalue-minimisations  :  3357
 total energy-change (2. order) :-0.5831496E-02  (-0.2348577E-02)
 number of electron     199.9999994 magnetization       0.1537842
 augmentation part        4.0236798 magnetization       0.1632059

 Broyden mixing:
  rms(total) = 0.19482E-01    rms(broyden)= 0.19482E-01
  rms(prec ) = 0.20785E-01
  weight for this iteration     100.00

 eigenvalues of (default mixing * dielectric matrix)
  average eigenvalue GAMMA=   1.2564
  2.4520  2.1956  1.1887  1.1201  1.1201  0.7301  0.6109  0.6334

 Free energy of the ion-electron system (eV)
  ---------------------------------------------------
  alpha Z        PSCENC =       180.38090441
  Ewald energy   TEWEN  =     -7816.47850740
  -Hartree energ DENC   =     -4112.60041467
  -exchange      EXHF   =         0.00000000
  -V(xc)+E(xc)   XCENC  =       207.71026164
  PAW double counting   =     14132.87888154   -13757.53875227
  entropy T*S    EENTRO =         0.00000000
  eigenvalues    EBANDS =     -1416.03098912
  atomic energy  EATOM  =     12374.49751190
  Solvation  Ediel_sol  =         0.00000000
  ---------------------------------------------------
  free energy    TOTEN  =      -207.18110396 eV

  energy without entropy =     -207.18110396  energy(sigma->0) =     -207.18110396


--------------------------------------------------------------------------------------------------------




--------------------------------------- Iteration      1(  14)  ---------------------------------------


    POTLOK:  cpu time      0.1117: real time      0.1243
    SETDIJ:  cpu time      0.4172: real time      0.4183
    EDDIAG:  cpu time      0.4388: real time      0.4398
  RMM-DIIS:  cpu time      2.1448: real time      2.1507
    ORTHCH:  cpu time      0.0741: real time      0.0743
 BZINTS: Fermi energy:    1.154073;  200.000000 electrons
         Band energy:-0.141646E+04;  BLOECHL correction:    0.000000
       DOS:  cpu time      0.0020: real time      0.0020
    CHARGE:  cpu time      0.2122: real time      0.2129
    MIXING:  cpu time      0.0022: real time      0.0022
    --------------------------------------------
      LOOP:  cpu time      3.4030: real time      3.4245

 eigenvalue-minimisations  :  3587
 total energy-change (2. order) :-0.1152980E-02  (-0.6063907E-03)
 number of electron     199.9999994 magnetization       0.0796695
 augmentation part        4.0203471 magnetization       0.0840661

 Broyden mixing:
  rms(total) = 0.16727E-01    rms(broyden)= 0.16727E-01
  rms(prec ) = 0.17292E-01
  weight for this iteration     100.00

[...]
   47        0.000   0.000   0.000   0.000
   48        0.000   0.000   0.000   0.000
--------------------------------------------------
tot          0.000  -0.000   0.000  -0.000
 
    CHARGE:  cpu time      0.1948: real time      0.1953
    FORLOC:  cpu time      0.0105: real time      0.0105
    FORNL :  cpu time      0.7123: real time      0.7149
    STRESS:  cpu time      1.4304: real time      1.4345
    FORCOR:  cpu time      0.1000: real time      0.1004
    FORHAR:  cpu time      0.0196: real time      0.0198
    MIXING:  cpu time      0.0022: real time      0.0022
    OFIELD:  cpu time      0.0008: real time      0.0010

  FORCE on cell =-STRESS in cart. coord.  units (eV):
  Direction    XX          YY          ZZ          XY          YZ          ZX
  --------------------------------------------------------------------------------------
  Alpha Z   180.38090   180.38090   180.38090
  Ewald   -2746.94876 -2336.86667 -2732.69358     0.00000     0.00000    -0.00000
  Hartree  1272.86314  1552.46445  1286.33777     0.00000    -0.00000    -0.00000
  E(xc)    -796.94203  -796.57284  -797.23234    -0.00000    -0.00000    -0.00000
  Local   -2088.71468 -2785.60181 -2114.36331    -0.00000    -0.00000    -0.00000
  n-local  1791.39806  1798.80816  1792.40220    -0.00010    -0.00006     0.00001
  augment    53.60614    53.75308    52.05075     0.00000     0.00000     0.00000
  Kinetic  2328.58111  2325.75841  2332.89904    -0.00005     0.00011    -0.00009
  Fock        0.00000     0.00000     0.00000     0.00000     0.00000     0.00000
  -------------------------------------------------------------------------------------
  Total      -5.77610    -7.87633    -0.21857     0.00000    -0.00000    -0.00000
  in kB      -9.03561   -12.32101    -0.34191     0.00000    -0.00000    -0.00000
  external pressure =       -7.23 kB  Pullay stress =        0.00 kB


 VOLUME and BASIS-vectors are now :
 -----------------------------------------------------------------------------
  energy-cutoff  :      680.00
  volume of cell :     1024.21
      direct lattice vectors                 reciprocal lattice vectors
     8.919519000  0.000000000  0.000000000     0.112113669  0.000000000  0.000000000
    -0.000000000  9.012627000  0.000000000     0.000000000  0.110955441  0.000000000
     0.000000000  0.000000000 12.740755000    -0.000000000 -0.000000000  0.078488284

  length of vectors
     8.919519000  9.012627000 12.740755000     0.112113669  0.110955441  0.078488284


 FORCES acting on ions
    electron-ion (+dipol)            ewald-force                    non-local-force                 convergence-correction
 -----------------------------------------------------------------------------------------------
   0.309E+02 0.101E+02 -.383E+02   -.343E+02 -.106E+02 0.432E+02   0.331E+01 0.534E+00 -.474E+01   0.531E-03 0.507E-03 0.128E-04
   -.309E+02 -.101E+02 0.383E+02   0.343E+02 0.106E+02 -.432E+02   -.331E+01 -.534E+00 0.474E+01   -.531E-03 -.507E-03 -.128E-04
   0.309E+02 -.101E+02 0.383E+02   -.343E+02 0.106E+02 -.432E+02   0.331E+01 -.534E+00 0.474E+01   0.531E-03 -.507E-03 -.128E-04
   -.309E+02 0.101E+02 -.383E+02   0.343E+02 -.106E+02 0.432E+02   -.331E+01 0.534E+00 -.474E+01   -.531E-03 0.507E-03 0.128E-04
   -.309E+02 -.101E+02 -.383E+02   0.343E+02 0.106E+02 0.432E+02   -.331E+01 -.534E+00 -.474E+01   -.531E-03 -.507E-03 0.128E-04
   0.309E+02 0.101E+02 0.383E+02   -.343E+02 -.106E+02 -.432E+02   0.331E+01 0.534E+00 0.474E+01   0.531E-03 0.507E-03 -.128E-04
   -.309E+02 0.101E+02 0.383E+02   0.343E+02 -.106E+02 -.432E+02   -.331E+01 0.534E+00 0.474E+01   -.531E-03 0.507E-03 -.128E-04
   0.309E+02 -.101E+02 -.383E+02   -.343E+02 0.106E+02 0.432E+02   0.331E+01 -.534E+00 -.474E+01   0.531E-03 -.507E-03 0.128E-04
   -.402E+02 -.111E+02 -.541E+02   0.446E+02 0.119E+02 0.601E+02   -.429E+01 -.760E+00 -.589E+01   -.684E-03 -.113E-03 -.966E-03
   0.402E+02 0.111E+02 0.541E+02   -.446E+02 -.119E+02 -.601E+02   0.429E+01 0.760E+00 0.589E+01   0.684E-03 0.113E-03 0.966E-03
   -.402E+02 0.111E+02 0.541E+02   0.446E+02 -.119E+02 -.601E+02   -.429E+01 0.760E+00 0.589E+01   -.684E-03 0.113E-03 0.966E-03
   0.402E+02 -.111E+02 -.541E+02   -.446E+02 0.119E+02 0.601E+02   0.429E+01 -.760E+00 -.589E+01   0.684E-03 -.113E-03 -.966E-03
   0.402E+02 0.111E+02 -.541E+02   -.446E+02 -.119E+02 0.601E+02   0.429E+01 0.760E+00 -.589E+01   0.684E-03 0.113E-03 -.966E-03
   -.402E+02 -.111E+02 0.541E+02   0.446E+02 0.119E+02 -.601E+02   -.429E+01 -.760E+00 0.589E+01   -.684E-03 -.113E-03 0.966E-03
   0.402E+02 -.111E+02 0.541E+02   -.446E+02 0.119E+02 -.601E+02   0.429E+01 -.760E+00 0.589E+01   0.684E-03 -.113E-03 0.966E-03
   -.402E+02 0.111E+02 -.541E+02   0.446E+02 -.119E+02 0.601E+02   -.429E+01 0.760E+00 -.589E+01   -.684E-03 0.113E-03 -.966E-03
   -.301E+02 0.404E+02 0.772E-09   0.341E+02 -.447E+02 0.140E-14   -.394E+01 0.427E+01 0.639E-16   0.333E-03 0.564E-03 -.647E-13
   0.301E+02 -.404E+02 -.772E-09   -.341E+02 0.447E+02 -.473E-15   0.394E+01 -.427E+01 -.639E-16   -.333E-03 -.564E-03 0.591E-13
   -.301E+02 -.404E+02 -.675E-08   0.341E+02 0.447E+02 0.764E-14   -.394E+01 -.427E+01 -.505E-15   0.333E-03 -.564E-03 0.508E-13
   0.301E+02 0.404E+02 0.676E-08   -.341E+02 -.447E+02 -.718E-14   0.394E+01 0.427E+01 0.505E-15   -.333E-03 0.564E-03 -.527E-13
   0.422E+02 -.521E+02 -.108E-07   -.470E+02 0.577E+02 0.730E-14   0.465E+01 -.556E+01 -.109E-15   0.111E-02 -.957E-03 -.621E-13
   -.422E+02 0.521E+02 0.108E-07   0.470E+02 -.577E+02 -.202E-14   -.465E+01 0.556E+01 0.109E-15   -.111E-02 0.957E-03 0.599E-13
   0.422E+02 0.521E+02 0.360E-08   -.470E+02 -.577E+02 -.931E-14   0.465E+01 0.556E+01 0.631E-15   0.111E-02 0.957E-03 0.485E-13
   -.422E+02 -.521E+02 -.360E-08   0.470E+02 0.577E+02 0.398E-14   -.465E+01 -.556E+01 -.631E-15   -.111E-02 -.957E-03 -.481E-13
   0.471E-13 0.413E-13 -.258E-13   -.249E-13 0.178E-13 -.107E-13   0.191E-21 -.223E-21 -.113E-21   0.105E-12 0.297E-14 0.253E-12
   -.140E-11 0.676E-12 0.196E-10   -.564E-13 0.533E-14 -.391E-13   -.124E-21 -.273E-21 0.161E-22   -.188E-12 0.204E-12 0.997E-13
   -.508E-15 -.157E-13 0.167E-11   -.355E-13 0.138E-13 0.355E-14   -.233E-21 -.230E-21 0.782E-22   0.245E-13 -.390E-13 -.161E-12
   -.828E-12 0.479E-12 -.177E-12   -.426E-13 0.266E-13 0.711E-14   0.142E-21 -.338E-21 0.509E-22   -.159E-12 0.140E-12 -.596E-14
   -.422E+02 0.729E+02 0.929E-07   0.459E+02 -.799E+02 0.428E-14   -.381E+01 0.733E+01 0.275E-15   -.357E-02 0.523E-02 -.207E-12
   0.422E+02 -.729E+02 -.929E-07   -.459E+02 0.799E+02 0.336E-14   0.381E+01 -.733E+01 -.275E-15   0.357E-02 -.523E-02 0.213E-12
   -.422E+02 -.729E+02 0.885E-07   0.459E+02 0.799E+02 0.116E-14   -.381E+01 -.733E+01 -.702E-15   -.357E-02 -.523E-02 0.254E-12
   0.422E+02 0.729E+02 -.885E-07   -.459E+02 -.799E+02 -.433E-14   0.381E+01 0.733E+01 0.702E-15   0.357E-02 0.523E-02 -.270E-12
   0.118E+02 0.143E+02 -.605E+01   -.123E+02 -.149E+02 0.616E+01   0.511E+00 0.500E+00 -.135E+00   -.454E-03 -.267E-03 -.763E-03
   -.118E+02 -.143E+02 0.605E+01   0.123E+02 0.149E+02 -.616E+01   -.511E+00 -.500E+00 0.135E+00   0.454E-03 0.267E-03 0.763E-03
   0.118E+02 -.143E+02 0.605E+01   -.123E+02 0.149E+02 -.616E+01   0.511E+00 -.500E+00 0.135E+00   -.454E-03 0.267E-03 0.763E-03
   -.118E+02 0.143E+02 -.605E+01   0.123E+02 -.149E+02 0.616E+01   -.511E+00 0.500E+00 -.135E+00   0.454E-03 -.267E-03 -.763E-03
   -.118E+02 -.143E+02 -.605E+01   0.123E+02 0.149E+02 0.616E+01   -.511E+00 -.500E+00 -.135E+00   0.454E-03 0.267E-03 -.763E-03
   0.118E+02 0.143E+02 0.605E+01   -.123E+02 -.149E+02 -.616E+01   0.511E+00 0.500E+00 0.135E+00   -.454E-03 -.267E-03 0.763E-03
   -.118E+02 0.143E+02 0.605E+01   0.123E+02 -.149E+02 -.616E+01   -.511E+00 0.500E+00 0.135E+00   0.454E-03 -.267E-03 0.763E-03
   0.118E+02 -.143E+02 -.605E+01   -.123E+02 0.149E+02 0.616E+01   0.511E+00 -.500E+00 -.135E+00   -.454E-03 0.267E-03 -.763E-03
   0.422E+01 -.249E+01 0.813E-07   -.525E+01 0.197E+01 0.720E-14   0.844E+00 0.422E+00 0.754E-16   -.156E-02 -.855E-03 -.321E-12
   -.422E+01 0.249E+01 -.813E-07   0.525E+01 -.197E+01 -.337E-14   -.844E+00 -.422E+00 -.754E-16   0.156E-02 0.855E-03 0.270E-12
   0.422E+01 0.249E+01 0.109E-06   -.525E+01 -.197E+01 0.216E-13   0.844E+00 -.422E+00 0.192E-16   -.156E-02 0.855E-03 0.416E-12
   -.422E+01 -.249E+01 -.109E-06   0.525E+01 0.197E+01 0.206E-13   -.844E+00 0.422E+00 -.192E-16   0.156E-02 -.855E-03 -.478E-12
   -.260E+02 0.524E+02 0.698E-07   0.241E+02 -.503E+02 0.351E-14   0.168E+01 -.176E+01 -.229E-16   0.969E-04 0.156E-02 0.277E-12
   0.260E+02 -.524E+02 -.698E-07   -.241E+02 0.503E+02 0.178E-13   -.168E+01 0.176E+01 0.229E-16   -.969E-04 -.156E-02 -.261E-12
   -.260E+02 -.524E+02 0.141E-06   0.241E+02 0.503E+02 0.430E-14   0.168E+01 0.176E+01 0.211E-15   0.969E-04 -.156E-02 -.306E-12
   0.260E+02 0.524E+02 -.141E-06   -.241E+02 -.503E+02 0.100E-13   -.168E+01 -.176E+01 -.211E-15   -.969E-04 0.156E-02 0.304E-12
 -----------------------------------------------------------------------------------------------
   -.673E-12 0.418E-11 -.141E-10   -.462E-13 -.142E-13 0.133E-13   0.222E-14 -.178E-14 -.278E-16   -.320E-12 0.223E-12 0.185E-12
 
 
 POSITION                                       TOTAL-FORCE (eV/Angst)
 -----------------------------------------------------------------------------------
      3.46441      3.70128      4.08648        -0.084854      0.001480      0.124691
      5.45511      5.31135      8.65427         0.084854     -0.001480     -0.124691
      7.92417      0.80503      8.65427        -0.084854     -0.001480     -0.124691
      0.99535      8.20759      4.08648         0.084854      0.001480      0.124691
      5.45511      5.31135     10.45686         0.084854     -0.001480      0.124691
      3.46441      3.70128      2.28390        -0.084854      0.001480     -0.124691
      0.99535      8.20759      2.28390         0.084854      0.001480     -0.124691
      7.92417      0.80503     10.45686        -0.084854     -0.001480      0.124691
      5.37455      5.20725      4.01452         0.112046      0.006621      0.126018
      3.54496      3.80537      8.72623        -0.112046     -0.006621     -0.126018
      0.91479      8.31169      8.72623         0.112046     -0.006621     -0.126018
      8.00472      0.70094      4.01452        -0.112046      0.006621      0.126018
      3.54496      3.80537     10.38490        -0.112046     -0.006621      0.126018
      5.37455      5.20725      2.35585         0.112046      0.006621     -0.126018
      8.00472      0.70094      2.35585        -0.112046      0.006621     -0.126018
      0.91479      8.31169     10.38490         0.112046     -0.006621      0.126018
      4.84490      2.99016      3.18519         0.091993     -0.116817     -0.000000
      4.07461      6.02246      9.55557        -0.091993      0.116817      0.000000
      0.38514      1.51615      9.55557         0.091993      0.116817      0.000000
      8.53437      7.49648      3.18519        -0.091993     -0.116817     -0.000000
      4.10432      5.89148      3.18519        -0.078089      0.123791      0.000000
      4.81520      3.12114      9.55557         0.078089     -0.123791     -0.000000
      8.56408      7.62746      9.55557        -0.078089     -0.123791     -0.000000
      0.35544      1.38517      3.18519         0.078089      0.123791      0.000000
     -0.00000      4.50631      0.00000         0.000000      0.000000      0.000000
      4.45976      0.00000      0.00000         0.000000      0.000000     -0.000000
     -0.00000      4.50631      6.37038         0.000000      0.000000      0.000000
      4.45976      0.00000      6.37038         0.000000      0.000000     -0.000000
      0.37846      8.28006      3.18519        -0.192666      0.341275      0.000000
      8.54105      0.73256      9.55557         0.192666     -0.341275     -0.000000
      4.83822      5.23888      9.55557        -0.192666     -0.341275     -0.000000
      4.08130      3.77375      3.18519         0.192666      0.341275      0.000000
      1.75891      1.79030      0.23429         0.004380     -0.006254     -0.025055
      7.16061      7.22232     12.50647        -0.004380      0.006254      0.025055
      6.21867      2.71601     12.50647         0.004380      0.006254      0.025055
      2.70085      6.29662      0.23429        -0.004380     -0.006254     -0.025055
      7.16061      7.22232      6.60467        -0.004380      0.006254     -0.025055
      1.75891      1.79030      6.13609         0.004380     -0.006254      0.025055
      2.70085      6.29662      6.13609        -0.004380     -0.006254      0.025055
      6.21867      2.71601      6.60467         0.004380      0.006254     -0.025055
      8.40278      4.30933      3.18519        -0.184011     -0.100498     -0.000000
      0.51673      4.70329      9.55557         0.184011      0.100498      0.000000
      3.94303      0.19698      9.55557        -0.184011      0.100498     -0.000000
      4.97649      8.81565      3.18519         0.184011     -0.100498      0.000000
      0.31109      8.41846      9.55557        -0.194966      0.310309      0.000000
      8.60843      0.59417      3.18519         0.194966     -0.310309     -0.000000
      4.77085      5.10048      3.18519        -0.194966     -0.310309     -0.000000
      4.14867      3.91215      9.55557         0.194966      0.310309      0.000000
 -----------------------------------------------------------------------------------
    total drift:                               -0.000000      0.000000     -0.000000


--------------------------------------------------------------------------------------------------------



  FREE ENERGIE OF THE ION-ELECTRON SYSTEM (eV)
  ---------------------------------------------------
  free  energy   TOTEN  =      -207.18317554 eV

  energy  without entropy=     -207.18317554  energy(sigma->0) =     -207.18317554
 


--------------------------------------------------------------------------------------------------------


    POTLOK:  cpu time      0.5122: real time      0.5137


--------------------------------------------------------------------------------------------------------


 writing wavefunctions
     LOOP+:  cpu time     69.7287: real time     70.2219
    4ORBIT:  cpu time      0.0000: real time      0.0000



 total charge

# of ion       s       p       d       tot
------------------------------------------
    1        0.629   0.048   0.000   0.677
    2        0.629   0.048   0.000   0.677
    3        0.629   0.048   0.000   0.677
    4        0.629   0.048   0.000   0.677
    5        0.629   0.048   0.000   0.677
    6        0.629   0.048   0.000   0.677
    7        0.629   0.048   0.000   0.677
    8        0.629   0.048   0.000   0.677
    9        0.607   0.081   0.000   0.688
   10        0.607   0.081   0.000   0.688
   11        0.607   0.081   0.000   0.688
   12        0.607   0.081   0.000   0.688
   13        0.607   0.081   0.000   0.688
   14        0.607   0.081   0.000   0.688
   15        0.607   0.081   0.000   0.688
   16        0.607   0.081   0.000   0.688
   17        0.630   0.048   0.000   0.678
   18        0.630   0.048   0.000   0.678
   19        0.630   0.048   0.000   0.678
   20        0.630   0.048   0.000   0.678
   21        0.601   0.081   0.000   0.682
   22        0.601   0.081   0.000   0.682
   23        0.601   0.081   0.000   0.682
   24        0.601   0.081   0.000   0.682
   25        1.486   0.455   9.837  11.778
   26        1.486   0.455   9.837  11.778
   27        1.486   0.455   9.837  11.778
   28        1.486   0.455   9.837  11.778
   29        0.838   1.770   0.000   2.608
   30        0.838   1.770   0.000   2.608
   31        0.838   1.770   0.000   2.608
   32        0.838   1.770   0.000   2.608
   33        1.504   2.776   0.006   4.285
   34        1.504   2.776   0.006   4.285
   35        1.504   2.776   0.006   4.285
   36        1.504   2.776   0.006   4.285
   37        1.504   2.776   0.006   4.285
   38        1.504   2.776   0.006   4.285
   39        1.504   2.776   0.006   4.285
   40        1.504   2.776   0.006   4.285
   41        1.499   2.803   0.005   4.307
   42        1.499   2.803   0.005   4.307
   43        1.499   2.803   0.005   4.307
   44        1.499   2.803   0.005   4.307
   45        1.214   2.764   0.000   3.978
   46        1.214   2.764   0.000   3.978
   47        1.214   2.764   0.000   3.978
   48        1.214   2.764   0.000   3.978
--------------------------------------------------
tot         46.984  54.922  39.417 141.323



 magnetization (x)

# of ion       s       p       d       tot
------------------------------------------
    1        0.000  -0.000   0.000   0.000
    2        0.000  -0.000   0.000   0.000
    3        0.000  -0.000   0.000   0.000
    4        0.000  -0.000   0.000   0.000
    5        0.000  -0.000   0.000   0.000
    6        0.000  -0.000   0.000   0.000
    7        0.000  -0.000   0.000   0.000
    8        0.000  -0.000   0.000   0.000
    9        0.000   0.000   0.000   0.000
   10        0.000   0.000   0.000   0.000
   11        0.000   0.000   0.000   0.000
   12        0.000   0.000   0.000   0.000
   13        0.000   0.000   0.000   0.000
   14        0.000   0.000   0.000   0.000
   15        0.000   0.000   0.000   0.000
   16        0.000   0.000   0.000   0.000
   17        0.000  -0.000   0.000   0.000
   18        0.000  -0.000   0.000   0.000
   19        0.000  -0.000   0.000   0.000
   20        0.000  -0.000   0.000   0.000
   21       -0.000   0.000   0.000   0.000
   22       -0.000   0.000   0.000   0.000
   23       -0.000   0.000   0.000   0.000
   24       -0.000   0.000   0.000   0.000
   25       -0.000   0.000  -0.000  -0.000
   26       -0.000   0.000  -0.000  -0.000
   27       -0.000   0.000  -0.000  -0.000
   28       -0.000   0.000  -0.000  -0.000
   29       -0.000  -0.000   0.000  -0.000
   30       -0.000  -0.000   0.000  -0.000
   31       -0.000  -0.000   0.000  -0.000
   32       -0.000  -0.000   0.000  -0.000
   33       -0.000   0.000   0.000  -0.000
   34       -0.000   0.000   0.000  -0.000
   35       -0.000   0.000   0.000  -0.000
   36       -0.000   0.000   0.000  -0.000
   37       -0.000   0.000   0.000  -0.000
   38       -0.000   0.000   0.000  -0.000
   39       -0.000   0.000   0.000  -0.000
   40       -0.000   0.000   0.000  -0.000
   41       -0.000   0.000   0.000   0.000
   42       -0.000   0.000   0.000   0.000
   43       -0.000   0.000   0.000   0.000
   44       -0.000   0.000   0.000   0.000
   45        0.000   0.000   0.000   0.000
   46        0.000   0.000   0.000   0.000
   47        0.000   0.000   0.000   0.000
   48        0.000   0.000   0.000   0.000
--------------------------------------------------
tot          0.000  -0.000   0.000  -0.000
 
 BZINTS: Fermi energy:    1.143519;  200.000000 electrons
         Band energy:-0.141673E+04;  BLOECHL correction:    0.000000

 total amount of memory used by VASP MPI-rank0    68716. kBytes
=======================================================================

   base      :      30000. kBytes
   nonl-proj :      15102. kBytes
   fftplans  :       4214. kBytes
   grid      :      12794. kBytes
   one-center:        155. kBytes
   wavefun   :       6451. kBytes
 
  
  
 General timing and accounting informations for this job:
 ========================================================
  
                  Total CPU time used (sec):      121.952
                            User time (sec):      108.346
                          System time (sec):       13.607
                         Elapsed time (sec):      123.437
  
                   Maximum memory used (kb):      246444.
                   Average memory used (kb):          N/A
  
                          Minor page faults:       111889
                          Major page faults:            0
                 Voluntary context switches:         2929
