 vasp.6.4.2 20Jul23 (build Mar 15 2024 16:31:38) complex                        
  
 executed on             LinuxIFC date 2025.03.19  15:27:26
 running  120 mpi-ranks, on    3 nodes
 distrk:  each k-point on  120 cores,    1 groups
 distr:  one band on NCORE=  10 cores,   12 groups


--------------------------------------------------------------------------------------------------------


 INCAR:
   ALGO = Fast
   CSHIFT = 1e-05
   EDIFF = 1e-05
   ENAUG = 1360
   ENCUT = 680
   GGA = Ps
   ICHARG = 11
   ISMEAR = -5
   ISPIN = 1
   ISYM = 2
   LAECHG = True
   LASPH = True
   LCHARG = False
   LELF = False
   LMAXMIX = 4
   LMIXTAU = True
   LOPTICS = True
   LORBIT = 11
   LREAL = False
   LVTOT = True
   LWAVE = True
   NBANDS = 72
   NCORE = 10
   NEDOS = 2000
   NELM = 200
   NSW = 0
   PREC = Accurate
   SIGMA = 0.05

 POTCAR:    PAW_PBE Sn_d 06Sep2000                
 POTCAR:    PAW_PBE S 06Sep2000                   
 WARNING: For LVTOT=.TRUE., VASP.5.x writes the TOTAL local potential to the
     file LOCPOT. If you want only the Hartree contributions, use LVHAR=.TRUE.
     instead. 

 POTCAR:    PAW_PBE Sn_d 06Sep2000                
   VRHFIN =Sn: s2p2                                                                                 
   LEXCH  = PE                                                                                      
   EATOM  =  1893.1092 eV,  139.1396 Ry                                                             
                                                                                                    
   TITEL  = PAW_PBE Sn_d 06Sep2000                                                                  
   LULTRA =        F    use ultrasoft PP ?                                                          
   IUNSCR =        1    unscreen: 0-lin 1-nonlin 2-no                                               
   RPACOR =    2.300    partial core radius                                                         
   POMASS =  118.710; ZVAL   =   14.000    mass and valenz                                          
   RCORE  =    2.500    outmost cutoff radius                                                       
   RWIGS  =    2.960; RWIGS  =    1.566    wigner-seitz radius (au A)                               
   ENMAX  =  241.083; ENMIN  =  180.812 eV                                                          
   ICORE  =        3    local potential                                                             
   LCOR   =        T    correct aug charges                                                         
   LPAW   =        T    paw PP                                                                      
   EAUG   =  439.825                                                                                
   DEXC   =    0.000                                                                                
   RMAX   =    2.560    core radius for proj-oper                                                   
   RAUG   =    1.300    factor for augmentation sphere                                              
   RDEP   =    2.659    radius for radial grids                                                     
   RDEPT  =    2.046    core radius for aug-charge                                                  
                                                                                                    
   Atomic configuration                                                                             
   12 entries                                                                                       
     n  l   j            E        occ.                                                              
     1  0  0.50    -29007.2859   2.0000                                                             
     2  0  0.50     -4378.8056   2.0000                                                             
     2  1  1.50     -3930.4293   6.0000                                                             
     3  0  0.50      -845.0264   2.0000                                                             
     3  1  1.50      -698.5725   6.0000                                                             
     3  2  2.50      -473.2839  10.0000                                                             
     4  0  0.50      -133.9036   2.0000                                                             
     4  1  1.50       -89.6752   6.0000                                                             
     4  2  2.50       -25.8375  10.0000                                                             
     5  0  0.50       -10.5484   2.0000                                                             
     5  1  0.50        -3.6940   2.0000                                                             
     4  3  2.50        -2.7416   0.0000                                                             
   Description                                                                                      
     l       E           TYP  RCUT    TYP  RCUT                                                     
     2    -25.8374624     23  2.500                                                                 
     2     -5.4423304     23  2.500                                                                 
     0    -10.5483727     23  2.500                                                                 
     0     13.6058260     23  2.500                                                                 
     1     -3.6939829     23  2.500                                                                 
     1      1.9821976     23  2.500                                                                 
     3     -1.3605826      7  2.500                                                                 
  local pseudopotential read in
  partial core-charges read in
  partial kinetic energy density read in
  atomic valenz-charges read in
  non local Contribution for L=           2  read in
    real space projection operators read in
  non local Contribution for L=           2  read in
    real space projection operators read in
  non local Contribution for L=           0  read in
    real space projection operators read in
  non local Contribution for L=           0  read in
    real space projection operators read in
  non local Contribution for L=           1  read in
    real space projection operators read in
  non local Contribution for L=           1  read in
    real space projection operators read in
    PAW grid and wavefunctions read in
 
   number of l-projection  operators is LMAX  =           6
   number of lm-projection operators is LMMAX =          18
 
 POTCAR:    PAW_PBE S 06Sep2000                   
   VRHFIN =S : s2p4                                                                                 
   LEXCH  = PE                                                                                      
   EATOM  =   276.8230 eV,   20.3459 Ry                                                             
                                                                                                    
   TITEL  = PAW_PBE S 06Sep2000                                                                     
   LULTRA =        F    use ultrasoft PP ?                                                          
   IUNSCR =        1    unscreen: 0-lin 1-nonlin 2-no                                               
   RPACOR =    1.500    partial core radius                                                         
   POMASS =   32.066; ZVAL   =    6.000    mass and valenz                                          
   RCORE  =    1.900    outmost cutoff radius                                                       
   RWIGS  =    2.200; RWIGS  =    1.164    wigner-seitz radius (au A)                               
   ENMAX  =  258.689; ENMIN  =  194.016 eV                                                          
   ICORE  =        2    local potential                                                             
   LCOR   =        T    correct aug charges                                                         
   LPAW   =        T    paw PP                                                                      
   EAUG   =  335.092                                                                                
   DEXC   =    0.000                                                                                
   RMAX   =    1.942    core radius for proj-oper                                                   
   RAUG   =    1.300    factor for augmentation sphere                                              
   RDEP   =    1.954    radius for radial grids                                                     
   RDEPT  =    1.744    core radius for aug-charge                                                  
                                                                                                    
   Atomic configuration                                                                             
    6 entries                                                                                       
     n  l   j            E        occ.                                                              
     1  0  0.50     -2405.8406   2.0000                                                             
     2  0  0.50      -211.7007   2.0000                                                             
     2  1  1.50      -156.4958   6.0000                                                             
     3  0  0.50       -17.2562   2.0000                                                             
     3  1  0.50        -7.0085   4.0000                                                             
     3  2  1.50        -6.8029   0.0000                                                             
   Description                                                                                      
     l       E           TYP  RCUT    TYP  RCUT                                                     
     0    -17.2561641     23  1.900                                                                 
     0    -15.8743224     23  1.900                                                                 
     1     -7.0085400     23  1.900                                                                 
     1     -2.7779785     23  1.900                                                                 
     2     -6.8029130     23  1.900                                                                 
  local pseudopotential read in
  partial core-charges read in
  partial kinetic energy density read in
  atomic valenz-charges read in
  non local Contribution for L=           0  read in
    real space projection operators read in
  non local Contribution for L=           0  read in
    real space projection operators read in
  non local Contribution for L=           1  read in
    real space projection operators read in
  non local Contribution for L=           1  read in
    real space projection operators read in
    PAW grid and wavefunctions read in
 
   number of l-projection  operators is LMAX  =           4
   number of lm-projection operators is LMMAX =           8
 
 -----------------------------------------------------------------------------
|                                                                             |
|               ----> ADVICE to this user running VASP <----                  |
|                                                                             |
|     You enforced a specific xc type in the INCAR file but a different       |
|     type was found in the POTCAR file.                                      |
|     I HOPE YOU KNOW WHAT YOU ARE DOING!                                     |
|                                                                             |
 -----------------------------------------------------------------------------

  PAW_PBE Sn_d 06Sep2000                :
 energy of atom  1       EATOM=-1893.1092
 kinetic energy error for atom=    0.0008 (will be added to EATOM!!)
  PAW_PBE S 06Sep2000                   :
 energy of atom  2       EATOM= -276.8230
 kinetic energy error for atom=    0.0008 (will be added to EATOM!!)
 
 
 POSCAR: Sn4 S4
  positions in direct lattice
  No initial velocities read in
 exchange correlation table for  LEXCH =       14
   RHO(1)=    0.500       N(1)  =     2000
   RHO(2)=  100.500       N(2)  =     4000
 


--------------------------------------------------------------------------------------------------------


 ion  position               nearest neighbor table
   1  0.250  0.370  0.622-   8 2.63   6 2.65   6 2.65   2 3.60   2 3.60
   2  0.750  0.630  0.378-   7 2.63   5 2.65   5 2.65   1 3.60   1 3.60
   3  0.750  0.870  0.878-   6 2.63   8 2.65   8 2.65   4 3.60   4 3.60
   4  0.250  0.130  0.122-   5 2.63   7 2.65   7 2.65   3 3.60   3 3.60
   5  0.250  0.011  0.347-   4 2.63   2 2.65   2 2.65
   6  0.750  0.989  0.653-   3 2.63   1 2.65   1 2.65
   7  0.750  0.511  0.153-   2 2.63   4 2.65   4 2.65
   8  0.250  0.489  0.847-   1 2.63   3 2.65   3 2.65
 
  LATTYP: Found a simple orthorhombic cell.
 ALAT       =     3.9568552100
 B/A-ratio  =     1.1455588970
 C/A-ratio  =     2.8790587235
  
  Lattice vectors:
  
 A1 = (   3.9568552100,   0.0000000000,   0.0000000000)
 A2 = (  -0.0000000000,   4.5328106900,   0.0000000000)
 A3 = (   0.0000000000,   0.0000000000,  11.3920185100)


Analysis of symmetry for initial positions (statically):
=====================================================================
 Subroutine PRICEL returns:
 Original cell was already a primitive cell.
 

 Routine SETGRP: Setting up the symmetry group for a 
 simple orthorhombic supercell.


 Subroutine GETGRP returns: Found  8 space group operations
 (whereof  2 operations were pure point group operations)
 out of a pool of  8 trial point group operations.


The static configuration has the point symmetry S_2 .
 The point group associated with its full space group is D_2h.


Analysis of symmetry for dynamics (positions and initial velocities):
=====================================================================
 Subroutine PRICEL returns:
 Original cell was already a primitive cell.
 

 Routine SETGRP: Setting up the symmetry group for a 
 simple orthorhombic supercell.


 Subroutine GETGRP returns: Found  8 space group operations
 (whereof  2 operations were pure point group operations)
 out of a pool of  8 trial point group operations.


The dynamic configuration has the point symmetry S_2 .
 The point group associated with its full space group is D_2h.


 Subroutine INISYM returns: Found  8 space group operations
 (whereof  2 operations are pure point group operations),
 and found     1 'primitive' translations


----------------------------------------------------------------------------------------

                                     Primitive cell                                     

  volume of cell :     204.3235

  direct lattice vectors                    reciprocal lattice vectors
     3.956855210  0.000000000  0.000000000     0.252725952  0.000000000  0.000000000
    -0.000000000  4.532810690  0.000000000     0.000000000  0.220613670  0.000000000
     0.000000000  0.000000000 11.392018510    -0.000000000 -0.000000000  0.087780756

  length of vectors
     3.956855210  4.532810690 11.392018510     0.252725952  0.220613670  0.087780756

  position of ions in fractional coordinates (direct lattice)
     0.250000000  0.369539840  0.621632750
     0.750000000  0.630460160  0.378367250
     0.750000000  0.869539840  0.878367250
     0.250000000  0.130460160  0.121632750
     0.250000000  0.010596800  0.347497460
     0.750000000  0.989403200  0.652502540
     0.750000000  0.510596800  0.152502540
     0.250000000  0.489403200  0.847497460

  ion indices of the primitive-cell ions
   primitive index   ion index
                 1           1
                 2           2
                 3           3
                 4           4
                 5           5
                 6           6
                 7           7
                 8           8

----------------------------------------------------------------------------------------

 
 
 KPOINTS: pymatgen with grid density = 971 / numbe

Automatic generation of k-mesh.
 Grid dimensions read from file:
 generate k-points for:    7    6    2

 Generating k-lattice:

  Cartesian coordinates                     Fractional coordinates (reciprocal lattice)
     0.036103707  0.000000000  0.000000000     0.142857143 -0.000000000  0.000000000
     0.000000000  0.036768945  0.000000000     0.000000000  0.166666667  0.000000000
    -0.000000000 -0.000000000  0.043890378     0.000000000 -0.000000000  0.500000000

  Length of vectors
     0.036103707  0.036768945  0.043890378

  Shift w.r.t. Gamma in fractional coordinates (k-lattice)
     0.000000000  0.000000000  0.000000000

 TETIRR: Found    252 inequivalent tetrahedra from      504
 
 Subroutine IBZKPT returns following result:
 ===========================================
 
 Found     32 irreducible k-points:
 
 Following reciprocal coordinates:
            Coordinates               Weight
  0.000000  0.000000  0.000000      1.000000
  0.142857 -0.000000  0.000000      2.000000
  0.285714  0.000000  0.000000      2.000000
  0.428571 -0.000000  0.000000      2.000000
  0.000000  0.166667  0.000000      2.000000
  0.142857  0.166667  0.000000      4.000000
  0.285714  0.166667  0.000000      4.000000
  0.428571  0.166667  0.000000      4.000000
  0.000000  0.333333  0.000000      2.000000
  0.142857  0.333333  0.000000      4.000000
  0.285714  0.333333  0.000000      4.000000
  0.428571  0.333333  0.000000      4.000000
  0.000000  0.500000  0.000000      1.000000
  0.142857  0.500000  0.000000      2.000000
  0.285714  0.500000  0.000000      2.000000
  0.428571  0.500000  0.000000      2.000000
 -0.000000  0.000000  0.500000      1.000000
  0.142857 -0.000000  0.500000      2.000000
  0.285714  0.000000  0.500000      2.000000
  0.428571 -0.000000  0.500000      2.000000
 -0.000000  0.166667  0.500000      2.000000
  0.142857  0.166667  0.500000      4.000000
  0.285714  0.166667  0.500000      4.000000
  0.428571  0.166667  0.500000      4.000000
 -0.000000  0.333333  0.500000      2.000000
  0.142857  0.333333  0.500000      4.000000
  0.285714  0.333333  0.500000      4.000000
  0.428571  0.333333  0.500000      4.000000
 -0.000000  0.500000  0.500000      1.000000
  0.142857  0.500000  0.500000      2.000000
  0.285714  0.500000  0.500000      2.000000
  0.428571  0.500000  0.500000      2.000000
 
 Following cartesian coordinates:
            Coordinates               Weight
  0.000000  0.000000  0.000000      1.000000
  0.036104  0.000000  0.000000      2.000000
  0.072207  0.000000  0.000000      2.000000
  0.108311  0.000000  0.000000      2.000000
  0.000000  0.036769  0.000000      2.000000
  0.036104  0.036769  0.000000      4.000000
  0.072207  0.036769  0.000000      4.000000
  0.108311  0.036769  0.000000      4.000000
  0.000000  0.073538  0.000000      2.000000
  0.036104  0.073538  0.000000      4.000000
  0.072207  0.073538  0.000000      4.000000
  0.108311  0.073538  0.000000      4.000000
  0.000000  0.110307  0.000000      1.000000
  0.036104  0.110307  0.000000      2.000000
  0.072207  0.110307  0.000000      2.000000
  0.108311  0.110307  0.000000      2.000000
 -0.000000 -0.000000  0.043890      1.000000
  0.036104 -0.000000  0.043890      2.000000
  0.072207  0.000000  0.043890      2.000000
  0.108311  0.000000  0.043890      2.000000
 -0.000000  0.036769  0.043890      2.000000
  0.036104  0.036769  0.043890      4.000000
  0.072207  0.036769  0.043890      4.000000
  0.108311  0.036769  0.043890      4.000000
 -0.000000  0.073538  0.043890      2.000000
  0.036104  0.073538  0.043890      4.000000
  0.072207  0.073538  0.043890      4.000000
  0.108311  0.073538  0.043890      4.000000
 -0.000000  0.110307  0.043890      1.000000
  0.036104  0.110307  0.043890      2.000000
  0.072207  0.110307  0.043890      2.000000
  0.108311  0.110307  0.043890      2.000000
 


--------------------------------------------------------------------------------------------------------




 Dimension of arrays:
   k-points           NKPTS =     32   k-points in BZ     NKDIM =     32   number of bands    NBANDS=     72
   number of dos      NEDOS =   2000   number of ions     NIONS =      8
   non local maximal  LDIM  =      6   non local SUM 2l+1 LMDIM =     18
   total plane-waves  NPLWV = 141120
   max r-space proj   IRMAX =      1   max aug-charges    IRDMAX=  31040
   dimension x,y,z NGX =    36 NGY =   40 NGZ =   98
   dimension x,y,z NGXF=    72 NGYF=   80 NGZF=  196
   support grid    NGXF=    72 NGYF=   80 NGZF=  196
   ions per type =               4   4
   NGX,Y,Z   is equivalent  to a cutoff of  15.13, 14.67, 14.30 a.u.
   NGXF,Y,Z  is equivalent  to a cutoff of  30.25, 29.34, 28.60 a.u.

 SYSTEM =  unknown system                          
 POSCAR =  Sn4 S4                                  

 Startparameter for this run:
   NWRITE =      2    write-flag & timer
   PREC   = accura    normal or accurate (medium, high low for compatibility)
   ISTART =      0    job   : 0-new  1-cont  2-samecut
   ICHARG =     11    charge: 1-file 2-atom 10-const
   ISPIN  =      1    spin polarized calculation?
   LNONCOLLINEAR =      F non collinear calculations
   LSORBIT =      F    spin-orbit coupling
   INIWAV =      1    electr: 0-lowe 1-rand  2-diag
   LASPH  =      T    aspherical Exc in radial PAW
 Electronic Relaxation 1
   ENCUT  =  680.0 eV  49.98 Ry    7.07 a.u.   8.41  9.64 24.22*2*pi/ulx,y,z
   ENINI  =  680.0     initial cutoff
   ENAUG  = 1360.0 eV  augmentation charge cutoff
   NELM   =    200;   NELMIN=  2; NELMDL= -5     # of ELM steps 
   EDIFF  = 0.1E-04   stopping-criterion for ELM
   LREAL  =      F    real-space projection
   NLSPLINE    = F    spline interpolate recip. space projectors
   LCOMPAT=      F    compatible to vasp.4.4
   GGA_COMPAT  = T    GGA compatible to vasp.4.4-vasp.4.6
   LMAXPAW     = -100 max onsite density
   LMAXMIX     =    4 max onsite mixed and CHGCAR
   VOSKOWN=      0    Vosko Wilk Nusair interpolation
   ROPT   =    0.00000   0.00000
 Ionic relaxation
   EDIFFG = 0.1E-03   stopping-criterion for IOM
   NSW    =      0    number of steps for IOM
   NBLOCK =      1;   KBLOCK =      1    inner block; outer block 
   IBRION =     -1    ionic relax: 0-MD 1-quasi-New 2-CG
   NFREE  =      0    steps in history (QN), initial steepest desc. (CG)
   ISIF   =      2    stress and relaxation
   IWAVPR =     10    prediction:  0-non 1-charg 2-wave 3-comb
   ISYM   =      2    0-nonsym 1-usesym 2-fastsym
   LCORR  =      T    Harris-Foulkes like correction to forces

   POTIM  = 0.5000    time-step for ionic-motion
   TEIN   =    0.0    initial temperature
   TEBEG  =    0.0;   TEEND  =   0.0 temperature during run
   SMASS  =  -3.00    Nose mass-parameter (am)
   estimated Nose-frequenzy (Omega)   =  0.10E-29 period in steps = 0.13E+47 mass=  -0.358E-27a.u.
   SCALEE = 1.0000    scale energy and forces
   NPACO  =    256;   APACO  = 10.0  distance and # of slots for P.C.
   PSTRESS=    0.0 pullay stress

  Mass of Ions in am
   POMASS = 118.71 32.07
  Ionic Valenz
   ZVAL   =  14.00  6.00
  Atomic Wigner-Seitz radii
   RWIGS  =  -1.00 -1.00
  virtual crystal weights 
   VCA    =   1.00  1.00
   NELECT =      80.0000    total number of electrons
   NUPDOWN=      -1.0000    fix difference up-down

 DOS related values:
   EMIN   =  10.00;   EMAX   =-10.00  energy-range for DOS
   EFERMI =   0.00;   METHOD = LEGACY      
   ISMEAR =    -5;   SIGMA  =   0.05  broadening in eV -4-tet -1-fermi 0-gaus

 Electronic relaxation 2 (details)
   IALGO  =     68    algorithm
   LDIAG  =      T    sub-space diagonalisation (order eigenvalues)
   LSUBROT=      F    optimize rotation matrix (better conditioning)
   TURBO    =      0    0=normal 1=particle mesh
   IRESTART =      0    0=no restart 2=restart with 2 vectors
   NREBOOT  =      0    no. of reboots
   NMIN     =      0    reboot dimension
   EREF     =   0.00    reference energy to select bands
   IMIX   =      4    mixing-type and parameters
     AMIX     =   0.40;   BMIX     =  1.00
     AMIX_MAG =   1.60;   BMIX_MAG =  1.00
     AMIN     =   0.10
     WC   =   100.;   INIMIX=   1;  MIXPRE=   1;  MAXMIX= -45

 Intra band minimization:
   WEIMIN = 0.0000     energy-eigenvalue tresh-hold
   EBREAK =  0.35E-07  absolut break condition
   DEPER  =   0.30     relativ break condition  

   TIME   =   0.40     timestep for ELM

  volume/ion in A,a.u.               =      25.54       172.36
  Fermi-wavevector in a.u.,A,eV,Ry     =   1.197656  2.263241 19.515916  1.434379
  Thomas-Fermi vector in A             =   2.333565
 
 Write flags
   LWAVE        =      T    write WAVECAR
   LDOWNSAMPLE  =      F    k-point downsampling of WAVECAR
   LCHARG       =      F    write CHGCAR
   LVTOT        =      T    write LOCPOT, total local potential
   LVHAR        =      F    write LOCPOT, Hartree potential only
   LELF         =      F    write electronic localiz. function (ELF)
   LORBIT       =     11    0 simple, 1 ext, 2 COOP (PROOUT), +10 PAW based schemes


 Dipole corrections
   LMONO  =      F    monopole corrections only (constant potential shift)
   LDIPOL =      F    correct potential (dipole corrections)
   IDIPOL =      0    1-x, 2-y, 3-z, 4-all directions 
   EPSILON=  1.0000000 bulk dielectric constant

 Exchange correlation treatment:
   GGA     =    PS    GGA type
   LEXCH   =    14    internal setting for exchange type
   LIBXC   =     F    Libxc                    
   VOSKOWN =     0    Vosko Wilk Nusair interpolation
   LHFCALC =     F    Hartree Fock is set to
   LHFONE  =     F    Hartree Fock one center treatment
   AEXX    =    0.0000 exact exchange contribution

 Linear response parameters
   LEPSILON=     F    determine dielectric tensor
   LRPA    =     F    only Hartree local field effects (RPA)
   LNABLA  =     F    use nabla operator in PAW spheres
   LVEL    =     F    velocity operator in full k-point grid
   CSHIFT  =0.0000    complex shift for real part using Kramers Kronig
   OMEGAMAX=  -1.0    maximum frequency
   DEG_THRESHOLD= 0.2000000E-02 threshold for treating states as degnerate
   RTIME   =   -0.100 relaxation time in fs
  (WPLASMAI=    0.000 imaginary part of plasma frequency in eV, 0.658/RTIME)
   DFIELD  = 0.0000000 0.0000000 0.0000000 field for delta impulse in time
 
  Optional k-point grid parameters
   LKPOINTS_OPT  =     F    use optional k-point grid
   KPOINTS_OPT_MODE=     1    mode for optional k-point grid
 
 Orbital magnetization related:
   ORBITALMAG=     F  switch on orbital magnetization
   LCHIMAG   =     F  perturbation theory with respect to B field
   DQ        =  0.001000  dq finite difference perturbation B field
   LLRAUG    =     F  two centre corrections for induced B field
   LBONE     =     F  B-component reconstruction in AE one-centre
   LVGVCALC  =     T  calculate vGv susceptibility
   LVGVAPPL  =     F  apply vGv susceptibility instead of pGv for G=0

 Random number generation:
   RANDOM_GENERATOR = DEFAULT
   PCG_SEED         = not used


--------------------------------------------------------------------------------------------------------


 Static calculation
 charge density and potential remain constant during run
 non-spin polarized calculation
 RMM-DIIS sequential band-by-band and
  variant of blocked Davidson during initial phase
 perform sub-space diagonalisation
    before iterative eigenvector-optimisation
 no mixing
 using additional bands           32
 reciprocal scheme for non local part
 use partial core corrections
 calculate Harris-corrections to forces 
   (improved forces if not selfconsistent)
 use gradient corrections 
 WARNING: stress and forces are not correct
  (second derivative of E(xc) not defined)
 use of overlap-Matrix (Vanderbilt PP)
 Fermi weights with tetrahedron method with Bloechl corrections


--------------------------------------------------------------------------------------------------------


  energy-cutoff  :      680.00
  volume of cell :      204.32
      direct lattice vectors                 reciprocal lattice vectors
     3.956855210  0.000000000  0.000000000     0.252725952  0.000000000  0.000000000
    -0.000000000  4.532810690  0.000000000     0.000000000  0.220613670  0.000000000
     0.000000000  0.000000000 11.392018510    -0.000000000 -0.000000000  0.087780756

  length of vectors
     3.956855210  4.532810690 11.392018510     0.252725952  0.220613670  0.087780756


 
 k-points in units of 2pi/SCALE and weight: pymatgen with grid density = 971 / numbe
   0.00000000  0.00000000  0.00000000       0.012
   0.03610371  0.00000000  0.00000000       0.024
   0.07220741  0.00000000  0.00000000       0.024
   0.10831112  0.00000000  0.00000000       0.024
   0.00000000  0.03676894  0.00000000       0.024
   0.03610371  0.03676894  0.00000000       0.048
   0.07220741  0.03676894  0.00000000       0.048
   0.10831112  0.03676894  0.00000000       0.048
   0.00000000  0.07353789  0.00000000       0.024
   0.03610371  0.07353789  0.00000000       0.048
   0.07220741  0.07353789  0.00000000       0.048
   0.10831112  0.07353789  0.00000000       0.048
   0.00000000  0.11030683  0.00000000       0.012
   0.03610371  0.11030683  0.00000000       0.024
   0.07220741  0.11030683  0.00000000       0.024
   0.10831112  0.11030683  0.00000000       0.024
  -0.00000000 -0.00000000  0.04389038       0.012
   0.03610371 -0.00000000  0.04389038       0.024
   0.07220741  0.00000000  0.04389038       0.024
   0.10831112  0.00000000  0.04389038       0.024
  -0.00000000  0.03676894  0.04389038       0.024
   0.03610371  0.03676894  0.04389038       0.048
   0.07220741  0.03676894  0.04389038       0.048
   0.10831112  0.03676894  0.04389038       0.048
  -0.00000000  0.07353789  0.04389038       0.024
   0.03610371  0.07353789  0.04389038       0.048
   0.07220741  0.07353789  0.04389038       0.048
   0.10831112  0.07353789  0.04389038       0.048
  -0.00000000  0.11030683  0.04389038       0.012
   0.03610371  0.11030683  0.04389038       0.024
   0.07220741  0.11030683  0.04389038       0.024
   0.10831112  0.11030683  0.04389038       0.024
 
 k-points in reciprocal lattice and weights: pymatgen with grid density = 971 / numbe
   0.00000000  0.00000000  0.00000000       0.012
   0.14285714 -0.00000000  0.00000000       0.024
   0.28571429  0.00000000  0.00000000       0.024
   0.42857143 -0.00000000  0.00000000       0.024
   0.00000000  0.16666667  0.00000000       0.024
   0.14285714  0.16666667  0.00000000       0.048
   0.28571429  0.16666667  0.00000000       0.048
   0.42857143  0.16666667  0.00000000       0.048
   0.00000000  0.33333333  0.00000000       0.024
   0.14285714  0.33333333  0.00000000       0.048
   0.28571429  0.33333333  0.00000000       0.048
   0.42857143  0.33333333  0.00000000       0.048
   0.00000000  0.50000000  0.00000000       0.012
   0.14285714  0.50000000  0.00000000       0.024
   0.28571429  0.50000000  0.00000000       0.024
   0.42857143  0.50000000  0.00000000       0.024
  -0.00000000  0.00000000  0.50000000       0.012
   0.14285714 -0.00000000  0.50000000       0.024
   0.28571429  0.00000000  0.50000000       0.024
   0.42857143 -0.00000000  0.50000000       0.024
  -0.00000000  0.16666667  0.50000000       0.024
   0.14285714  0.16666667  0.50000000       0.048
   0.28571429  0.16666667  0.50000000       0.048
   0.42857143  0.16666667  0.50000000       0.048
  -0.00000000  0.33333333  0.50000000       0.024
   0.14285714  0.33333333  0.50000000       0.048
   0.28571429  0.33333333  0.50000000       0.048
   0.42857143  0.33333333  0.50000000       0.048
  -0.00000000  0.50000000  0.50000000       0.012
   0.14285714  0.50000000  0.50000000       0.024
   0.28571429  0.50000000  0.50000000       0.024
   0.42857143  0.50000000  0.50000000       0.024
 
 position of ions in fractional coordinates (direct lattice) 
   0.25000000  0.36953984  0.62163275
   0.75000000  0.63046016  0.37836725
   0.75000000  0.86953984  0.87836725
   0.25000000  0.13046016  0.12163275
   0.25000000  0.01059680  0.34749746
   0.75000000  0.98940320  0.65250254
   0.75000000  0.51059680  0.15250254
   0.25000000  0.48940320  0.84749746
 
 position of ions in cartesian coordinates  (Angst):
   0.98921380  1.67505414  7.08165179
   2.96764141  2.85775655  4.31036672
   2.96764141  3.94145948 10.00637597
   0.98921380  0.59135121  1.38564254
   0.98921380  0.04803329  3.95869750
   2.96764141  4.48477740  7.43332101
   2.96764141  2.31443863  1.73731176
   0.98921380  2.21837206  9.65470675
 


--------------------------------------------------------------------------------------------------------


 k-point   1 :   0.0000 0.0000 0.0000  plane waves:    8239
 k-point   2 :   0.1429-0.0000 0.0000  plane waves:    8255
 k-point   3 :   0.2857 0.0000 0.0000  plane waves:    8233
 k-point   4 :   0.4286-0.0000 0.0000  plane waves:    8232
 k-point   5 :   0.0000 0.1667 0.0000  plane waves:    8243
 k-point   6 :   0.1429 0.1667 0.0000  plane waves:    8246
 k-point   7 :   0.2857 0.1667 0.0000  plane waves:    8224
 k-point   8 :   0.4286 0.1667 0.0000  plane waves:    8214
 k-point   9 :   0.0000 0.3333 0.0000  plane waves:    8249
 k-point  10 :   0.1429 0.3333 0.0000  plane waves:    8233
 k-point  11 :   0.2857 0.3333 0.0000  plane waves:    8209
 k-point  12 :   0.4286 0.3333 0.0000  plane waves:    8216
 k-point  13 :   0.0000 0.5000 0.0000  plane waves:    8212
 k-point  14 :   0.1429 0.5000 0.0000  plane waves:    8234
 k-point  15 :   0.2857 0.5000 0.0000  plane waves:    8224
 k-point  16 :   0.4286 0.5000 0.0000  plane waves:    8214
 k-point  17 :  -0.0000 0.0000 0.5000  plane waves:    8220
 k-point  18 :   0.1429-0.0000 0.5000  plane waves:    8236
 k-point  19 :   0.2857 0.0000 0.5000  plane waves:    8234
 k-point  20 :   0.4286-0.0000 0.5000  plane waves:    8246
 k-point  21 :  -0.0000 0.1667 0.5000  plane waves:    8232
 k-point  22 :   0.1429 0.1667 0.5000  plane waves:    8240
 k-point  23 :   0.2857 0.1667 0.5000  plane waves:    8234
 k-point  24 :   0.4286 0.1667 0.5000  plane waves:    8222
 k-point  25 :  -0.0000 0.3333 0.5000  plane waves:    8240
 k-point  26 :   0.1429 0.3333 0.5000  plane waves:    8224
 k-point  27 :   0.2857 0.3333 0.5000  plane waves:    8234
 k-point  28 :   0.4286 0.3333 0.5000  plane waves:    8206
 k-point  29 :  -0.0000 0.5000 0.5000  plane waves:    8236
 k-point  30 :   0.1429 0.5000 0.5000  plane waves:    8228
 k-point  31 :   0.2857 0.5000 0.5000  plane waves:    8220
 k-point  32 :   0.4286 0.5000 0.5000  plane waves:    8180

 maximum and minimum number of plane-waves per node :       846      800

 maximum number of plane-waves:      8255
 maximum index in each direction: 
   IXMAX=    8   IYMAX=    9   IZMAX=   24
   IXMIN=   -8   IYMIN=  -10   IZMIN=  -24


 parallel 3D FFT for wavefunctions:
    minimum data exchange during FFTs selected (reduces bandwidth)
 parallel 3D FFT for charge:
    minimum data exchange during FFTs selected (reduces bandwidth)


 total amount of memory used by VASP MPI-rank0    43013. kBytes
=======================================================================

   base      :      30000. kBytes
   nonl-proj :       7848. kBytes
   fftplans  :        982. kBytes
   grid      :       1514. kBytes
   one-center:         15. kBytes
   wavefun   :       2654. kBytes
 
     INWAV:  cpu time      0.0000: real time      0.0001
 initial charge density was supplied:
 number of electron      79.9999987 magnetization 
 keeping initial charge density in first step


--------------------------------------------------------------------------------------------------------


 Maximum index for augmentation-charges          196 (set IRDMAX)


--------------------------------------------------------------------------------------------------------


 First call to EWALD:  gamma=   0.301
 Maximum number of real-space cells 4x 3x 2
 Maximum number of reciprocal cells 2x 2x 5

    FEWALD:  cpu time      0.0031: real time      0.0031


--------------------------------------- Ionic step        1  -------------------------------------------




--------------------------------------- Iteration      1(   1)  ---------------------------------------


    POTLOK:  cpu time      0.0195: real time      0.0219
    SETDIJ:  cpu time      0.1262: real time      0.1267
     EDDAV:  cpu time      1.0895: real time      1.0966
 BZINTS: Fermi energy:   20.392366;   80.000000 electrons
         Band energy: 0.373037E+03;  BLOECHL correction:   -0.108057
       DOS:  cpu time      0.0472: real time      0.0476
    --------------------------------------------
      LOOP:  cpu time      1.2824: real time      1.2927

 eigenvalue-minimisations  :  5364
 total energy-change (2. order) : 0.9544803E+03  (-0.4077301E+04)
 number of electron      79.9999987 magnetization 
 augmentation part       79.9999987 magnetization 

 Free energy of the ion-electron system (eV)
  ---------------------------------------------------
  alpha Z        PSCENC =       164.67690988
  Ewald energy   TEWEN  =     -6009.93810534
  -Hartree energ DENC   =     -2391.60779511
  -exchange      EXHF   =         0.00000000
  -V(xc)+E(xc)   XCENC  =       280.39784118
  PAW double counting   =      9113.64370929    -9250.52643428
  entropy T*S    EENTRO =         0.00000000
  eigenvalues    EBANDS =       373.03651574
  atomic energy  EATOM  =      8674.79762248
  Solvation  Ediel_sol  =         0.00000000
  ---------------------------------------------------
  free energy    TOTEN  =       954.48026384 eV

  energy without entropy =      954.48026384  energy(sigma->0) =      954.48026384


--------------------------------------------------------------------------------------------------------




--------------------------------------- Iteration      1(   2)  ---------------------------------------


     EDDAV:  cpu time      0.9809: real time      0.9838
 BZINTS: Fermi energy:    8.304364;   80.000000 electrons
         Band energy:-0.446888E+03;  BLOECHL correction:   -0.001126
       DOS:  cpu time      0.0417: real time      0.0421
    --------------------------------------------
      LOOP:  cpu time      1.0226: real time      1.0259

 eigenvalue-minimisations  :  4608
 total energy-change (2. order) :-0.8199244E+03  (-0.7651696E+03)
 number of electron      79.9999987 magnetization 
 augmentation part       79.9999987 magnetization 

 Free energy of the ion-electron system (eV)
  ---------------------------------------------------
  alpha Z        PSCENC =       164.67690988
  Ewald energy   TEWEN  =     -6009.93810534
  -Hartree energ DENC   =     -2391.60779511
  -exchange      EXHF   =         0.00000000
  -V(xc)+E(xc)   XCENC  =       280.39784118
  PAW double counting   =      9113.64370929    -9250.52643428
  entropy T*S    EENTRO =         0.00000000
  eigenvalues    EBANDS =      -446.88784499
  atomic energy  EATOM  =      8674.79762248
  Solvation  Ediel_sol  =         0.00000000
  ---------------------------------------------------
  free energy    TOTEN  =       134.55590311 eV

  energy without entropy =      134.55590311  energy(sigma->0) =      134.55590311


--------------------------------------------------------------------------------------------------------




--------------------------------------- Iteration      1(   3)  ---------------------------------------


     EDDAV:  cpu time      1.0347: real time      1.0505
 BZINTS: Fermi energy:    5.580897;   80.000000 electrons
         Band energy:-0.609192E+03;  BLOECHL correction:    0.000000
       DOS:  cpu time      0.0314: real time      0.0314
    --------------------------------------------
      LOOP:  cpu time      1.0661: real time      1.0819

 eigenvalue-minimisations  :  5268
 total energy-change (2. order) :-0.1623040E+03  (-0.1581304E+03)
 number of electron      79.9999987 magnetization 
 augmentation part       79.9999987 magnetization 

 Free energy of the ion-electron system (eV)
  ---------------------------------------------------
  alpha Z        PSCENC =       164.67690988
  Ewald energy   TEWEN  =     -6009.93810534
  -Hartree energ DENC   =     -2391.60779511
  -exchange      EXHF   =         0.00000000
  -V(xc)+E(xc)   XCENC  =       280.39784118
  PAW double counting   =      9113.64370929    -9250.52643428
  entropy T*S    EENTRO =         0.00000000
  eigenvalues    EBANDS =      -609.19186153
  atomic energy  EATOM  =      8674.79762248
  Solvation  Ediel_sol  =         0.00000000
  ---------------------------------------------------
  free energy    TOTEN  =       -27.74811343 eV

  energy without entropy =      -27.74811343  energy(sigma->0) =      -27.74811343


--------------------------------------------------------------------------------------------------------




--------------------------------------- Iteration      1(   4)  ---------------------------------------


     EDDAV:  cpu time      1.0822: real time      1.0855
 BZINTS: Fermi energy:    5.344140;   80.000000 electrons
         Band energy:-0.619375E+03;  BLOECHL correction:    0.000000
       DOS:  cpu time      0.0292: real time      0.0293
    --------------------------------------------
      LOOP:  cpu time      1.1114: real time      1.1148

 eigenvalue-minimisations  :  5604
 total energy-change (2. order) :-0.1018290E+02  (-0.1013601E+02)
 number of electron      79.9999987 magnetization 
 augmentation part       79.9999987 magnetization 

 Free energy of the ion-electron system (eV)
  ---------------------------------------------------
  alpha Z        PSCENC =       164.67690988
  Ewald energy   TEWEN  =     -6009.93810534
  -Hartree energ DENC   =     -2391.60779511
  -exchange      EXHF   =         0.00000000
  -V(xc)+E(xc)   XCENC  =       280.39784118
  PAW double counting   =      9113.64370929    -9250.52643428
  entropy T*S    EENTRO =         0.00000000
  eigenvalues    EBANDS =      -619.37476113
  atomic energy  EATOM  =      8674.79762248
  Solvation  Ediel_sol  =         0.00000000
  ---------------------------------------------------
  free energy    TOTEN  =       -37.93101304 eV

  energy without entropy =      -37.93101304  energy(sigma->0) =      -37.93101304


--------------------------------------------------------------------------------------------------------




--------------------------------------- Iteration      1(   5)  ---------------------------------------


     EDDAV:  cpu time      1.0870: real time      1.1038
 BZINTS: Fermi energy:    5.336953;   80.000000 electrons
         Band energy:-0.619650E+03;  BLOECHL correction:    0.000000
       DOS:  cpu time      0.0292: real time      0.0292
    --------------------------------------------
      LOOP:  cpu time      1.1161: real time      1.1330

 eigenvalue-minimisations  :  5760
 total energy-change (2. order) :-0.2755303E+00  (-0.2754732E+00)
 number of electron      79.9999987 magnetization 
 augmentation part       79.9999987 magnetization 

 Free energy of the ion-electron system (eV)
  ---------------------------------------------------
  alpha Z        PSCENC =       164.67690988
  Ewald energy   TEWEN  =     -6009.93810534
  -Hartree energ DENC   =     -2391.60779511
  -exchange      EXHF   =         0.00000000
  -V(xc)+E(xc)   XCENC  =       280.39784118
  PAW double counting   =      9113.64370929    -9250.52643428
  entropy T*S    EENTRO =         0.00000000
  eigenvalues    EBANDS =      -619.65029144
  atomic energy  EATOM  =      8674.79762248
  Solvation  Ediel_sol  =         0.00000000
  ---------------------------------------------------
  free energy    TOTEN  =       -38.20654334 eV

  energy without entropy =      -38.20654334  energy(sigma->0) =      -38.20654334


--------------------------------------------------------------------------------------------------------




--------------------------------------- Iteration      1(   6)  ---------------------------------------


    EDDIAG:  cpu time      0.3337: real time      0.3498
  RMM-DIIS:  cpu time      0.3995: real time      0.4005
    ORTHCH:  cpu time      0.0428: real time      0.0429
 BZINTS: Fermi energy:    5.348906;   80.000000 electrons
         Band energy:-0.619658E+03;  BLOECHL correction:    0.000000
       DOS:  cpu time      0.0297: real time      0.0298
    --------------------------------------------
      LOOP:  cpu time      0.8056: real time      0.8231

 eigenvalue-minimisations  :  6133
 total energy-change (2. order) :-0.7578542E-02  (-0.7578542E-02)
 number of electron      79.9999987 magnetization 
 augmentation part       79.9999987 magnetization 

 Free energy of the ion-electron system (eV)
  ---------------------------------------------------
  alpha Z        PSCENC =       164.67690988
  Ewald energy   TEWEN  =     -6009.93810534
  -Hartree energ DENC   =     -2391.60779511
  -exchange      EXHF   =         0.00000000
  -V(xc)+E(xc)   XCENC  =       280.39784118
  PAW double counting   =      9113.64370929    -9250.52643428
  entropy T*S    EENTRO =         0.00000000
  eigenvalues    EBANDS =      -619.65786998
  atomic energy  EATOM  =      8674.79762248
  Solvation  Ediel_sol  =         0.00000000
  ---------------------------------------------------
  free energy    TOTEN  =       -38.21412188 eV

  energy without entropy =      -38.21412188  energy(sigma->0) =      -38.21412188


--------------------------------------------------------------------------------------------------------




--------------------------------------- Iteration      1(   7)  ---------------------------------------


    EDDIAG:  cpu time      0.2991: real time      0.3146
  RMM-DIIS:  cpu time      0.4988: real time      0.5002
    ORTHCH:  cpu time      0.0438: real time      0.0439
 BZINTS: Fermi energy:    5.344126;   80.000000 electrons
         Band energy:-0.619661E+03;  BLOECHL correction:    0.000000
       DOS:  cpu time      0.0301: real time      0.0302
    --------------------------------------------
      LOOP:  cpu time      0.8719: real time      0.8889

 eigenvalue-minimisations  :  8072
 total energy-change (2. order) :-0.3238864E-02  (-0.3241238E-02)
 number of electron      79.9999987 magnetization 
 augmentation part       79.9999987 magnetization 

 Free energy of the ion-electron system (eV)
  ---------------------------------------------------
  alpha Z        PSCENC =       164.67690988
  Ewald energy   TEWEN  =     -6009.93810534
  -Hartree energ DENC   =     -2391.60779511
  -exchange      EXHF   =         0.00000000
  -V(xc)+E(xc)   XCENC  =       280.39784118
  PAW double counting   =      9113.64370929    -9250.52643428
  entropy T*S    EENTRO =         0.00000000
  eigenvalues    EBANDS =      -619.66110884
  atomic energy  EATOM  =      8674.79762248
  Solvation  Ediel_sol  =         0.00000000
  ---------------------------------------------------
  free energy    TOTEN  =       -38.21736074 eV

  energy without entropy =      -38.21736074  energy(sigma->0) =      -38.21736074


--------------------------------------------------------------------------------------------------------




--------------------------------------- Iteration      1(   8)  ---------------------------------------


    EDDIAG:  cpu time      0.3028: real time      0.3171
  RMM-DIIS:  cpu time      0.4855: real time      0.4869
    ORTHCH:  cpu time      0.0441: real time      0.0442
 BZINTS: Fermi energy:    5.340937;   80.000000 electrons
         Band energy:-0.619661E+03;  BLOECHL correction:    0.000000
       DOS:  cpu time      0.0292: real time      0.0293
    --------------------------------------------
      LOOP:  cpu time      0.8616: real time      0.8774

 eigenvalue-minimisations  :  7883
 total energy-change (2. order) :-0.1986728E-03  (-0.1973191E-03)
 number of electron      79.9999987 magnetization 
 augmentation part       79.9999987 magnetization 

 Free energy of the ion-electron system (eV)
  ---------------------------------------------------
  alpha Z        PSCENC =       164.67690988
  Ewald energy   TEWEN  =     -6009.93810534
  -Hartree energ DENC   =     -2391.60779511
  -exchange      EXHF   =         0.00000000
  -V(xc)+E(xc)   XCENC  =       280.39784118
  PAW double counting   =      9113.64370929    -9250.52643428
  entropy T*S    EENTRO =         0.00000000
  eigenvalues    EBANDS =      -619.66130751
  atomic energy  EATOM  =      8674.79762248
  Solvation  Ediel_sol  =         0.00000000
  ---------------------------------------------------
  free energy    TOTEN  =       -38.21755941 eV

  energy without entropy =      -38.21755941  energy(sigma->0) =      -38.21755941


--------------------------------------------------------------------------------------------------------




--------------------------------------- Iteration      1(   9)  ---------------------------------------


    EDDIAG:  cpu time      0.3045: real time      0.3171
  RMM-DIIS:  cpu time      0.4624: real time      0.4636
    ORTHCH:  cpu time      0.0428: real time      0.0429
 BZINTS: Fermi energy:    5.339241;   80.000000 electrons
         Band energy:-0.619661E+03;  BLOECHL correction:    0.000000
       DOS:  cpu time      0.0308: real time      0.0312
    --------------------------------------------
      LOOP:  cpu time      0.8405: real time      0.8548

 eigenvalue-minimisations  :  7487
 total energy-change (2. order) :-0.4225697E-04  (-0.4293377E-04)
 number of electron      79.9999987 magnetization 
 augmentation part       79.9999987 magnetization 

 Free energy of the ion-electron system (eV)
  ---------------------------------------------------
  alpha Z        PSCENC =       164.67690988
  Ewald energy   TEWEN  =     -6009.93810534
  -Hartree energ DENC   =     -2391.60779511
  -exchange      EXHF   =         0.00000000
  -V(xc)+E(xc)   XCENC  =       280.39784118
  PAW double counting   =      9113.64370929    -9250.52643428
  entropy T*S    EENTRO =         0.00000000
  eigenvalues    EBANDS =      -619.66134977
  atomic energy  EATOM  =      8674.79762248
  Solvation  Ediel_sol  =         0.00000000
  ---------------------------------------------------
  free energy    TOTEN  =       -38.21760167 eV

  energy without entropy =      -38.21760167  energy(sigma->0) =      -38.21760167


--------------------------------------------------------------------------------------------------------




--------------------------------------- Iteration      1(  10)  ---------------------------------------


    EDDIAG:  cpu time      0.3019: real time      0.3176
  RMM-DIIS:  cpu time      0.3662: real time      0.3671
    ORTHCH:  cpu time      0.0427: real time      0.0428
 BZINTS: Fermi energy:    5.337381;   80.000000 electrons
         Band energy:-0.619661E+03;  BLOECHL correction:    0.000000
       DOS:  cpu time      0.0313: real time      0.0314
    --------------------------------------------
      LOOP:  cpu time      0.7422: real time      0.7589

 eigenvalue-minimisations  :  4730
 total energy-change (2. order) :-0.4110954E-05  (-0.4142911E-05)
 number of electron      79.9999987 magnetization 
 augmentation part       79.9999987 magnetization 

 Free energy of the ion-electron system (eV)
  ---------------------------------------------------
  alpha Z        PSCENC =       164.67690988
  Ewald energy   TEWEN  =     -6009.93810534
  -Hartree energ DENC   =     -2391.60779511
  -exchange      EXHF   =         0.00000000
  -V(xc)+E(xc)   XCENC  =       280.39784118
  PAW double counting   =      9113.64370929    -9250.52643428
  entropy T*S    EENTRO =         0.00000000
  eigenvalues    EBANDS =      -619.66135388
  atomic energy  EATOM  =      8674.79762248
  Solvation  Ediel_sol  =         0.00000000
  ---------------------------------------------------
  free energy    TOTEN  =       -38.21760578 eV

  energy without entropy =      -38.21760578  energy(sigma->0) =      -38.21760578


--------------------------------------------------------------------------------------------------------




 average (electrostatic) potential at core
  the test charge radii are     1.0894  0.9698
  (the norm of the test charge is              1.0000)
       1-101.0362       2-101.0362       3-101.0362       4-101.0362       5 -85.8575
       6 -85.8575       7 -85.8575       8 -85.8575
 
 
 
 E-fermi :   5.3374     XC(G=0):  -9.7522     alpha+bet :-11.0823

 Fermi energy:         5.3373814057

 k-point     1 :       0.0000    0.0000    0.0000
  band No.  band energies     occupation 
      1     -15.6702      2.00000
      2     -15.6575      2.00000
      3     -15.6488      2.00000
      4     -15.6417      2.00000
      5     -15.6378      2.00000
      6     -15.6344      2.00000
      7     -15.6323      2.00000
      8     -15.6285      2.00000
      9     -15.6175      2.00000
     10     -15.6174      2.00000
     11     -15.6075      2.00000
     12     -15.6011      2.00000
     13     -15.5983      2.00000
     14     -15.5967      2.00000
     15     -15.5778      2.00000
     16     -15.5735      2.00000
     17     -15.5660      2.00000
     18     -15.5655      2.00000
     19     -15.5612      2.00000
     20     -15.5548      2.00000
     21      -8.1968      2.00000
     22      -7.9440      2.00000
     23      -6.9473      2.00000
     24      -6.5663      2.00000
     25      -1.7850      2.00000
     26      -0.9366      2.00000
     27       0.0983      2.00000
     28       0.7844      2.00000
     29       0.8200      2.00000
     30       1.8255      2.00000
     31       2.1536      2.00000
     32       2.1962      2.00000
     33       2.2045      2.00000
     34       2.5103      2.00000
     35       3.2921      2.00000
     36       3.3967      2.00000
     37       3.6815      2.00000
     38       4.4114      2.00000
     39       4.6367      2.00000
     40       5.1478      2.00000
     41       6.5260      0.00000
     42       8.0765      0.00000
     43       8.1984      0.00000
     44       8.2761      0.00000
     45       8.5923      0.00000
     46       9.1290      0.00000
     47       9.1862      0.00000
     48      10.2209      0.00000
     49      10.4819      0.00000
     50      10.8648      0.00000
     51      10.8656      0.00000
     52      11.4489      0.00000
     53      11.6880      0.00000
     54      12.2408      0.00000
     55      12.5457      0.00000
     56      12.8308      0.00000
     57      13.0133      0.00000
     58      13.7620      0.00000
     59      13.8738      0.00000
     60      14.0560      0.00000
     61      14.2330      0.00000
     62      14.4789      0.00000
     63      14.5002      0.00000
     64      14.6553      0.00000
     65      15.3369      0.00000
     66      15.4415      0.00000
     67      15.6362      0.00000
     68      16.1730      0.00000
     69      16.3192      0.00000
     70      16.6672      0.00000
     71      16.8354      0.00000
     72      17.2299      0.00000

 k-point     2 :       0.1429   -0.0000    0.0000
  band No.  band energies     occupation 
      1     -15.6644      2.00000
      2     -15.6544      2.00000
      3     -15.6429      2.00000
      4     -15.6415      2.00000
      5     -15.6384      2.00000
      6     -15.6367      2.00000
      7     -15.6346      2.00000
      8     -15.6313      2.00000
      9     -15.6158      2.00000
     10     -15.6156      2.00000
     11     -15.6081      2.00000
     12     -15.6034      2.00000
     13     -15.5988      2.00000
     14     -15.5962      2.00000
     15     -15.5793      2.00000
     16     -15.5711      2.00000
     17     -15.5700      2.00000
     18     -15.5642      2.00000
     19     -15.5601      2.00000
     20     -15.5548      2.00000
     21      -8.0685      2.00000
     22      -7.8263      2.00000
     23      -6.8860      2.00000
     24      -6.5435      2.00000
     25      -1.8981      2.00000
     26      -1.1332      2.00000
     27       0.0356      2.00000
     28       0.2852      2.00000
     29       0.7369      2.00000
     30       1.9512      2.00000
     31       1.9741      2.00000
     32       2.2606      2.00000
     33       2.3275      2.00000
     34       2.4515      2.00000
     35       3.3351      2.00000
     36       3.4336      2.00000
     37       3.5672      2.00000
     38       4.6406      2.00000
     39       4.7292      2.00000
     40       5.0615      2.00000
     41       6.6822      0.00000
     42       7.7220      0.00000
     43       8.3844      0.00000
     44       8.3943      0.00000
     45       8.6680      0.00000
     46       8.8433      0.00000
     47       9.3750      0.00000
     48       9.4401      0.00000
     49       9.6846      0.00000
     50      10.9761      0.00000
     51      11.0461      0.00000
     52      11.1479      0.00000
     53      11.6160      0.00000
     54      11.8309      0.00000
     55      11.8642      0.00000
     56      12.1350      0.00000
     57      12.3712      0.00000
     58      13.7137      0.00000
     59      14.3081      0.00000
     60      14.3460      0.00000
     61      14.5929      0.00000
     62      14.6745      0.00000
     63      14.9315      0.00000
     64      15.4446      0.00000
     65      15.9537      0.00000
     66      16.0885      0.00000
     67      16.1956      0.00000
     68      16.4692      0.00000
     69      17.2020      0.00000
     70      17.2707      0.00000
     71      17.3728      0.00000
     72      17.4006      0.00000

 k-point     3 :       0.2857    0.0000    0.0000
  band No.  band energies     occupation 
      1     -15.6550      2.00000
      2     -15.6546      2.00000
      3     -15.6488      2.00000
      4     -15.6481      2.00000
      5     -15.6345      2.00000
      6     -15.6309      2.00000
      7     -15.6298      2.00000
      8     -15.6275      2.00000
      9     -15.6142      2.00000
     10     -15.6138      2.00000
     11     -15.6085      2.00000
     12     -15.6042      2.00000
     13     -15.6012      2.00000
     14     -15.5943      2.00000
     15     -15.5841      2.00000
     16     -15.5799      2.00000
     17     -15.5656      2.00000
     18     -15.5597      2.00000
     19     -15.5577      2.00000
     20     -15.5544      2.00000
     21      -7.7099      2.00000
     22      -7.5056      2.00000
     23      -6.7724      2.00000
     24      -6.5522      2.00000
     25      -2.1609      2.00000
     26      -1.5441      2.00000
     27      -0.7869      2.00000
     28      -0.5189      2.00000
     29       1.0167      2.00000
     30       1.9443      2.00000
     31       2.2135      2.00000
     32       2.4164      2.00000
     33       2.5203      2.00000
     34       2.6936      2.00000
     35       3.3443      2.00000
     36       3.4711      2.00000
     37       3.7354      2.00000
     38       4.5829      2.00000
     39       4.7129      2.00000
     40       5.1775      2.00000
     41       6.3830      0.00000
     42       7.0788      0.00000
     43       7.5840      0.00000
     44       7.8368      0.00000
     45       8.1452      0.00000
     46       8.5108      0.00000
     47       8.8531      0.00000
     48       9.2021      0.00000
     49       9.7914      0.00000
     50       9.9630      0.00000
     51      10.4603      0.00000
     52      10.6338      0.00000
     53      11.7876      0.00000
     54      12.1330      0.00000
     55      12.2507      0.00000
     56      12.8818      0.00000
     57      13.1182      0.00000
     58      13.1651      0.00000
     59      14.1919      0.00000
     60      14.5157      0.00000
     61      14.7175      0.00000
     62      14.8773      0.00000
     63      14.9342      0.00000
     64      15.6190      0.00000
     65      16.7463      0.00000
     66      17.3567      0.00000
     67      17.4613      0.00000
     68      17.5113      0.00000
     69      18.0423      0.00000
     70      18.2930      0.00000
     71      18.3205      0.00000
     72      18.8142      0.00000

 k-point     4 :       0.4286   -0.0000    0.0000
  band No.  band energies     occupation 
      1     -15.6583      2.00000
      2     -15.6564      2.00000
      3     -15.6550      2.00000
      4     -15.6545      2.00000
      5     -15.6281      2.00000
      6     -15.6233      2.00000
      7     -15.6225      2.00000
      8     -15.6215      2.00000
      9     -15.6138      2.00000
     10     -15.6122      2.00000
     11     -15.6112      2.00000
     12     -15.6059      2.00000
     13     -15.5968      2.00000
     14     -15.5918      2.00000
     15     -15.5896      2.00000
     16     -15.5888      2.00000
     17     -15.5592      2.00000
     18     -15.5553      2.00000
     19     -15.5551      2.00000
     20     -15.5551      2.00000
     21      -7.2139      2.00000
     22      -7.0947      2.00000
     23      -6.8009      2.00000
     24      -6.7651      2.00000
     25      -2.2259      2.00000
     26      -1.7451      2.00000
     27      -1.6764      2.00000
     28      -1.2647      2.00000
     29       1.6027      2.00000
     30       2.0439      2.00000
     31       2.4613      2.00000
     32       2.6764      2.00000
     33       2.8021      2.00000
     34       3.0516      2.00000
     35       3.0994      2.00000
     36       3.5261      2.00000
     37       4.1350      2.00000
     38       4.4207      2.00000
     39       4.4258      2.00000
     40       4.6156      2.00000
     41       6.5455      0.00000
     42       6.8630      0.00000
     43       6.9283      0.00000
     44       7.2149      0.00000
     45       7.7220      0.00000
     46       7.8973      0.00000
     47       8.3644      0.00000
     48       8.6615      0.00000
     49       9.0033      0.00000
     50       9.4653      0.00000
     51       9.9628      0.00000
     52      10.3550      0.00000
     53      12.2869      0.00000
     54      12.8059      0.00000
     55      13.2480      0.00000
     56      13.2481      0.00000
     57      14.0610      0.00000
     58      14.1648      0.00000
     59      14.2703      0.00000
     60      14.6492      0.00000
     61      15.4903      0.00000
     62      15.7362      0.00000
     63      15.8831      0.00000
     64      16.4905      0.00000
     65      16.6919      0.00000
     66      16.9611      0.00000
     67      17.3357      0.00000
     68      17.5149      0.00000
     69      17.5161      0.00000
     70      17.6759      0.00000
     71      18.0452      0.00000
     72      18.1001      0.00000

 k-point     5 :       0.0000    0.1667    0.0000
  band No.  band energies     occupation 
      1     -15.6683      2.00000
      2     -15.6564      2.00000
      3     -15.6497      2.00000
      4     -15.6424      2.00000
      5     -15.6387      2.00000
      6     -15.6345      2.00000
      7     -15.6340      2.00000
      8     -15.6292      2.00000
      9     -15.6150      2.00000
     10     -15.6143      2.00000
     11     -15.6066      2.00000
     12     -15.6008      2.00000
     13     -15.5981      2.00000
     14     -15.5972      2.00000
     15     -15.5773      2.00000
     16     -15.5729      2.00000
     17     -15.5668      2.00000
     18     -15.5647      2.00000
     19     -15.5627      2.00000
     20     -15.5555      2.00000
     21      -8.0847      2.00000
     22      -7.8385      2.00000
     23      -6.9655      2.00000
     24      -6.6240      2.00000
     25      -2.0866      2.00000
     26      -1.0988      2.00000
     27      -0.4223      2.00000
     28       0.1948      2.00000
     29       0.7950      2.00000
     30       2.1091      2.00000
     31       2.3399      2.00000
     32       2.6303      2.00000
     33       2.6326      2.00000
     34       2.8255      2.00000
     35       3.3315      2.00000
     36       3.6798      2.00000
     37       3.7951      2.00000
     38       4.2797      2.00000
     39       4.8385      2.00000
     40       5.1003      2.00000
     41       6.7183      0.00000
     42       7.4390      0.00000
     43       8.2172      0.00000
     44       8.3252      0.00000
     45       8.3440      0.00000
     46       8.7079      0.00000
     47       9.4472      0.00000
     48       9.8430      0.00000
     49       9.9127      0.00000
     50      10.6136      0.00000
     51      10.8274      0.00000
     52      11.0772      0.00000
     53      11.8028      0.00000
     54      12.0457      0.00000
     55      12.3531      0.00000
     56      12.7304      0.00000
     57      13.0186      0.00000
     58      13.4169      0.00000
     59      14.0262      0.00000
     60      14.4448      0.00000
     61      14.4480      0.00000
     62      14.9887      0.00000
     63      15.1886      0.00000
     64      15.6185      0.00000
     65      15.8300      0.00000
     66      15.8586      0.00000
     67      16.2161      0.00000
     68      16.3603      0.00000
     69      16.7726      0.00000
     70      16.9697      0.00000
     71      17.2961      0.00000
     72      18.0045      0.00000

 k-point     6 :       0.1429    0.1667    0.0000
  band No.  band energies     occupation 
      1     -15.6631      2.00000
      2     -15.6538      2.00000
      3     -15.6441      2.00000
      4     -15.6428      2.00000
      5     -15.6393      2.00000
      6     -15.6361      2.00000
      7     -15.6355      2.00000
      8     -15.6328      2.00000
      9     -15.6140      2.00000
     10     -15.6124      2.00000
     11     -15.6069      2.00000
     12     -15.6031      2.00000
     13     -15.5998      2.00000
     14     -15.5955      2.00000
     15     -15.5787      2.00000
     16     -15.5708      2.00000
     17     -15.5706      2.00000
     18     -15.5634      2.00000
     19     -15.5617      2.00000
     20     -15.5551      2.00000
     21      -7.9595      2.00000
     22      -7.7244      2.00000
     23      -6.9020      2.00000
     24      -6.5937      2.00000
     25      -2.0927      2.00000
     26      -1.1857      2.00000
     27      -0.4675      2.00000
     28       0.0024      2.00000
     29       0.8332      2.00000
     30       1.5522      2.00000
     31       1.8241      2.00000
     32       2.5689      2.00000
     33       2.8911      2.00000
     34       2.9293      2.00000
     35       3.1079      2.00000
     36       3.3895      2.00000
     37       4.0704      2.00000
     38       4.3404      2.00000
     39       5.0106      2.00000
     40       5.1006      2.00000
     41       6.8611      0.00000
     42       7.5325      0.00000
     43       7.9428      0.00000
     44       8.1905      0.00000
     45       8.5390      0.00000
     46       8.5661      0.00000
     47       9.3632      0.00000
     48       9.6273      0.00000
     49       9.6408      0.00000
     50      10.3815      0.00000
     51      10.4213      0.00000
     52      11.3149      0.00000
     53      11.7227      0.00000
     54      12.3589      0.00000
     55      12.6189      0.00000
     56      12.7249      0.00000
     57      12.8674      0.00000
     58      13.9078      0.00000
     59      14.0958      0.00000
     60      14.2252      0.00000
     61      14.3318      0.00000
     62      14.6514      0.00000
     63      15.2210      0.00000
     64      15.3076      0.00000
     65      15.7401      0.00000
     66      16.4985      0.00000
     67      16.8218      0.00000
     68      17.0112      0.00000
     69      17.0779      0.00000
     70      17.3593      0.00000
     71      17.8379      0.00000
     72      18.0070      0.00000

 k-point     7 :       0.2857    0.1667    0.0000
  band No.  band energies     occupation 
      1     -15.6578      2.00000
      2     -15.6532      2.00000
      3     -15.6511      2.00000
      4     -15.6492      2.00000
      5     -15.6356      2.00000
      6     -15.6307      2.00000
      7     -15.6305      2.00000
      8     -15.6276      2.00000
      9     -15.6133      2.00000
     10     -15.6107      2.00000
     11     -15.6086      2.00000
     12     -15.6030      2.00000
     13     -15.6010      2.00000
     14     -15.5939      2.00000
     15     -15.5832      2.00000
     16     -15.5796      2.00000
     17     -15.5657      2.00000
     18     -15.5594      2.00000
     19     -15.5590      2.00000
     20     -15.5538      2.00000
     21      -7.6127      2.00000
     22      -7.4165      2.00000
     23      -6.7781      2.00000
     24      -6.5756      2.00000
     25      -2.1457      2.00000
     26      -1.4539      2.00000
     27      -0.8511      2.00000
     28      -0.6568      2.00000
     29       1.1498      2.00000
     30       1.1756      2.00000
     31       1.5549      2.00000
     32       2.2387      2.00000
     33       2.8267      2.00000
     34       3.1410      2.00000
     35       3.1499      2.00000
     36       3.2829      2.00000
     37       3.8754      2.00000
     38       4.4742      2.00000
     39       4.7973      2.00000
     40       4.8117      2.00000
     41       6.9310      0.00000
     42       7.1507      0.00000
     43       7.3412      0.00000
     44       7.6308      0.00000
     45       8.4429      0.00000
     46       8.8235      0.00000
     47       9.2803      0.00000
     48       9.6516      0.00000
     49       9.6993      0.00000
     50       9.8961      0.00000
     51      10.5413      0.00000
     52      11.1357      0.00000
     53      11.4612      0.00000
     54      12.6990      0.00000
     55      12.7745      0.00000
     56      13.0242      0.00000
     57      13.0295      0.00000
     58      13.6004      0.00000
     59      13.6787      0.00000
     60      14.3790      0.00000
     61      14.5945      0.00000
     62      15.2078      0.00000
     63      15.9003      0.00000
     64      16.0270      0.00000
     65      16.6545      0.00000
     66      16.8275      0.00000
     67      16.9228      0.00000
     68      17.0080      0.00000
     69      18.0180      0.00000
     70      18.1240      0.00000
     71      18.4195      0.00000
     72      18.7199      0.00000

 k-point     8 :       0.4286    0.1667    0.0000
  band No.  band energies     occupation 
      1     -15.6611      2.00000
      2     -15.6591      2.00000
      3     -15.6563      2.00000
      4     -15.6560      2.00000
      5     -15.6288      2.00000
      6     -15.6243      2.00000
      7     -15.6225      2.00000
      8     -15.6217      2.00000
      9     -15.6123      2.00000
     10     -15.6115      2.00000
     11     -15.6093      2.00000
     12     -15.6048      2.00000
     13     -15.5964      2.00000
     14     -15.5930      2.00000
     15     -15.5871      2.00000
     16     -15.5868      2.00000
     17     -15.5599      2.00000
     18     -15.5574      2.00000
     19     -15.5545      2.00000
     20     -15.5532      2.00000
     21      -7.1438      2.00000
     22      -7.0329      2.00000
     23      -6.7783      2.00000
     24      -6.7409      2.00000
     25      -2.1038      2.00000
     26      -1.6451      2.00000
     27      -1.5846      2.00000
     28      -1.2541      2.00000
     29       1.4196      2.00000
     30       1.6066      2.00000
     31       1.8352      2.00000
     32       2.3672      2.00000
     33       2.3993      2.00000
     34       2.7503      2.00000
     35       3.2067      2.00000
     36       3.3956      2.00000
     37       3.5666      2.00000
     38       4.0687      2.00000
     39       4.6346      2.00000
     40       4.6895      2.00000
     41       6.5503      0.00000
     42       6.6851      0.00000
     43       7.3499      0.00000
     44       7.6852      0.00000
     45       8.5440      0.00000
     46       8.6784      0.00000
     47       9.1660      0.00000
     48       9.3373      0.00000
     49       9.6119      0.00000
     50       9.6829      0.00000
     51      10.1600      0.00000
     52      10.2251      0.00000
     53      11.5703      0.00000
     54      11.9286      0.00000
     55      13.3558      0.00000
     56      13.5058      0.00000
     57      14.2402      0.00000
     58      14.4292      0.00000
     59      14.7981      0.00000
     60      14.9936      0.00000
     61      15.2047      0.00000
     62      15.8452      0.00000
     63      16.1798      0.00000
     64      16.2382      0.00000
     65      16.8880      0.00000
     66      17.0699      0.00000
     67      17.3870      0.00000
     68      17.5807      0.00000
     69      17.9556      0.00000
     70      18.0906      0.00000
     71      18.5548      0.00000
     72      18.5981      0.00000

 k-point     9 :       0.0000    0.3333    0.0000
  band No.  band energies     occupation 
      1     -15.6634      2.00000
      2     -15.6534      2.00000
      3     -15.6525      2.00000
      4     -15.6449      2.00000
      5     -15.6400      2.00000
      6     -15.6375      2.00000
      7     -15.6344      2.00000
      8     -15.6312      2.00000
      9     -15.6088      2.00000
     10     -15.6078      2.00000
     11     -15.6043      2.00000
     12     -15.6011      2.00000
     13     -15.5988      2.00000
     14     -15.5984      2.00000
     15     -15.5757      2.00000
     16     -15.5712      2.00000
     17     -15.5691      2.00000
     18     -15.5660      2.00000
     19     -15.5626      2.00000
     20     -15.5573      2.00000
     21      -7.7797      2.00000
     22      -7.5503      2.00000
     23      -7.0858      2.00000
     24      -6.8243      2.00000
     25      -2.4221      2.00000
     26      -1.5015      2.00000
     27      -1.3051      2.00000
     28      -0.5359      2.00000
     29       1.1415      2.00000
     30       2.4545      2.00000
     31       2.7004      2.00000
     32       2.9463      2.00000
     33       3.3041      2.00000
     34       3.3460      2.00000
     35       3.3843      2.00000
     36       3.5950      2.00000
     37       3.9303      2.00000
     38       4.8363      2.00000
     39       5.0153      2.00000
     40       5.2717      2.00000
     41       6.7046      0.00000
     42       7.3397      0.00000
     43       7.3726      0.00000
     44       7.8367      0.00000
     45       8.0926      0.00000
     46       8.3264      0.00000
     47       8.8530      0.00000
     48       9.3198      0.00000
     49       9.6686      0.00000
     50      10.0721      0.00000
     51      10.2389      0.00000
     52      11.1823      0.00000
     53      11.9617      0.00000
     54      12.5181      0.00000
     55      12.9194      0.00000
     56      13.2458      0.00000
     57      13.3193      0.00000
     58      13.3286      0.00000
     59      14.1162      0.00000
     60      14.4557      0.00000
     61      14.8952      0.00000
     62      15.2882      0.00000
     63      16.0234      0.00000
     64      16.2442      0.00000
     65      16.3732      0.00000
     66      16.7252      0.00000
     67      16.7537      0.00000
     68      16.9062      0.00000
     69      17.6534      0.00000
     70      17.6836      0.00000
     71      17.8825      0.00000
     72      18.4010      0.00000

 k-point    10 :       0.1429    0.3333    0.0000
  band No.  band energies     occupation 
      1     -15.6592      2.00000
      2     -15.6518      2.00000
      3     -15.6483      2.00000
      4     -15.6455      2.00000
      5     -15.6402      2.00000
      6     -15.6377      2.00000
      7     -15.6360      2.00000
      8     -15.6351      2.00000
      9     -15.6096      2.00000
     10     -15.6065      2.00000
     11     -15.6040      2.00000
     12     -15.6033      2.00000
     13     -15.6004      2.00000
     14     -15.5956      2.00000
     15     -15.5769      2.00000
     16     -15.5721      2.00000
     17     -15.5697      2.00000
     18     -15.5648      2.00000
     19     -15.5614      2.00000
     20     -15.5564      2.00000
     21      -7.6652      2.00000
     22      -7.4481      2.00000
     23      -7.0117      2.00000
     24      -6.7720      2.00000
     25      -2.3198      2.00000
     26      -1.4218      2.00000
     27      -1.2593      2.00000
     28      -0.5636      2.00000
     29       1.2531      2.00000
     30       1.6618      2.00000
     31       1.8886      2.00000
     32       2.7163      2.00000
     33       2.7489      2.00000
     34       2.9985      2.00000
     35       3.3511      2.00000
     36       3.6746      2.00000
     37       4.2410      2.00000
     38       4.5030      2.00000
     39       5.0492      2.00000
     40       5.1657      2.00000
     41       7.1700      0.00000
     42       7.3963      0.00000
     43       7.5014      0.00000
     44       7.7655      0.00000
     45       8.4276      0.00000
     46       8.5942      0.00000
     47       9.0065      0.00000
     48       9.3816      0.00000
     49      10.0123      0.00000
     50      10.0420      0.00000
     51      10.2551      0.00000
     52      11.1691      0.00000
     53      11.8251      0.00000
     54      12.8730      0.00000
     55      12.9272      0.00000
     56      13.1016      0.00000
     57      13.2353      0.00000
     58      13.9400      0.00000
     59      13.9576      0.00000
     60      14.8757      0.00000
     61      15.2667      0.00000
     62      15.3741      0.00000
     63      15.7581      0.00000
     64      15.8794      0.00000
     65      16.5206      0.00000
     66      16.5843      0.00000
     67      16.7621      0.00000
     68      16.8513      0.00000
     69      17.3346      0.00000
     70      17.8613      0.00000
     71      18.0368      0.00000
     72      18.2555      0.00000

 k-point    11 :       0.2857    0.3333    0.0000
  band No.  band energies     occupation 
      1     -15.6603      2.00000
      2     -15.6561      2.00000
      3     -15.6531      2.00000
      4     -15.6514      2.00000
      5     -15.6364      2.00000
      6     -15.6324      2.00000
      7     -15.6303      2.00000
      8     -15.6284      2.00000
      9     -15.6107      2.00000
     10     -15.6088      2.00000
     11     -15.6056      2.00000
     12     -15.6004      2.00000
     13     -15.5994      2.00000
     14     -15.5943      2.00000
     15     -15.5810      2.00000
     16     -15.5789      2.00000
     17     -15.5655      2.00000
     18     -15.5621      2.00000
     19     -15.5572      2.00000
     20     -15.5539      2.00000
     21      -7.3575      2.00000
     22      -7.1825      2.00000
     23      -6.8464      2.00000
     24      -6.6784      2.00000
     25      -2.0750      2.00000
     26      -1.3011      2.00000
     27      -1.2530      2.00000
     28      -0.8163      2.00000
     29       0.7867      2.00000
     30       1.1961      2.00000
     31       1.4574      2.00000
     32       1.8130      2.00000
     33       2.1682      2.00000
     34       2.8110      2.00000
     35       2.9363      2.00000
     36       3.5053      2.00000
     37       3.6105      2.00000
     38       4.2638      2.00000
     39       4.5100      2.00000
     40       4.7203      2.00000
     41       6.6372      0.00000
     42       7.8957      0.00000
     43       8.3097      0.00000
     44       8.5286      0.00000
     45       8.7144      0.00000
     46       8.9938      0.00000
     47       9.6685      0.00000
     48       9.8871      0.00000
     49      10.0650      0.00000
     50      10.2101      0.00000
[...]
   37.414427    0.780143    0.778879    0.775526    0.000000   -0.000000   -0.000000
   37.435352    0.780500    0.779246    0.775890    0.000000   -0.000000   -0.000000
   37.456277    0.780855    0.779611    0.776254    0.000000   -0.000000   -0.000000
   37.477203    0.781209    0.779975    0.776615    0.000000   -0.000000   -0.000000
   37.498128    0.781562    0.780337    0.776976    0.000000   -0.000000   -0.000000
   37.519053    0.781913    0.780697    0.777334    0.000000   -0.000000   -0.000000
   37.539979    0.782262    0.781056    0.777691    0.000000   -0.000000   -0.000000
   37.560904    0.782610    0.781414    0.778047    0.000000   -0.000000   -0.000000
   37.581829    0.782957    0.781770    0.778401    0.000000   -0.000000   -0.000000
   37.602755    0.783303    0.782124    0.778754    0.000000   -0.000000   -0.000000
   37.623680    0.783646    0.782477    0.779105    0.000000   -0.000000   -0.000000
   37.644605    0.783989    0.782828    0.779455    0.000000   -0.000000   -0.000000
   37.665530    0.784330    0.783178    0.779804    0.000000   -0.000000   -0.000000
   37.686456    0.784670    0.783527    0.780151    0.000000   -0.000000   -0.000000
   37.707381    0.785008    0.783874    0.780496    0.000000   -0.000000   -0.000000
   37.728306    0.785346    0.784219    0.780841    0.000000   -0.000000   -0.000000
   37.749232    0.785681    0.784563    0.781184    0.000000   -0.000000   -0.000000
   37.770157    0.786016    0.784906    0.781525    0.000000   -0.000000   -0.000000
   37.791082    0.786349    0.785248    0.781866    0.000000   -0.000000   -0.000000
   37.812008    0.786681    0.785588    0.782205    0.000000   -0.000000   -0.000000
   37.832933    0.787012    0.785927    0.782542    0.000000   -0.000000   -0.000000
   37.853858    0.787341    0.786264    0.782879    0.000000   -0.000000   -0.000000
   37.874783    0.787669    0.786600    0.783214    0.000000   -0.000000   -0.000000
   37.895709    0.787996    0.786935    0.783548    0.000000   -0.000000   -0.000000
   37.916634    0.788322    0.787268    0.783881    0.000000   -0.000000   -0.000000
   37.937559    0.788646    0.787600    0.784212    0.000000   -0.000000   -0.000000
   37.958485    0.788970    0.787931    0.784542    0.000000   -0.000000   -0.000000
   37.979410    0.789292    0.788261    0.784871    0.000000   -0.000000   -0.000000
   38.000335    0.789613    0.788589    0.785199    0.000000   -0.000000   -0.000000
   38.021260    0.789932    0.788916    0.785525    0.000000   -0.000000   -0.000000
   38.042186    0.790251    0.789242    0.785851    0.000000   -0.000000   -0.000000
   38.063111    0.790568    0.789567    0.786175    0.000000   -0.000000   -0.000000
   38.084036    0.790885    0.789890    0.786498    0.000000   -0.000000   -0.000000
   38.104962    0.791200    0.790213    0.786820    0.000000   -0.000000   -0.000000
   38.125887    0.791514    0.790534    0.787140    0.000000   -0.000000   -0.000000
   38.146812    0.791827    0.790854    0.787460    0.000000   -0.000000   -0.000000
   38.167738    0.792139    0.791172    0.787778    0.000000   -0.000000   -0.000000
   38.188663    0.792449    0.791490    0.788096    0.000000   -0.000000   -0.000000
   38.209588    0.792759    0.791806    0.788412    0.000000   -0.000000   -0.000000
   38.230513    0.793068    0.792122    0.788727    0.000000   -0.000000   -0.000000
   38.251439    0.793375    0.792436    0.789041    0.000000   -0.000000   -0.000000
   38.272364    0.793682    0.792749    0.789354    0.000000   -0.000000   -0.000000
   38.293289    0.793987    0.793061    0.789666    0.000000   -0.000000   -0.000000
   38.314215    0.794292    0.793371    0.789976    0.000000   -0.000000   -0.000000
   38.335140    0.794595    0.793681    0.790286    0.000000   -0.000000   -0.000000
   38.356065    0.794897    0.793990    0.790595    0.000000   -0.000000   -0.000000
   38.376990    0.795199    0.794297    0.790902    0.000000   -0.000000   -0.000000
   38.397916    0.795499    0.794604    0.791209    0.000000   -0.000000   -0.000000
   38.418841    0.795798    0.794909    0.791515    0.000000   -0.000000   -0.000000
   38.439766    0.796096    0.795214    0.791819    0.000000   -0.000000   -0.000000
   38.460692    0.796394    0.795517    0.792123    0.000000   -0.000000   -0.000000
   38.481617    0.796690    0.795820    0.792425    0.000000   -0.000000   -0.000000
   38.502542    0.796986    0.796121    0.792727    0.000000   -0.000000   -0.000000
   38.523468    0.797280    0.796421    0.793027    0.000000   -0.000000   -0.000000
   38.544393    0.797573    0.796720    0.793327    0.000000   -0.000000   -0.000000
   38.565318    0.797866    0.797019    0.793626    0.000000   -0.000000   -0.000000
   38.586243    0.798157    0.797316    0.793923    0.000000   -0.000000   -0.000000
   38.607169    0.798448    0.797612    0.794220    0.000000   -0.000000   -0.000000
   38.628094    0.798738    0.797908    0.794516    0.000000   -0.000000   -0.000000
   38.649019    0.799027    0.798202    0.794811    0.000000   -0.000000   -0.000000
   38.669945    0.799315    0.798496    0.795104    0.000000   -0.000000   -0.000000
   38.690870    0.799601    0.798788    0.795397    0.000000   -0.000000   -0.000000
   38.711795    0.799888    0.799080    0.795689    0.000000   -0.000000   -0.000000
   38.732720    0.800173    0.799370    0.795981    0.000000   -0.000000   -0.000000
   38.753646    0.800457    0.799660    0.796271    0.000000   -0.000000   -0.000000
   38.774571    0.800740    0.799948    0.796560    0.000000   -0.000000   -0.000000
   38.795496    0.801023    0.800236    0.796848    0.000000   -0.000000   -0.000000
   38.816422    0.801305    0.800523    0.797136    0.000000   -0.000000   -0.000000
   38.837347    0.801585    0.800809    0.797423    0.000000   -0.000000   -0.000000
   38.858272    0.801865    0.801094    0.797708    0.000000   -0.000000   -0.000000
   38.879198    0.802144    0.801378    0.797993    0.000000   -0.000000   -0.000000
   38.900123    0.802423    0.801662    0.798277    0.000000   -0.000000   -0.000000
   38.921048    0.802700    0.801944    0.798560    0.000000   -0.000000   -0.000000
   38.941973    0.802977    0.802226    0.798843    0.000000   -0.000000   -0.000000
   38.962899    0.803252    0.802506    0.799124    0.000000   -0.000000   -0.000000
   38.983824    0.803527    0.802786    0.799405    0.000000   -0.000000   -0.000000
   39.004749    0.803801    0.803065    0.799684    0.000000   -0.000000   -0.000000
   39.025675    0.804075    0.803343    0.799963    0.000000   -0.000000   -0.000000
   39.046600    0.804347    0.803620    0.800241    0.000000   -0.000000   -0.000000
   39.067525    0.804619    0.803897    0.800519    0.000000   -0.000000   -0.000000
   39.088450    0.804889    0.804172    0.800795    0.000000   -0.000000   -0.000000
   39.109376    0.805160    0.804447    0.801071    0.000000   -0.000000   -0.000000
   39.130301    0.805429    0.804721    0.801346    0.000000   -0.000000   -0.000000
   39.151226    0.805697    0.804994    0.801620    0.000000   -0.000000   -0.000000
   39.172152    0.805965    0.805266    0.801893    0.000000   -0.000000   -0.000000
   39.193077    0.806232    0.805538    0.802165    0.000000   -0.000000   -0.000000
   39.214002    0.806498    0.805808    0.802437    0.000000   -0.000000   -0.000000
   39.234928    0.806764    0.806078    0.802708    0.000000   -0.000000   -0.000000
   39.255853    0.807028    0.806347    0.802978    0.000000   -0.000000   -0.000000
   39.276778    0.807292    0.806616    0.803248    0.000000   -0.000000   -0.000000
   39.297703    0.807555    0.806883    0.803516    0.000000   -0.000000   -0.000000
   39.318629    0.807818    0.807150    0.803784    0.000000   -0.000000   -0.000000
   39.339554    0.808079    0.807416    0.804051    0.000000   -0.000000   -0.000000
   39.360479    0.808340    0.807681    0.804317    0.000000   -0.000000   -0.000000
   39.381405    0.808600    0.807945    0.804583    0.000000   -0.000000   -0.000000
   39.402330    0.808860    0.808209    0.804848    0.000000   -0.000000   -0.000000
   39.423255    0.809119    0.808472    0.805112    0.000000   -0.000000   -0.000000
   39.444180    0.809377    0.808734    0.805375    0.000000   -0.000000   -0.000000
   39.465106    0.809634    0.808995    0.805638    0.000000   -0.000000   -0.000000
   39.486031    0.809891    0.809256    0.805900    0.000000   -0.000000   -0.000000
   39.506956    0.810146    0.809516    0.806161    0.000000   -0.000000   -0.000000
   39.527882    0.810402    0.809775    0.806421    0.000000   -0.000000   -0.000000
   39.548807    0.810656    0.810034    0.806681    0.000000   -0.000000   -0.000000
   39.569732    0.810910    0.810291    0.806940    0.000000   -0.000000   -0.000000
   39.590658    0.811163    0.810549    0.807198    0.000000   -0.000000   -0.000000
   39.611583    0.811415    0.810805    0.807456    0.000000   -0.000000   -0.000000
   39.632508    0.811667    0.811060    0.807713    0.000000   -0.000000   -0.000000
   39.653433    0.811918    0.811315    0.807969    0.000000   -0.000000   -0.000000
   39.674359    0.812169    0.811570    0.808225    0.000000   -0.000000   -0.000000
   39.695284    0.812418    0.811823    0.808479    0.000000   -0.000000   -0.000000
   39.716209    0.812667    0.812076    0.808734    0.000000   -0.000000   -0.000000
   39.737135    0.812916    0.812328    0.808987    0.000000   -0.000000   -0.000000
   39.758060    0.813164    0.812579    0.809240    0.000000   -0.000000   -0.000000
   39.778985    0.813411    0.812830    0.809492    0.000000   -0.000000   -0.000000
   39.799911    0.813657    0.813080    0.809744    0.000000   -0.000000   -0.000000
   39.820836    0.813903    0.813330    0.809994    0.000000   -0.000000   -0.000000
   39.841761    0.814148    0.813578    0.810245    0.000000   -0.000000   -0.000000
   39.862686    0.814392    0.813826    0.810494    0.000000   -0.000000   -0.000000
   39.883612    0.814636    0.814074    0.810743    0.000000   -0.000000   -0.000000
   39.904537    0.814879    0.814320    0.810991    0.000000   -0.000000   -0.000000
   39.925462    0.815122    0.814566    0.811239    0.000000   -0.000000   -0.000000
   39.946388    0.815364    0.814812    0.811486    0.000000   -0.000000   -0.000000
   39.967313    0.815605    0.815057    0.811732    0.000000   -0.000000   -0.000000
   39.988238    0.815846    0.815301    0.811977    0.000000   -0.000000   -0.000000
   40.009163    0.816086    0.815544    0.812222    0.000000   -0.000000   -0.000000
   40.030089    0.816325    0.815787    0.812467    0.000000   -0.000000   -0.000000
   40.051014    0.816564    0.816029    0.812711    0.000000   -0.000000   -0.000000
   40.071939    0.816803    0.816271    0.812954    0.000000   -0.000000   -0.000000
   40.092865    0.817040    0.816512    0.813196    0.000000   -0.000000   -0.000000
   40.113790    0.817277    0.816752    0.813438    0.000000   -0.000000   -0.000000
   40.134715    0.817514    0.816992    0.813679    0.000000   -0.000000   -0.000000
   40.155641    0.817749    0.817231    0.813920    0.000000   -0.000000   -0.000000
   40.176566    0.817985    0.817469    0.814160    0.000000   -0.000000   -0.000000
   40.197491    0.818219    0.817707    0.814399    0.000000   -0.000000   -0.000000
   40.218416    0.818453    0.817944    0.814638    0.000000   -0.000000   -0.000000
   40.239342    0.818687    0.818181    0.814877    0.000000   -0.000000   -0.000000
   40.260267    0.818920    0.818417    0.815114    0.000000   -0.000000   -0.000000
   40.281192    0.819152    0.818652    0.815351    0.000000   -0.000000   -0.000000
   40.302118    0.819384    0.818887    0.815588    0.000000   -0.000000   -0.000000
   40.323043    0.819615    0.819122    0.815824    0.000000   -0.000000   -0.000000
   40.343968    0.819846    0.819355    0.816059    0.000000   -0.000000   -0.000000
   40.364893    0.820076    0.819588    0.816294    0.000000   -0.000000   -0.000000
   40.385819    0.820305    0.819821    0.816528    0.000000   -0.000000   -0.000000
   40.406744    0.820534    0.820053    0.816761    0.000000   -0.000000   -0.000000
   40.427669    0.820762    0.820284    0.816994    0.000000   -0.000000   -0.000000
   40.448595    0.820990    0.820515    0.817227    0.000000   -0.000000   -0.000000
   40.469520    0.821217    0.820745    0.817459    0.000000   -0.000000   -0.000000
   40.490445    0.821444    0.820974    0.817690    0.000000   -0.000000   -0.000000
   40.511371    0.821670    0.821203    0.817921    0.000000   -0.000000   -0.000000
   40.532296    0.821896    0.821432    0.818151    0.000000   -0.000000   -0.000000
   40.553221    0.822121    0.821660    0.818381    0.000000   -0.000000   -0.000000
   40.574146    0.822345    0.821887    0.818610    0.000000   -0.000000   -0.000000
   40.595072    0.822569    0.822114    0.818838    0.000000   -0.000000   -0.000000
   40.615997    0.822792    0.822340    0.819066    0.000000   -0.000000   -0.000000
   40.636922    0.823015    0.822566    0.819294    0.000000   -0.000000   -0.000000
   40.657848    0.823238    0.822791    0.819521    0.000000   -0.000000   -0.000000
   40.678773    0.823459    0.823015    0.819747    0.000000   -0.000000   -0.000000
   40.699698    0.823681    0.823239    0.819973    0.000000   -0.000000   -0.000000
   40.720623    0.823901    0.823463    0.820198    0.000000   -0.000000   -0.000000
   40.741549    0.824122    0.823686    0.820423    0.000000   -0.000000   -0.000000
   40.762474    0.824341    0.823908    0.820647    0.000000   -0.000000   -0.000000
   40.783399    0.824561    0.824130    0.820871    0.000000   -0.000000   -0.000000
   40.804325    0.824779    0.824352    0.821094    0.000000   -0.000000   -0.000000
   40.825250    0.824997    0.824572    0.821316    0.000000   -0.000000   -0.000000
   40.846175    0.825215    0.824793    0.821539    0.000000   -0.000000   -0.000000
   40.867101    0.825432    0.825012    0.821760    0.000000   -0.000000   -0.000000
   40.888026    0.825649    0.825232    0.821981    0.000000   -0.000000   -0.000000
   40.908951    0.825865    0.825450    0.822202    0.000000   -0.000000   -0.000000
   40.929876    0.826081    0.825669    0.822422    0.000000   -0.000000   -0.000000
   40.950802    0.826296    0.825886    0.822641    0.000000   -0.000000   -0.000000
   40.971727    0.826511    0.826103    0.822860    0.000000   -0.000000   -0.000000
   40.992652    0.826725    0.826320    0.823079    0.000000   -0.000000   -0.000000
   41.013578    0.826938    0.826536    0.823297    0.000000   -0.000000   -0.000000
   41.034503    0.827152    0.826752    0.823515    0.000000   -0.000000   -0.000000
   41.055428    0.827364    0.826967    0.823732    0.000000   -0.000000   -0.000000
   41.076353    0.827576    0.827182    0.823948    0.000000   -0.000000   -0.000000
   41.097279    0.827788    0.827396    0.824164    0.000000   -0.000000   -0.000000
   41.118204    0.827999    0.827609    0.824380    0.000000   -0.000000   -0.000000
   41.139129    0.828210    0.827823    0.824595    0.000000   -0.000000   -0.000000
   41.160055    0.828420    0.828035    0.824809    0.000000   -0.000000   -0.000000
   41.180980    0.828630    0.828247    0.825023    0.000000   -0.000000   -0.000000
   41.201905    0.828839    0.828459    0.825237    0.000000   -0.000000   -0.000000
   41.222831    0.829048    0.828670    0.825450    0.000000   -0.000000   -0.000000
   41.243756    0.829257    0.828881    0.825663    0.000000   -0.000000   -0.000000
   41.264681    0.829465    0.829091    0.825875    0.000000   -0.000000   -0.000000
   41.285606    0.829672    0.829301    0.826087    0.000000   -0.000000   -0.000000
   41.306532    0.829879    0.829510    0.826298    0.000000   -0.000000   -0.000000
   41.327457    0.830086    0.829719    0.826509    0.000000   -0.000000   -0.000000
   41.348382    0.830292    0.829927    0.826719    0.000000   -0.000000   -0.000000
   41.369308    0.830497    0.830135    0.826929    0.000000   -0.000000   -0.000000
   41.390233    0.830702    0.830343    0.827138    0.000000   -0.000000   -0.000000
   41.411158    0.830907    0.830550    0.827347    0.000000   -0.000000   -0.000000
   41.432083    0.831111    0.830756    0.827555    0.000000   -0.000000   -0.000000
   41.453009    0.831315    0.830962    0.827763    0.000000   -0.000000   -0.000000
   41.473934    0.831518    0.831168    0.827971    0.000000   -0.000000   -0.000000
   41.494859    0.831721    0.831373    0.828178    0.000000   -0.000000   -0.000000
   41.515785    0.831924    0.831577    0.828384    0.000000   -0.000000   -0.000000
   41.536710    0.832126    0.831781    0.828590    0.000000   -0.000000   -0.000000
   41.557635    0.832327    0.831985    0.828796    0.000000   -0.000000   -0.000000
   41.578561    0.832528    0.832188    0.829001    0.000000   -0.000000   -0.000000
   41.599486    0.832729    0.832391    0.829206    0.000000   -0.000000   -0.000000
   41.620411    0.832929    0.832594    0.829410    0.000000   -0.000000   -0.000000
   41.641336    0.833129    0.832795    0.829614    0.000000   -0.000000   -0.000000
   41.662262    0.833328    0.832997    0.829818    0.000000   -0.000000   -0.000000
   41.683187    0.833527    0.833198    0.830021    0.000000   -0.000000   -0.000000
   41.704112    0.833726    0.833398    0.830223    0.000000   -0.000000   -0.000000
   41.725038    0.833924    0.833599    0.830425    0.000000   -0.000000   -0.000000
   41.745963    0.834122    0.833798    0.830627    0.000000   -0.000000   -0.000000
   41.766888    0.834319    0.833998    0.830828    0.000000   -0.000000   -0.000000
   41.787813    0.834516    0.834196    0.831029    0.000000   -0.000000   -0.000000
   41.808739    0.834712    0.834395    0.831230    0.000000   -0.000000   -0.000000
   41.829664    0.834908    0.834593    0.831430    0.000000   -0.000000   -0.000000
 
 The outermost node in the dielectric function lies at epsilon=  17.7


--------------------------------------------------------------------------------------------------------


    OPTICS:  cpu time     28.2507: real time     28.3267
    4ORBIT:  cpu time      0.0000: real time      0.0000



 total charge

# of ion       s       p       d       tot
------------------------------------------
    1        1.332   0.760  10.006  12.098
    2        1.332   0.760  10.006  12.098
    3        1.332   0.760  10.006  12.098
    4        1.332   0.760  10.006  12.098
    5        1.347   2.318   0.000   3.665
    6        1.347   2.318   0.000   3.665
    7        1.347   2.318   0.000   3.665
    8        1.347   2.318   0.000   3.665
--------------------------------------------------
tot         10.719  12.314  40.023  63.055
 
 BZINTS: Fermi energy:    5.337381;   80.000000 electrons
         Band energy:-0.619661E+03;  BLOECHL correction:    0.000000

 total amount of memory used by VASP MPI-rank0    43013. kBytes
=======================================================================

   base      :      30000. kBytes
   nonl-proj :       7848. kBytes
   fftplans  :        982. kBytes
   grid      :       1514. kBytes
   one-center:         15. kBytes
   wavefun   :       2654. kBytes
 
  
  
 General timing and accounting informations for this job:
 ========================================================
  
                  Total CPU time used (sec):       59.427
                            User time (sec):       54.878
                          System time (sec):        4.549
                         Elapsed time (sec):       60.472
  
                   Maximum memory used (kb):      266880.
                   Average memory used (kb):          N/A
  
                          Minor page faults:        58893
                          Major page faults:            0
                 Voluntary context switches:         2387
