<?xml version="1.0" encoding="ISO-8859-1"?>
<modeling>
 <generator>
  <i name="program" type="string">vasp </i>
  <i name="version" type="string">6.4.2  </i>
  <i name="subversion" type="string">20Jul23 (build Mar 15 2024 16:31:38) complex                          parallel </i>
  <i name="platform" type="string">LinuxIFC </i>
  <i name="date" type="string">2025 03 27 </i>
  <i name="time" type="string">15:10:02 </i>
 </generator>
 <incar>
  <i type="string" name="PREC">Accurate</i>
  <i type="string" name="ALGO">Fast</i>
  <i type="int" name="ISPIN">     1</i>
  <i type="int" name="ICHARG">    11</i>
  <i type="int" name="NELM">   200</i>
  <i name="EDIFF">      0.00001000</i>
  <i type="int" name="NSW">     0</i>
  <i type="int" name="ISYM">     2</i>
  <i name="ENCUT">    680.00000000</i>
  <i name="ENAUG">   1360.00000000</i>
  <i type="int" name="NBANDS">    29</i>
  <i type="int" name="NEDOS">  1565</i>
  <i type="logical" name="LREAL"> F  </i>
  <i type="int" name="ISMEAR">    -5</i>
  <i name="SIGMA">      0.05000000</i>
  <i type="int" name="LMAXMIX">     4</i>
  <i type="logical" name="LWAVE"> F  </i>
  <i type="logical" name="LCHARG"> F  </i>
  <i type="logical" name="LVTOT"> T  </i>
  <i type="int" name="LORBIT">    11</i>
  <i type="logical" name="LELF"> F  </i>
  <i type="logical" name="LASPH"> T  </i>
  <i type="logical" name="LAECHG"> T  </i>
  <i type="string" name="GGA">Ps</i>
  <i type="logical" name="LMIXTAU"> T  </i>
 </incar>
 <primitive_cell>
  <structure name="primitive_cell" >
   <crystal>
    <varray name="basis" >
     <v>       4.01975093       0.00000000       2.32080404 </v>
     <v>       1.33991663       3.78985854       2.32080404 </v>
     <v>       0.00000000       0.00000000       4.64161015 </v>
    </varray>
    <i name="volume">     70.71162285 </i>
    <varray name="rec_basis" >
     <v>       0.24877163      -0.08795401       0.00000000 </v>
     <v>       0.00000000       0.26386209       0.00000000 </v>
     <v>      -0.12438576      -0.08795400       0.21544248 </v>
    </varray>
   </crystal>
   <varray name="positions" >
    <v>       0.00000000       0.00000000       0.00000000 </v>
    <v>       0.25000000       0.25000000       0.25000000 </v>
   </varray>
  </structure>
  <varray name="primitive_index" >
   <v type="int" >        1 </v>
   <v type="int" >        2 </v>
  </varray>
 </primitive_cell>
 <kpoints>
  <generation param="Gamma">
   <v type="int" name="divisions">       7        7        7 </v>
   <v name="usershift">      0.00000000       0.00000000       0.00000000 </v>
   <v name="genvec1">      0.14285714      -0.00000000       0.00000000 </v>
   <v name="genvec2">      0.00000000       0.14285714       0.00000000 </v>
   <v name="genvec3">      0.00000000      -0.00000000       0.14285714 </v>
   <v name="shift">      0.00000000       0.00000000       0.00000000 </v>
  </generation>
  <varray name="kpointlist" >
   <v>       0.00000000       0.00000000       0.00000000 </v>
   <v>       0.14285714      -0.00000000       0.00000000 </v>
   <v>       0.28571429       0.00000000       0.00000000 </v>
   <v>       0.42857143       0.00000000       0.00000000 </v>
   <v>       0.14285714       0.14285714       0.00000000 </v>
   <v>       0.28571429       0.14285714       0.00000000 </v>
   <v>       0.42857143       0.14285714       0.00000000 </v>
   <v>      -0.42857143       0.14285714       0.00000000 </v>
   <v>      -0.28571429       0.14285714       0.00000000 </v>
   <v>      -0.14285714       0.14285714       0.00000000 </v>
   <v>       0.28571429       0.28571429       0.00000000 </v>
   <v>       0.42857143       0.28571429       0.00000000 </v>
   <v>      -0.42857143       0.28571429       0.00000000 </v>
   <v>      -0.28571429       0.28571429       0.00000000 </v>
   <v>       0.42857143       0.42857143       0.00000000 </v>
   <v>      -0.42857143       0.42857143       0.00000000 </v>
   <v>       0.42857143       0.28571429       0.14285714 </v>
   <v>      -0.42857143       0.28571429       0.14285714 </v>
   <v>      -0.42857143       0.42857143       0.14285714 </v>
   <v>      -0.28571429       0.42857143       0.14285714 </v>
  </varray>
  <varray name="weights" >
   <v>       0.00291545 </v>
   <v>       0.02332362 </v>
   <v>       0.02332362 </v>
   <v>       0.02332362 </v>
   <v>       0.01749271 </v>
   <v>       0.06997085 </v>
   <v>       0.06997085 </v>
   <v>       0.06997085 </v>
   <v>       0.06997085 </v>
   <v>       0.03498542 </v>
   <v>       0.01749271 </v>
   <v>       0.06997085 </v>
   <v>       0.06997085 </v>
   <v>       0.03498542 </v>
   <v>       0.01749271 </v>
   <v>       0.03498542 </v>
   <v>       0.06997085 </v>
   <v>       0.13994169 </v>
   <v>       0.06997085 </v>
   <v>       0.06997085 </v>
  </varray>
  <varray name="tetrahedronlist"  type="int" >
   <v type="int" >       48        2        3        6       10 </v>
   <v type="int" >       48        6        9       10       17 </v>
   <v type="int" >       24        9        9       10       17 </v>
   <v type="int" >       48        3        6        9       10 </v>
   <v type="int" >       48        9       14       17       18 </v>
   <v type="int" >       48        8        9       14       18 </v>
   <v type="int" >       24        9        9       14       17 </v>
   <v type="int" >       48        8       13       18       18 </v>
   <v type="int" >       48        7        8       13       18 </v>
   <v type="int" >       48        8       13       14       18 </v>
   <v type="int" >       48        7       12       17       18 </v>
   <v type="int" >       48        6        7       12       17 </v>
   <v type="int" >       48        7       12       13       18 </v>
   <v type="int" >       24        6        6       11       17 </v>
   <v type="int" >       24        5        6        6       11 </v>
   <v type="int" >       48        6       11       12       17 </v>
   <v type="int" >       24        5        6        6       10 </v>
   <v type="int" >       48        2        5        6       10 </v>
   <v type="int" >       48        6        7        9       17 </v>
   <v type="int" >       48        3        6        7        9 </v>
   <v type="int" >       48       12       17       18       19 </v>
   <v type="int" >       24       17       18       18       19 </v>
   <v type="int" >       24       14       17       18       18 </v>
   <v type="int" >       48        7        9       17       18 </v>
   <v type="int" >       48       18       19       20       20 </v>
   <v type="int" >       24       18       18       20       20 </v>
   <v type="int" >       48       13       18       18       20 </v>
   <v type="int" >       24       18       18       19       20 </v>
   <v type="int" >       24       14       18       18       20 </v>
   <v type="int" >       48       13       14       18       20 </v>
   <v type="int" >       48       13       18       19       20 </v>
   <v type="int" >       48       12       13       18       19 </v>
   <v type="int" >       24       12       12       17       19 </v>
   <v type="int" >       24       11       12       12       17 </v>
   <v type="int" >       24        6        6       10       17 </v>
   <v type="int" >       48       12       13       16       19 </v>
   <v type="int" >       24       16       19       19       20 </v>
   <v type="int" >       12       19       19       20       20 </v>
   <v type="int" >       24       19       20       20       20 </v>
   <v type="int" >       48       13       16       19       20 </v>
   <v type="int" >        6       20       20       20       20 </v>
   <v type="int" >       48        7        8        8       18 </v>
   <v type="int" >       48        7        8        9       18 </v>
   <v type="int" >       24       13       13       16       20 </v>
   <v type="int" >       24        8        8       18       18 </v>
   <v type="int" >       24        2        2        5       10 </v>
   <v type="int" >       48        3        4        7        9 </v>
   <v type="int" >       48        4        7        8        9 </v>
   <v type="int" >       24       13       13       14       20 </v>
   <v type="int" >       24       12       12       15       19 </v>
   <v type="int" >       24       11       12       12       15 </v>
   <v type="int" >       48       12       15       16       19 </v>
   <v type="int" >       48        4        7        8        8 </v>
   <v type="int" >       12       16       16       19       19 </v>
   <v type="int" >       24       15       16       16       19 </v>
   <v type="int" >       24        4        4        8        8 </v>
   <v type="int" >       12       15       15       16       16 </v>
   <v type="int" >       24        1        2        2        5 </v>
  </varray>
  <i name="volumeweight">      0.00048591 </i>
 </kpoints>
 <parameters>
  <separator name="general" >
   <i type="string" name="SYSTEM">unknown system</i>
   <i type="logical" name="LCOMPAT"> F  </i>
  </separator>
  <separator name="electronic" >
   <i type="string" name="PREC">accura</i>
   <i name="ENMAX">    680.00000000</i>
   <i name="ENAUG">   1360.00000000</i>
   <i name="EDIFF">      0.00001000</i>
   <i type="int" name="IALGO">    68</i>
   <i type="int" name="IWAVPR">    10</i>
   <i type="int" name="NBANDS">    36</i>
   <i type="int" name="NBANDSLOW">    -1</i>
   <i type="int" name="NBANDSHIGH">    -1</i>
   <i name="NELECT">     18.00000000</i>
   <i type="int" name="TURBO">     0</i>
   <i type="int" name="IRESTART">     0</i>
   <i type="int" name="NREBOOT">     0</i>
   <i type="int" name="NMIN">     0</i>
   <i name="EREF">      0.00000000</i>
   <separator name="electronic smearing" >
    <i type="int" name="ISMEAR">    -5</i>
    <i name="SIGMA">      0.05000000</i>
    <i name="KSPACING">      0.50000000</i>
    <i type="logical" name="KGAMMA"> T  </i>
    <i type="logical" name="KBLOWUP"> T  </i>
   </separator>
   <separator name="electronic projectors" >
    <i type="logical" name="LREAL"> F  </i>
    <v name="ROPT">      0.00000000      0.00000000</v>
    <i type="int" name="LMAXPAW">  -100</i>
    <i type="int" name="LMAXMIX">     4</i>
    <i type="logical" name="NLSPLINE"> F  </i>
   </separator>
   <separator name="electronic startup" >
    <i type="int" name="ISTART">     0</i>
    <i type="int" name="ICHARG">    11</i>
    <i type="int" name="INIWAV">     1</i>
   </separator>
   <separator name="electronic spin" >
    <i type="int" name="ISPIN">     1</i>
    <i type="logical" name="LNONCOLLINEAR"> F  </i>
    <v name="MAGMOM">      1.00000000      1.00000000</v>
    <i name="NUPDOWN">     -1.00000000</i>
    <i type="logical" name="LSORBIT"> F  </i>
    <v name="SAXIS">      0.00000000      0.00000000      1.00000000</v>
    <i type="logical" name="LSPIRAL"> F  </i>
    <v name="QSPIRAL">      0.00000000      0.00000000      0.00000000</v>
    <i type="logical" name="LZEROZ"> F  </i>
   </separator>
   <separator name="electronic exchange-correlation" >
    <i type="logical" name="LASPH"> T  </i>
    <i type="logical" name="LMETAGGA"> F  </i>
   </separator>
   <separator name="electronic convergence" >
    <i type="int" name="NELM">   200</i>
    <i type="int" name="NELMDL">    -5</i>
    <i type="int" name="NELMIN">     2</i>
    <i name="ENINI">    680.00000000</i>
    <separator name="electronic convergence detail" >
     <i type="logical" name="LDIAG"> T  </i>
     <i type="logical" name="LSUBROT"> F  </i>
     <i name="WEIMIN">      0.00000000</i>
     <i name="EBREAK">      0.00000007</i>
     <i name="DEPER">      0.30000000</i>
     <i type="int" name="NRMM">     4</i>
     <i name="TIME">      0.40000000</i>
    </separator>
   </separator>
   <separator name="electronic mixer" >
    <i name="AMIX">      0.40000000</i>
    <i name="BMIX">      1.00000000</i>
    <i name="AMIN">      0.10000000</i>
    <i name="AMIX_MAG">      1.60000000</i>
    <i name="BMIX_MAG">      1.00000000</i>
    <separator name="electronic mixer details" >
     <i type="int" name="IMIX">     4</i>
     <i type="logical" name="MIXFIRST"> F  </i>
     <i type="int" name="MAXMIX">   -45</i>
     <i name="WC">    100.00000000</i>
     <i type="int" name="INIMIX">     1</i>
     <i type="int" name="MIXPRE">     1</i>
     <i type="int" name="MREMOVE">     5</i>
    </separator>
   </separator>
   <separator name="electronic dipolcorrection" >
    <i type="logical" name="LDIPOL"> F  </i>
    <i type="logical" name="LMONO"> F  </i>
    <i type="int" name="IDIPOL">     0</i>
    <i name="EPSILON">      1.00000000</i>
    <v name="DIPOL">   -100.00000000   -100.00000000   -100.00000000</v>
    <i name="EFIELD">      0.00000000</i>
   </separator>
  </separator>
  <separator name="grids" >
   <i type="int" name="NGX">    40</i>
   <i type="int" name="NGY">    40</i>
   <i type="int" name="NGZ">    40</i>
   <i type="int" name="NGXF">    80</i>
   <i type="int" name="NGYF">    80</i>
   <i type="int" name="NGZF">    80</i>
   <i type="logical" name="ADDGRID"> F  </i>
  </separator>
  <separator name="ionic" >
   <i type="int" name="NSW">     0</i>
   <i type="int" name="IBRION">    -1</i>
   <i type="int" name="MDALGO">     0</i>
   <i type="int" name="ISIF">     2</i>
   <i name="PSTRESS">      0.00000000</i>
   <i name="EDIFFG">      0.00010000</i>
   <i type="int" name="NFREE">     0</i>
   <i name="POTIM">      0.50000000</i>
   <i name="SMASS">     -3.00000000</i>
   <i name="SCALEE">      1.00000000</i>
  </separator>
  <separator name="ionic md" >
   <i name="TEBEG">      0.00010000</i>
   <i name="TEEND">      0.00010000</i>
   <i type="int" name="NBLOCK">     1</i>
   <i type="int" name="KBLOCK">     1</i>
   <i type="int" name="NPACO">   256</i>
   <i name="APACO">     10.00000000</i>
  </separator>
  <separator name="symmetry" >
   <i type="int" name="ISYM">     2</i>
   <i name="SYMPREC">      0.00001000</i>
  </separator>
  <separator name="dos" >
   <i type="int" name="LORBIT">    11</i>
   <v name="RWIGS">     -1.00000000     -1.00000000</v>
   <i type="int" name="NEDOS">  1565</i>
   <i name="EMIN">     10.00000000</i>
   <i name="EMAX">    -10.00000000</i>
   <i name="EFERMI">      0.00000000</i>
  </separator>
  <separator name="writing" >
   <i type="int" name="NWRITE">     2</i>
   <i type="logical" name="LWAVE"> F  </i>
   <i type="logical" name="LDOWNSAMPLE"> F  </i>
   <i type="logical" name="LCHARG"> F  </i>
   <i type="logical" name="LPARD"> F  </i>
   <i type="logical" name="LVTOT"> T  </i>
   <i type="logical" name="LVHAR"> F  </i>
   <i type="logical" name="LELF"> F  </i>
   <i type="logical" name="LOPTICS"> F  </i>
   <v name="STM">      0.00000000      0.00000000      0.00000000      0.00000000      0.00000000      0.00000000      0.00000000</v>
  </separator>
  <separator name="performance" >
   <i type="int" name="NPAR">    12</i>
   <i type="int" name="NSIM">     4</i>
   <i type="int" name="NBLK">    -1</i>
   <i type="logical" name="LPLANE"> T  </i>
   <i type="logical" name="LSCALAPACK"> T  </i>
   <i type="logical" name="LSCAAWARE"> T  </i>
   <i type="logical" name="LSCALU"> F  </i>
   <i type="logical" name="LASYNC"> F  </i>
   <i type="logical" name="LORBITALREAL"> F  </i>
  </separator>
  <separator name="miscellaneous" >
   <i type="int" name="IDIOT">     3</i>
   <i type="int" name="PHON_NSTRUCT">    -1</i>
   <i type="logical" name="LMUSIC"> F  </i>
   <v name="POMASS">    112.41100000    127.60000000</v>
   <v name="DARWINR">      0.00000000      0.00000000</v>
   <v name="DARWINV">      1.00000000      1.00000000</v>
   <i type="logical" name="LCORR"> T  </i>
  </separator>
  <i type="logical" name="GGA_COMPAT"> T  </i>
  <i type="logical" name="LBERRY"> F  </i>
  <i type="int" name="ICORELEVEL">     0</i>
  <i type="logical" name="LDAU"> F  </i>
  <i type="int" name="I_CONSTRAINED_M">     0</i>
  <separator name="electronic exchange-correlation" >
   <i type="string" name="GGA">PS</i>
   <i type="int" name="VOSKOWN">     0</i>
   <i type="logical" name="LHFCALC"> F  </i>
   <i type="string" name="PRECFOCK"></i>
   <i type="logical" name="LSYMGRAD"> F  </i>
   <i type="logical" name="LHFONE"> F  </i>
   <i type="logical" name="LRHFCALC"> F  </i>
   <i type="logical" name="LTHOMAS"> F  </i>
   <i type="logical" name="LMODELHF"> F  </i>
   <i type="logical" name="LFOCKACE"> F  </i>
   <i name="ENCUT4O">     -1.00000000</i>
   <i type="int" name="EXXOEP">     0</i>
   <i type="int" name="FOURORBIT">     0</i>
   <i name="AEXX">      0.00000000</i>
   <i name="HFALPHA">      0.00000000</i>
   <i name="MCALPHA">      0.00000000</i>
   <i name="ALDAX">      1.00000000</i>
   <i name="AGGAX">      1.00000000</i>
   <i name="ALDAC">      1.00000000</i>
   <i name="AGGAC">      1.00000000</i>
   <i type="int" name="NKREDX">     1</i>
   <i type="int" name="NKREDY">     1</i>
   <i type="int" name="NKREDZ">     1</i>
   <i type="logical" name="SHIFTRED"> F  </i>
   <i type="logical" name="ODDONLY"> F  </i>
   <i type="logical" name="EVENONLY"> F  </i>
   <i type="int" name="LMAXFOCK">     0</i>
   <i type="int" name="NMAXFOCKAE">     0</i>
   <i type="logical" name="LFOCKAEDFT"> F  </i>
   <i name="HFSCREEN">      0.00000000</i>
   <i name="HFSCREENC">      0.00000000</i>
   <i type="int" name="NBANDSGWLOW">     0</i>
  </separator>
  <separator name="vdW DFT" >
   <i type="logical" name="LUSE_VDW"> F  </i>
   <i type="int" name="IVDW_NL">     1</i>
   <i type="logical" name="LSPIN_VDW"> F  </i>
   <i name="Zab_VDW">     -0.84910000</i>
   <i name="PARAM1">      0.12340000</i>
   <i name="PARAM2">      1.00000000</i>
   <i name="PARAM3">      0.00000000</i>
  </separator>
  <separator name="model GW" >
   <i type="int" name="MODEL_GW">     0</i>
   <i name="MODEL_EPS0">     21.21348685</i>
   <i name="MODEL_ALPHA">      1.00000000</i>
  </separator>
  <separator name="linear response parameters" >
   <i type="logical" name="LEPSILON"> F  </i>
   <i type="logical" name="LRPA"> F  </i>
   <i type="logical" name="LNABLA"> F  </i>
   <i type="logical" name="LVEL"> F  </i>
   <i name="CSHIFT">      0.10000000</i>
   <i name="OMEGAMAX">     -1.00000000</i>
   <i name="DEG_THRESHOLD">      0.00200000</i>
   <i name="RTIME">     -0.10000000</i>
   <i name="WPLASMAI">      0.00000000</i>
   <v name="DFIELD">      0.00000000      0.00000000      0.00000000</v>
   <v name="WPLASMA">      0.00000000      0.00000000      0.00000000      0.00000000      0.00000000      0.00000000      0.00000000      0.00000000      0.00000000</v>
  </separator>
  <separator name="orbital magnetization" >
   <i type="logical" name="NUCIND"> F  </i>
   <v name="MAGPOS">      0.00000000      0.00000000      0.00000000</v>
   <i type="logical" name="LNICSALL"> T  </i>
   <i type="logical" name="ORBITALMAG"> F  </i>
   <i type="logical" name="LMAGBLOCH"> F  </i>
   <i type="logical" name="LCHIMAG"> F  </i>
   <i type="logical" name="LGAUGE"> T  </i>
   <i type="int" name="MAGATOM">     0</i>
   <v name="MAGDIPOL">      0.00000000      0.00000000      0.00000000</v>
   <v name="AVECCONST">      0.00000000      0.00000000      0.00000000</v>
  </separator>
  <separator name="response functions" >
   <i type="logical" name="LALL_IN_ONE"> F  </i>
   <i type="int" name="IALL_IN_ONE">    -1</i>
   <i type="int" name="NBANDS_WAVE">    -1</i>
   <i type="logical" name="LFINITE_TEMPERATURE"> F  </i>
   <i type="logical" name="LADDER"> F  </i>
   <i type="logical" name="LRPAFORCE"> F  </i>
   <i type="logical" name="LFXC"> F  </i>
   <i type="logical" name="LHARTREE"> T  </i>
   <i type="int" name="IBSE">     0</i>
   <v type="int" name="KPOINT">    -1     0     0     0</v>
   <i type="logical" name="LTCTC"> F  </i>
   <i type="logical" name="LTCTE"> F  </i>
   <i type="logical" name="LTETE"> F  </i>
   <i type="logical" name="LTRIPLET"> F  </i>
   <i type="logical" name="LFXCEPS"> F  </i>
   <i type="logical" name="LFXHEG"> F  </i>
   <i type="int" name="NATURALO">     2</i>
   <i type="logical" name="LHOLEGF"> F  </i>
   <i type="logical" name="L2ORDER"> F  </i>
   <i type="logical" name="LDMP1"> F  </i>
   <i type="logical" name="LMP2LT"> F  </i>
   <i type="logical" name="LSMP2LT"> F  </i>
   <i type="logical" name="LGWLF"> F  </i>
   <i name="ENCUTGW">     -1.60000002</i>
   <i name="ENCUTGWSOFT">     -1.60000002</i>
   <i name="ENCUTLF">     -1.00000000</i>
   <i type="logical" name="LESF_SPLINES"> F  </i>
   <i type="int" name="LMAXMP2">    -1</i>
   <i name="SCISSOR">      0.00000000</i>
   <i type="int" name="NOMEGA">     0</i>
   <i type="int" name="NOMEGAR">     0</i>
   <i type="int" name="NBANDSGW">    -1</i>
   <i type="int" name="NBANDSO">    -1</i>
   <i type="int" name="NBANDSV">    -1</i>
   <i type="int" name="NELMGW">     1</i>
   <i type="int" name="NELMHF">     1</i>
   <i type="int" name="DIM">     3</i>
   <i type="int" name="IESPILON">     4</i>
   <i type="int" name="ANTIRES">     0</i>
   <i name="OMEGAMAX">    -30.00000000</i>
   <i name="OMEGAMIN">    -30.00000000</i>
   <i name="OMEGATL">   -200.00000000</i>
   <i type="int" name="OMEGAGRID">     0</i>
   <i name="CSHIFT">     -0.10000000</i>
   <i type="logical" name="LSELFENERGY"> F  </i>
   <i type="logical" name="LSPECTRAL"> F  </i>
   <i type="logical" name="LSPECTRALGW"> F  </i>
   <i type="logical" name="LSINGLES"> F  </i>
   <i type="logical" name="LFERMIGW"> F  </i>
   <i type="logical" name="ODDONLYGW"> F  </i>
   <i type="logical" name="EVENONLYGW"> F  </i>
   <i type="int" name="NKREDLFX">     1</i>
   <i type="int" name="NKREDLFY">     1</i>
   <i type="int" name="NKREDLFZ">     1</i>
   <i type="int" name="MAXMEM">  2800</i>
   <i type="int" name="TELESCOPE">     0</i>
   <i type="int" name="NTAUPAR">    -1</i>
   <i type="int" name="NOMEGAPAR">    -1</i>
   <i name="DAMP_NEWTON">      0.80000001</i>
   <i name="LAMBDA">      1.00000000</i>
  </separator>
  <separator name="External order field" >
   <i name="OFIELD_KAPPA">      0.00000000</i>
   <v name="OFIELD_K">      0.00000000      0.00000000      0.00000000</v>
   <i name="OFIELD_Q6_NEAR">      0.00000000</i>
   <i name="OFIELD_Q6_FAR">      0.00000000</i>
   <i name="OFIELD_A">      0.00000000</i>
  </separator>
  <separator name="optional k-points parameters" >
   <i type="int" name="KPOINTS_OPT_MODE">     1</i>
   <i type="logical" name="LKPOINTS_OPT"> F  </i>
  </separator>
 </parameters>
 <atominfo>
  <atoms>       2 </atoms>
  <types>       2 </types>
  <array name="atoms" >
   <dimension dim="1">ion</dimension>
   <field type="string">element</field>
   <field type="int">atomtype</field>
   <set>
    <rc><c>Cd</c><c>   1</c></rc>
    <rc><c>Te</c><c>   2</c></rc>
   </set>
  </array>
  <array name="atomtypes" >
   <dimension dim="1">type</dimension>
   <field type="int">atomspertype</field>
   <field type="string">element</field>
   <field>mass</field>
   <field>valence</field>
   <field type="string">pseudopotential</field>
   <set>
    <rc><c>   1</c><c>Cd</c><c>    112.41100000</c><c>     12.00000000</c><c>  PAW_PBE Cd 06Sep2000                  </c></rc>
    <rc><c>   1</c><c>Te</c><c>    127.60000000</c><c>      6.00000000</c><c>  PAW_PBE Te 08Apr2002                  </c></rc>
   </set>
  </array>
 </atominfo>
 <structure name="initialpos" >
  <crystal>
   <varray name="basis" >
    <v>       4.01975093       0.00000000       2.32080404 </v>
    <v>       1.33991663       3.78985854       2.32080404 </v>
    <v>       0.00000000       0.00000000       4.64161015 </v>
   </varray>
   <i name="volume">     70.71162285 </i>
   <varray name="rec_basis" >
    <v>       0.24877163      -0.08795401       0.00000000 </v>
    <v>       0.00000000       0.26386209       0.00000000 </v>
    <v>      -0.12438576      -0.08795400       0.21544248 </v>
   </varray>
  </crystal>
  <varray name="positions" >
   <v>       0.00000000       0.00000000       0.00000000 </v>
   <v>       0.25000000       0.25000000       0.25000000 </v>
  </varray>
 </structure>
 <calculation>
  <scstep>
   <time name="dav">    0.26    0.27</time>
   <time name="total">    0.40    0.41</time>
   <energy>
    <i name="alphaZ">     48.32593859 </i>
    <i name="ewald">  -1031.85467228 </i>
    <i name="hartreedc">   -509.52962874 </i>
    <i name="XCdc">    -20.81468993 </i>
    <i name="pawpsdc">   1683.41897847 </i>
    <i name="pawaedc">  -1611.99481751 </i>
    <i name="eentropy">      0.00000000 </i>
    <i name="bandstr">     58.42053751 </i>
    <i name="atom">   1516.21046352 </i>
    <i name="e_fr_energy">    132.18210962 </i>
    <i name="e_wo_entrp">    132.18210962 </i>
    <i name="e_0_energy">    132.18210962 </i>
   </energy>
  </scstep>
  <scstep>
   <time name="dav">    0.26    0.26</time>
   <time name="total">    0.27    0.27</time>
   <energy>
    <i name="e_fr_energy">     -0.42589689 </i>
    <i name="e_wo_entrp">     -0.42589689 </i>
    <i name="e_0_energy">     -0.42589689 </i>
   </energy>
  </scstep>
  <scstep>
   <time name="dav">    0.26    0.28</time>
   <time name="total">    0.26    0.28</time>
   <energy>
    <i name="e_fr_energy">     -5.45166152 </i>
    <i name="e_wo_entrp">     -5.45166152 </i>
    <i name="e_0_energy">     -5.45166152 </i>
   </energy>
  </scstep>
  <scstep>
   <time name="dav">    0.23    0.25</time>
   <time name="total">    0.24    0.25</time>
   <energy>
    <i name="e_fr_energy">     -5.47991882 </i>
    <i name="e_wo_entrp">     -5.47991882 </i>
    <i name="e_0_energy">     -5.47991882 </i>
   </energy>
  </scstep>
  <scstep>
   <time name="dav">    0.27    0.28</time>
   <time name="total">    0.27    0.29</time>
   <energy>
    <i name="e_fr_energy">     -5.48024152 </i>
    <i name="e_wo_entrp">     -5.48024152 </i>
    <i name="e_0_energy">     -5.48024152 </i>
   </energy>
  </scstep>
  <scstep>
   <time name="diag">    0.08    0.10</time>
   <time name="diis">    0.03    0.03</time>
   <time name="orth">    0.01    0.01</time>
   <time name="total">    0.13    0.15</time>
   <energy>
    <i name="alphaZ">     48.32593859 </i>
    <i name="ewald">  -1031.85467228 </i>
    <i name="hartreedc">   -509.52962874 </i>
    <i name="XCdc">    -20.81468993 </i>
    <i name="pawpsdc">   1683.41897847 </i>
    <i name="pawaedc">  -1611.99481751 </i>
    <i name="eentropy">      0.00000000 </i>
    <i name="bandstr">    -79.24181808 </i>
    <i name="atom">   1516.21046352 </i>
    <i name="e_fr_energy">     -5.48024597 </i>
    <i name="e_wo_entrp">     -5.48024597 </i>
    <i name="e_0_energy">     -5.48024597 </i>
   </energy>
  </scstep>
  <structure>
   <crystal>
    <varray name="basis" >
     <v>       4.01975093       0.00000000       2.32080404 </v>
     <v>       1.33991663       3.78985854       2.32080404 </v>
     <v>       0.00000000       0.00000000       4.64161015 </v>
    </varray>
    <i name="volume">     70.71162285 </i>
    <varray name="rec_basis" >
     <v>       0.24877163      -0.08795401       0.00000000 </v>
     <v>       0.00000000       0.26386209       0.00000000 </v>
     <v>      -0.12438576      -0.08795400       0.21544248 </v>
    </varray>
   </crystal>
   <varray name="positions" >
    <v>       0.00000000       0.00000000       0.00000000 </v>
    <v>       0.25000000       0.25000000       0.25000000 </v>
   </varray>
  </structure>
  <varray name="forces" >
   <v>      -0.00000000       0.00000000      -0.00000000 </v>
   <v>       0.00000000      -0.00000000       0.00000000 </v>
  </varray>
  <varray name="stress" >
   <v>     -12.07814763       0.00000110       0.00000310 </v>
   <v>       0.00000110     -12.07815412       0.00000221 </v>
   <v>       0.00000310       0.00000221     -12.07815591 </v>
  </varray>
  <energy>
   <i name="e_fr_energy">     -5.48024597 </i>
   <i name="e_wo_entrp">     -5.48024597 </i>
   <i name="e_0_energy">     -5.48024597 </i>
  </energy>
  <time name="totalsc">    1.93    2.04</time>
  <eigenvalues>
   <array>
    <dimension dim="1">band</dimension>
    <dimension dim="2">kpoint</dimension>
    <dimension dim="3">spin</dimension>
    <field>eigene</field>
    <field>occ</field>
    <set>
     <set comment="spin 1">
      <set comment="kpoint 1">
       <r>   -9.1237    1.0000 </r>
       <r>   -6.2594    1.0000 </r>
       <r>   -6.2594    1.0000 </r>
       <r>   -6.2594    1.0000 </r>
       <r>   -6.0224    1.0000 </r>
       <r>   -6.0224    1.0000 </r>
       <r>    1.8753    1.0000 </r>
       <r>    1.8753    1.0000 </r>
       <r>    1.8753    1.0000 </r>
       <r>    2.4233    0.0000 </r>
       <r>    6.4433    0.0000 </r>
       <r>    6.4433    0.0000 </r>
       <r>    6.4433    0.0000 </r>
       <r>    9.1205    0.0000 </r>
       <r>   11.1493    0.0000 </r>
       <r>   11.1493    0.0000 </r>
       <r>   11.8480    0.0000 </r>
       <r>   11.8480    0.0000 </r>
       <r>   11.8480    0.0000 </r>
       <r>   14.0902    0.0000 </r>
       <r>   21.4108    0.0000 </r>
       <r>   21.4108    0.0000 </r>
       <r>   21.4108    0.0000 </r>
       <r>   22.1823    0.0000 </r>
       <r>   22.1823    0.0000 </r>
       <r>   22.1823    0.0000 </r>
       <r>   23.1677    0.0000 </r>
       <r>   23.1677    0.0000 </r>
       <r>   23.1677    0.0000 </r>
       <r>   23.9059    0.0000 </r>
       <r>   23.9059    0.0000 </r>
       <r>   28.7822    0.0000 </r>
       <r>   29.8471    0.0000 </r>
       <r>   29.8476    0.0000 </r>
       <r>   29.8537    0.0000 </r>
       <r>   29.8916    0.0000 </r>
      </set>
      <set comment="kpoint 2">
       <r>   -9.0538    1.0000 </r>
       <r>   -6.2466    1.0000 </r>
       <r>   -6.2466    1.0000 </r>
       <r>   -6.2029    1.0000 </r>
       <r>   -6.0233    1.0000 </r>
       <r>   -6.0233    1.0000 </r>
       <r>    0.4285    1.0000 </r>
       <r>    1.7119    1.0000 </r>
       <r>    1.7119    1.0000 </r>
       <r>    3.4529    0.0000 </r>
       <r>    6.4222    0.0000 </r>
       <r>    6.6968    0.0000 </r>
       <r>    6.6968    0.0000 </r>
       <r>   10.0059    0.0000 </r>
       <r>   10.3599    0.0000 </r>
       <r>   10.3599    0.0000 </r>
       <r>   11.3979    0.0000 </r>
       <r>   13.2799    0.0000 </r>
       <r>   13.2799    0.0000 </r>
       <r>   15.4101    0.0000 </r>
       <r>   19.2251    0.0000 </r>
       <r>   19.2251    0.0000 </r>
       <r>   19.6442    0.0000 </r>
       <r>   21.5320    0.0000 </r>
       <r>   22.4232    0.0000 </r>
       <r>   22.4232    0.0000 </r>
       <r>   23.3268    0.0000 </r>
       <r>   23.3268    0.0000 </r>
       <r>   24.5691    0.0000 </r>
       <r>   25.9921    0.0000 </r>
       <r>   25.9921    0.0000 </r>
       <r>   27.7156    0.0000 </r>
       <r>   27.7156    0.0000 </r>
       <r>   28.0088    0.0000 </r>
       <r>   29.4743    0.0000 </r>
       <r>   30.3657    0.0000 </r>
      </set>
      <set comment="kpoint 3">
       <r>   -8.8960    1.0000 </r>
       <r>   -6.2208    1.0000 </r>
       <r>   -6.2207    1.0000 </r>
       <r>   -6.0217    1.0000 </r>
       <r>   -6.0217    1.0000 </r>
       <r>   -6.0149    1.0000 </r>
       <r>   -1.1604    1.0000 </r>
       <r>    1.3956    1.0000 </r>
       <r>    1.3956    1.0000 </r>
       <r>    3.7098    0.0000 </r>
       <r>    7.0206    0.0000 </r>
       <r>    7.0206    0.0000 </r>
       <r>    7.4298    0.0000 </r>
       <r>    9.8997    0.0000 </r>
       <r>   10.3637    0.0000 </r>
       <r>   10.3637    0.0000 </r>
       <r>   13.0901    0.0000 </r>
       <r>   15.3569    0.0000 </r>
       <r>   15.3569    0.0000 </r>
       <r>   16.5592    0.0000 </r>
       <r>   16.5592    0.0000 </r>
       <r>   16.6158    0.0000 </r>
       <r>   17.9979    0.0000 </r>
       <r>   21.8412    0.0000 </r>
       <r>   22.9547    0.0000 </r>
       <r>   22.9548    0.0000 </r>
       <r>   23.4258    0.0000 </r>
       <r>   23.4258    0.0000 </r>
       <r>   23.8945    0.0000 </r>
       <r>   24.4495    0.0000 </r>
       <r>   24.4495    0.0000 </r>
       <r>   26.4886    0.0000 </r>
       <r>   27.8976    0.0000 </r>
       <r>   28.5975    0.0000 </r>
       <r>   28.5985    0.0000 </r>
       <r>   28.9052    0.0000 </r>
      </set>
      <set comment="kpoint 4">
       <r>   -8.7710    1.0000 </r>
       <r>   -6.2041    1.0000 </r>
       <r>   -6.2041    1.0000 </r>
       <r>   -6.0156    1.0000 </r>
       <r>   -6.0156    1.0000 </r>
       <r>   -5.7575    1.0000 </r>
       <r>   -2.2278    1.0000 </r>
       <r>    1.1768    1.0000 </r>
       <r>    1.1768    1.0000 </r>
       <r>    3.5912    0.0000 </r>
       <r>    7.0287    0.0000 </r>
       <r>    7.0287    0.0000 </r>
       <r>    8.6576    0.0000 </r>
       <r>    9.9895    0.0000 </r>
       <r>   11.5388    0.0000 </r>
       <r>   11.5388    0.0000 </r>
       <r>   13.3865    0.0000 </r>
       <r>   13.9731    0.0000 </r>
       <r>   13.9731    0.0000 </r>
       <r>   16.6872    0.0000 </r>
       <r>   18.0762    0.0000 </r>
       <r>   18.0762    0.0000 </r>
       <r>   20.3954    0.0000 </r>
       <r>   21.1023    0.0000 </r>
       <r>   21.1023    0.0000 </r>
       <r>   21.5064    0.0000 </r>
       <r>   22.1424    0.0000 </r>
       <r>   23.5529    0.0000 </r>
       <r>   23.5529    0.0000 </r>
       <r>   23.9179    0.0000 </r>
       <r>   23.9179    0.0000 </r>
       <r>   24.7418    0.0000 </r>
       <r>   26.7864    0.0000 </r>
       <r>   27.8011    0.0000 </r>
       <r>   27.8035    0.0000 </r>
       <r>   27.9919    0.0000 </r>
      </set>
      <set comment="kpoint 5">
       <r>   -9.0306    1.0000 </r>
       <r>   -6.2340    1.0000 </r>
       <r>   -6.2340    1.0000 </r>
       <r>   -6.2018    1.0000 </r>
       <r>   -6.0292    1.0000 </r>
       <r>   -6.0172    1.0000 </r>
       <r>    0.3913    1.0000 </r>
       <r>    1.4344    1.0000 </r>
       <r>    1.4344    1.0000 </r>
       <r>    3.9370    0.0000 </r>
       <r>    5.7090    0.0000 </r>
       <r>    7.1302    0.0000 </r>
       <r>    7.1302    0.0000 </r>
       <r>    9.2358    0.0000 </r>
       <r>   10.4776    0.0000 </r>
       <r>   11.3268    0.0000 </r>
       <r>   12.3926    0.0000 </r>
       <r>   12.3926    0.0000 </r>
       <r>   12.9942    0.0000 </r>
       <r>   16.1552    0.0000 </r>
       <r>   19.0444    0.0000 </r>
       <r>   19.0444    0.0000 </r>
       <r>   19.5382    0.0000 </r>
       <r>   20.2746    0.0000 </r>
       <r>   22.2008    0.0000 </r>
       <r>   22.2008    0.0000 </r>
       <r>   22.6806    0.0000 </r>
       <r>   24.9344    0.0000 </r>
       <r>   25.8434    0.0000 </r>
       <r>   25.8434    0.0000 </r>
       <r>   26.0656    0.0000 </r>
       <r>   26.8943    0.0000 </r>
       <r>   27.8098    0.0000 </r>
       <r>   27.8098    0.0000 </r>
       <r>   28.1713    0.0000 </r>
       <r>   30.0860    0.0000 </r>
      </set>
      <set comment="kpoint 6">
       <r>   -8.9026    1.0000 </r>
       <r>   -6.2142    1.0000 </r>
       <r>   -6.2060    1.0000 </r>
       <r>   -6.0844    1.0000 </r>
       <r>   -6.0128    1.0000 </r>
       <r>   -6.0083    1.0000 </r>
       <r>   -0.7918    1.0000 </r>
       <r>    1.0582    1.0000 </r>
       <r>    1.0813    1.0000 </r>
       <r>    4.4493    0.0000 </r>
       <r>    5.8054    0.0000 </r>
       <r>    7.4650    0.0000 </r>
       <r>    7.6568    0.0000 </r>
       <r>    9.2809    0.0000 </r>
       <r>   11.2311    0.0000 </r>
       <r>   11.2379    0.0000 </r>
       <r>   12.7450    0.0000 </r>
       <r>   13.9809    0.0000 </r>
       <r>   14.9807    0.0000 </r>
       <r>   16.4155    0.0000 </r>
       <r>   16.4678    0.0000 </r>
       <r>   18.2664    0.0000 </r>
       <r>   19.4327    0.0000 </r>
       <r>   19.6498    0.0000 </r>
       <r>   20.5806    0.0000 </r>
       <r>   22.5812    0.0000 </r>
       <r>   23.2973    0.0000 </r>
       <r>   24.2156    0.0000 </r>
       <r>   25.3374    0.0000 </r>
       <r>   25.6169    0.0000 </r>
       <r>   26.1589    0.0000 </r>
       <r>   26.5797    0.0000 </r>
       <r>   27.0001    0.0000 </r>
       <r>   27.4928    0.0000 </r>
       <r>   27.8031    0.0000 </r>
       <r>   28.8341    0.0000 </r>
      </set>
      <set comment="kpoint 7">
       <r>   -8.7681    1.0000 </r>
       <r>   -6.1972    1.0000 </r>
       <r>   -6.1868    1.0000 </r>
       <r>   -6.0401    1.0000 </r>
       <r>   -6.0104    1.0000 </r>
       <r>   -5.7883    1.0000 </r>
       <r>   -1.9235    1.0000 </r>
       <r>    0.6188    1.0000 </r>
       <r>    0.9037    1.0000 </r>
       <r>    4.4036    0.0000 </r>
       <r>    6.4749    0.0000 </r>
       <r>    7.6643    0.0000 </r>
       <r>    7.8943    0.0000 </r>
       <r>   10.3493    0.0000 </r>
       <r>   11.2768    0.0000 </r>
       <r>   12.0485    0.0000 </r>
       <r>   13.2636    0.0000 </r>
       <r>   13.8668    0.0000 </r>
       <r>   15.7182    0.0000 </r>
       <r>   16.4313    0.0000 </r>
       <r>   16.8496    0.0000 </r>
       <r>   17.8187    0.0000 </r>
       <r>   20.0522    0.0000 </r>
       <r>   20.1908    0.0000 </r>
       <r>   20.7305    0.0000 </r>
       <r>   21.3818    0.0000 </r>
       <r>   22.5574    0.0000 </r>
       <r>   23.0538    0.0000 </r>
       <r>   23.3332    0.0000 </r>
       <r>   24.6236    0.0000 </r>
       <r>   24.7687    0.0000 </r>
       <r>   25.2806    0.0000 </r>
       <r>   26.5545    0.0000 </r>
       <r>   26.5719    0.0000 </r>
       <r>   27.7448    0.0000 </r>
       <r>   28.3509    0.0000 </r>
      </set>
      <set comment="kpoint 8">
       <r>   -8.7275    1.0000 </r>
       <r>   -6.1911    1.0000 </r>
       <r>   -6.1865    1.0000 </r>
       <r>   -6.0246    1.0000 </r>
       <r>   -6.0170    1.0000 </r>
       <r>   -5.6713    1.0000 </r>
       <r>   -2.2798    1.0000 </r>
       <r>    0.3612    1.0000 </r>
       <r>    0.9932    1.0000 </r>
       <r>    4.3663    0.0000 </r>
       <r>    6.6436    0.0000 </r>
       <r>    7.4476    0.0000 </r>
       <r>    8.7710    0.0000 </r>
       <r>   10.5047    0.0000 </r>
       <r>   11.3066    0.0000 </r>
       <r>   11.4498    0.0000 </r>
       <r>   13.2780    0.0000 </r>
       <r>   14.3477    0.0000 </r>
       <r>   14.8608    0.0000 </r>
       <r>   16.7894    0.0000 </r>
       <r>   18.3788    0.0000 </r>
       <r>   18.9869    0.0000 </r>
       <r>   19.7219    0.0000 </r>
       <r>   19.9267    0.0000 </r>
       <r>   20.8302    0.0000 </r>
       <r>   20.9977    0.0000 </r>
       <r>   21.2908    0.0000 </r>
       <r>   23.0625    0.0000 </r>
       <r>   23.2426    0.0000 </r>
       <r>   24.0748    0.0000 </r>
       <r>   24.3668    0.0000 </r>
       <r>   24.8856    0.0000 </r>
       <r>   25.1133    0.0000 </r>
       <r>   26.6772    0.0000 </r>
       <r>   27.7180    0.0000 </r>
       <r>   28.0636    0.0000 </r>
      </set>
      <set comment="kpoint 9">
       <r>   -8.8090    1.0000 </r>
       <r>   -6.2044    1.0000 </r>
       <r>   -6.1975    1.0000 </r>
       <r>   -6.0284    1.0000 </r>
       <r>   -6.0246    1.0000 </r>
       <r>   -5.8704    1.0000 </r>
       <r>   -1.5951    1.0000 </r>
       <r>    0.4361    1.0000 </r>
       <r>    1.3021    1.0000 </r>
       <r>    4.4242    0.0000 </r>
       <r>    6.8612    0.0000 </r>
       <r>    7.2325    0.0000 </r>
       <r>    7.5820    0.0000 </r>
       <r>    9.8959    0.0000 </r>
       <r>   10.8093    0.0000 </r>
       <r>   12.0609    0.0000 </r>
       <r>   12.9892    0.0000 </r>
       <r>   14.2977    0.0000 </r>
       <r>   15.7653    0.0000 </r>
       <r>   16.5703    0.0000 </r>
       <r>   16.7452    0.0000 </r>
       <r>   17.6498    0.0000 </r>
       <r>   19.7198    0.0000 </r>
       <r>   19.8846    0.0000 </r>
       <r>   20.8737    0.0000 </r>
       <r>   22.2344    0.0000 </r>
       <r>   22.6351    0.0000 </r>
       <r>   22.8662    0.0000 </r>
       <r>   23.9444    0.0000 </r>
       <r>   24.4207    0.0000 </r>
       <r>   25.2317    0.0000 </r>
       <r>   25.9896    0.0000 </r>
       <r>   26.4674    0.0000 </r>
       <r>   27.5654    0.0000 </r>
       <r>   28.1043    0.0000 </r>
       <r>   28.5234    0.0000 </r>
      </set>
      <set comment="kpoint 10">
       <r>   -8.9547    1.0000 </r>
       <r>   -6.2322    1.0000 </r>
       <r>   -6.2195    1.0000 </r>
       <r>   -6.1115    1.0000 </r>
       <r>   -6.0299    1.0000 </r>
       <r>   -6.0135    1.0000 </r>
       <r>   -0.4397    1.0000 </r>
       <r>    0.9561    1.0000 </r>
       <r>    1.6403    1.0000 </r>
       <r>    4.1638    0.0000 </r>
       <r>    6.3337    0.0000 </r>
       <r>    6.8512    0.0000 </r>
       <r>    7.2900    0.0000 </r>
       <r>    9.6090    0.0000 </r>
       <r>   10.4162    0.0000 </r>
       <r>   11.0890    0.0000 </r>
       <r>   12.3891    0.0000 </r>
       <r>   13.2261    0.0000 </r>
       <r>   15.1639    0.0000 </r>
       <r>   16.3049    0.0000 </r>
       <r>   17.1031    0.0000 </r>
       <r>   19.1151    0.0000 </r>
       <r>   19.1987    0.0000 </r>
       <r>   19.7432    0.0000 </r>
       <r>   20.7654    0.0000 </r>
       <r>   22.4034    0.0000 </r>
       <r>   23.9337    0.0000 </r>
       <r>   24.8417    0.0000 </r>
       <r>   25.3013    0.0000 </r>
       <r>   25.5108    0.0000 </r>
       <r>   26.3641    0.0000 </r>
       <r>   26.9360    0.0000 </r>
       <r>   27.0344    0.0000 </r>
       <r>   28.0833    0.0000 </r>
       <r>   28.1390    0.0000 </r>
       <r>   28.4925    0.0000 </r>
      </set>
      <set comment="kpoint 11">
       <r>   -8.8229    1.0000 </r>
       <r>   -6.1730    1.0000 </r>
       <r>   -6.1730    1.0000 </r>
       <r>   -6.1005    1.0000 </r>
       <r>   -6.0053    1.0000 </r>
       <r>   -5.9420    1.0000 </r>
       <r>   -1.1069    1.0000 </r>
       <r>    0.6737    1.0000 </r>
       <r>    0.6737    1.0000 </r>
       <r>    4.6753    0.0000 </r>
       <r>    5.0506    0.0000 </r>
       <r>    8.6427    0.0000 </r>
       <r>    8.6427    0.0000 </r>
       <r>    8.6576    0.0000 </r>
       <r>   11.8347    0.0000 </r>
       <r>   12.8503    0.0000 </r>
       <r>   13.9820    0.0000 </r>
       <r>   13.9820    0.0000 </r>
       <r>   14.2799    0.0000 </r>
       <r>   16.1501    0.0000 </r>
       <r>   16.1501    0.0000 </r>
       <r>   17.2773    0.0000 </r>
       <r>   17.3837    0.0000 </r>
       <r>   20.1824    0.0000 </r>
       <r>   22.1642    0.0000 </r>
       <r>   22.7931    0.0000 </r>
       <r>   22.7932    0.0000 </r>
       <r>   23.0447    0.0000 </r>
       <r>   23.8269    0.0000 </r>
       <r>   23.8269    0.0000 </r>
       <r>   25.4502    0.0000 </r>
       <r>   26.4984    0.0000 </r>
       <r>   28.1222    0.0000 </r>
       <r>   28.1223    0.0000 </r>
       <r>   28.3033    0.0000 </r>
       <r>   29.4240    0.0000 </r>
      </set>
      <set comment="kpoint 12">
       <r>   -8.7193    1.0000 </r>
       <r>   -6.1603    1.0000 </r>
       <r>   -6.1486    1.0000 </r>
       <r>   -6.0821    1.0000 </r>
       <r>   -6.0026    1.0000 </r>
       <r>   -5.7484    1.0000 </r>
       <r>   -1.8098    1.0000 </r>
       <r>    0.1441    1.0000 </r>
       <r>    0.4608    1.0000 </r>
       <r>    4.7069    0.0000 </r>
       <r>    5.4000    0.0000 </r>
       <r>    8.2049    0.0000 </r>
       <r>    9.0200    0.0000 </r>
       <r>   10.4681    0.0000 </r>
       <r>   12.4393    0.0000 </r>
       <r>   13.0537    0.0000 </r>
       <r>   13.6883    0.0000 </r>
       <r>   14.0488    0.0000 </r>
       <r>   15.4453    0.0000 </r>
       <r>   15.6339    0.0000 </r>
       <r>   16.7931    0.0000 </r>
       <r>   17.3777    0.0000 </r>
       <r>   17.4000    0.0000 </r>
       <r>   19.7088    0.0000 </r>
       <r>   20.6267    0.0000 </r>
       <r>   21.8527    0.0000 </r>
       <r>   21.9634    0.0000 </r>
       <r>   22.8892    0.0000 </r>
       <r>   23.4211    0.0000 </r>
       <r>   23.8845    0.0000 </r>
       <r>   25.1421    0.0000 </r>
       <r>   25.6957    0.0000 </r>
       <r>   25.9203    0.0000 </r>
       <r>   27.8538    0.0000 </r>
       <r>   28.3008    0.0000 </r>
       <r>   28.3098    0.0000 </r>
      </set>
      <set comment="kpoint 13">
       <r>   -8.6704    1.0000 </r>
       <r>   -6.1663    1.0000 </r>
       <r>   -6.1477    1.0000 </r>
       <r>   -6.0545    1.0000 </r>
       <r>   -6.0117    1.0000 </r>
       <r>   -5.5800    1.0000 </r>
       <r>   -2.1701    1.0000 </r>
       <r>   -0.4177    1.0000 </r>
       <r>    0.5532    1.0000 </r>
       <r>    4.7736    0.0000 </r>
       <r>    6.5334    0.0000 </r>
       <r>    8.3242    0.0000 </r>
       <r>    8.6689    0.0000 </r>
       <r>    9.9677    0.0000 </r>
       <r>   11.4878    0.0000 </r>
       <r>   13.1539    0.0000 </r>
       <r>   13.8724    0.0000 </r>
       <r>   14.6408    0.0000 </r>
       <r>   16.2253    0.0000 </r>
       <r>   16.5897    0.0000 </r>
       <r>   17.3771    0.0000 </r>
       <r>   18.1093    0.0000 </r>
       <r>   18.2585    0.0000 </r>
       <r>   19.2812    0.0000 </r>
       <r>   20.1305    0.0000 </r>
       <r>   20.7636    0.0000 </r>
       <r>   21.2381    0.0000 </r>
       <r>   22.6422    0.0000 </r>
       <r>   23.0765    0.0000 </r>
       <r>   23.6024    0.0000 </r>
       <r>   23.8964    0.0000 </r>
       <r>   25.1383    0.0000 </r>
       <r>   25.8066    0.0000 </r>
       <r>   26.0912    0.0000 </r>
       <r>   28.0799    0.0000 </r>
       <r>   28.2391    0.0000 </r>
      </set>
      <set comment="kpoint 14">
       <r>   -8.7095    1.0000 </r>
       <r>   -6.1777    1.0000 </r>
       <r>   -6.1708    1.0000 </r>
       <r>   -6.0331    1.0000 </r>
       <r>   -6.0255    1.0000 </r>
       <r>   -5.6645    1.0000 </r>
       <r>   -1.9631    1.0000 </r>
       <r>   -0.4263    1.0000 </r>
       <r>    0.9050    1.0000 </r>
       <r>    4.9239    0.0000 </r>
       <r>    6.9591    0.0000 </r>
       <r>    7.8872    0.0000 </r>
       <r>    8.0186    0.0000 </r>
       <r>   10.1680    0.0000 </r>
       <r>   10.2604    0.0000 </r>
       <r>   13.2497    0.0000 </r>
       <r>   13.6004    0.0000 </r>
       <r>   14.4486    0.0000 </r>
       <r>   16.2047    0.0000 </r>
       <r>   16.5836    0.0000 </r>
       <r>   17.7159    0.0000 </r>
       <r>   17.9539    0.0000 </r>
       <r>   19.1994    0.0000 </r>
       <r>   19.7355    0.0000 </r>
       <r>   20.6163    0.0000 </r>
       <r>   21.0204    0.0000 </r>
       <r>   21.6056    0.0000 </r>
       <r>   22.6717    0.0000 </r>
       <r>   22.6965    0.0000 </r>
       <r>   23.2861    0.0000 </r>
       <r>   23.7856    0.0000 </r>
       <r>   24.7908    0.0000 </r>
       <r>   25.8022    0.0000 </r>
       <r>   28.0134    0.0000 </r>
       <r>   28.5187    0.0000 </r>
       <r>   28.7806    0.0000 </r>
      </set>
      <set comment="kpoint 15">
       <r>   -8.6623    1.0000 </r>
       <r>   -6.1199    1.0000 </r>
       <r>   -6.1199    1.0000 </r>
       <r>   -6.1114    1.0000 </r>
       <r>   -5.9958    1.0000 </r>
       <r>   -5.6452    1.0000 </r>
       <r>   -2.1357    1.0000 </r>
       <r>    0.1827    1.0000 </r>
       <r>    0.1827    1.0000 </r>
       <r>    4.4170    0.0000 </r>
       <r>    4.6293    0.0000 </r>
       <r>   10.0080    0.0000 </r>
       <r>   10.3277    0.0000 </r>
       <r>   10.3277    0.0000 </r>
       <r>   12.4832    0.0000 </r>
       <r>   13.7717    0.0000 </r>
       <r>   13.7717    0.0000 </r>
       <r>   13.8360    0.0000 </r>
       <r>   15.7071    0.0000 </r>
       <r>   16.2227    0.0000 </r>
       <r>   16.4243    0.0000 </r>
       <r>   16.4243    0.0000 </r>
       <r>   16.9759    0.0000 </r>
       <r>   18.9254    0.0000 </r>
       <r>   19.9958    0.0000 </r>
       <r>   19.9958    0.0000 </r>
       <r>   20.9796    0.0000 </r>
       <r>   23.7478    0.0000 </r>
       <r>   23.7478    0.0000 </r>
       <r>   23.8470    0.0000 </r>
       <r>   24.9626    0.0000 </r>
       <r>   27.0701    0.0000 </r>
       <r>   27.4474    0.0000 </r>
       <r>   27.4475    0.0000 </r>
       <r>   28.2368    0.0000 </r>
       <r>   28.3329    0.0000 </r>
      </set>
      <set comment="kpoint 16">
       <r>   -8.6412    1.0000 </r>
       <r>   -6.1379    1.0000 </r>
       <r>   -6.1194    1.0000 </r>
       <r>   -6.0872    1.0000 </r>
       <r>   -6.0002    1.0000 </r>
       <r>   -5.5574    1.0000 </r>
       <r>   -2.2549    1.0000 </r>
       <r>   -0.2248    1.0000 </r>
       <r>    0.2194    1.0000 </r>
       <r>    4.5478    0.0000 </r>
       <r>    5.2044    0.0000 </r>
       <r>    9.6024    0.0000 </r>
       <r>   10.0252    0.0000 </r>
       <r>   10.3618    0.0000 </r>
       <r>   12.2070    0.0000 </r>
       <r>   13.3412    0.0000 </r>
       <r>   13.8655    0.0000 </r>
       <r>   14.7430    0.0000 </r>
       <r>   15.9284    0.0000 </r>
       <r>   16.0419    0.0000 </r>
       <r>   16.5645    0.0000 </r>
       <r>   17.6938    0.0000 </r>
       <r>   18.1203    0.0000 </r>
       <r>   18.4607    0.0000 </r>
       <r>   19.2782    0.0000 </r>
       <r>   20.2390    0.0000 </r>
       <r>   20.3988    0.0000 </r>
       <r>   21.7266    0.0000 </r>
       <r>   23.8442    0.0000 </r>
       <r>   24.5662    0.0000 </r>
       <r>   25.1864    0.0000 </r>
       <r>   25.6465    0.0000 </r>
       <r>   27.1766    0.0000 </r>
       <r>   27.8731    0.0000 </r>
       <r>   27.9263    0.0000 </r>
       <r>   27.9968    0.0000 </r>
      </set>
      <set comment="kpoint 17">
       <r>   -8.7872    1.0000 </r>
       <r>   -6.1886    1.0000 </r>
       <r>   -6.1792    1.0000 </r>
       <r>   -6.0605    1.0000 </r>
       <r>   -6.0113    1.0000 </r>
       <r>   -5.8568    1.0000 </r>
       <r>   -1.4692    1.0000 </r>
       <r>    0.2079    1.0000 </r>
       <r>    0.9082    1.0000 </r>
       <r>    5.0371    0.0000 </r>
       <r>    5.8386    0.0000 </r>
       <r>    7.1949    0.0000 </r>
       <r>    8.4721    0.0000 </r>
       <r>    9.7021    0.0000 </r>
       <r>   12.0052    0.0000 </r>
       <r>   12.4718    0.0000 </r>
       <r>   13.0908    0.0000 </r>
       <r>   13.7444    0.0000 </r>
       <r>   15.5941    0.0000 </r>
       <r>   16.2766    0.0000 </r>
       <r>   16.7565    0.0000 </r>
       <r>   17.4564    0.0000 </r>
       <r>   19.5416    0.0000 </r>
       <r>   20.1741    0.0000 </r>
       <r>   20.6377    0.0000 </r>
       <r>   21.0910    0.0000 </r>
       <r>   21.7895    0.0000 </r>
       <r>   22.8338    0.0000 </r>
       <r>   24.6256    0.0000 </r>
       <r>   25.0158    0.0000 </r>
       <r>   25.6482    0.0000 </r>
       <r>   26.0065    0.0000 </r>
       <r>   26.5840    0.0000 </r>
       <r>   27.0883    0.0000 </r>
       <r>   27.8385    0.0000 </r>
       <r>   28.1170    0.0000 </r>
      </set>
      <set comment="kpoint 18">
       <r>   -8.6973    1.0000 </r>
       <r>   -6.1745    1.0000 </r>
       <r>   -6.1634    1.0000 </r>
       <r>   -6.0446    1.0000 </r>
       <r>   -6.0156    1.0000 </r>
       <r>   -5.6391    1.0000 </r>
       <r>   -2.0834    1.0000 </r>
       <r>   -0.2068    1.0000 </r>
       <r>    0.6033    1.0000 </r>
       <r>    5.1792    0.0000 </r>
       <r>    6.3958    0.0000 </r>
       <r>    7.3835    0.0000 </r>
       <r>    8.9310    0.0000 </r>
       <r>    9.9224    0.0000 </r>
       <r>   11.6630    0.0000 </r>
       <r>   12.5802    0.0000 </r>
       <r>   13.4119    0.0000 </r>
       <r>   14.8736    0.0000 </r>
       <r>   15.4558    0.0000 </r>
       <r>   16.5781    0.0000 </r>
       <r>   17.8938    0.0000 </r>
       <r>   18.3634    0.0000 </r>
       <r>   18.7919    0.0000 </r>
       <r>   19.6498    0.0000 </r>
       <r>   20.3145    0.0000 </r>
       <r>   20.9816    0.0000 </r>
       <r>   21.5224    0.0000 </r>
       <r>   22.1335    0.0000 </r>
       <r>   23.0304    0.0000 </r>
       <r>   23.6817    0.0000 </r>
       <r>   24.6352    0.0000 </r>
       <r>   25.3219    0.0000 </r>
       <r>   25.6990    0.0000 </r>
       <r>   26.8661    0.0000 </r>
       <r>   27.2679    0.0000 </r>
       <r>   27.6890    0.0000 </r>
      </set>
      <set comment="kpoint 19">
       <r>   -8.6587    1.0000 </r>
       <r>   -6.1432    1.0000 </r>
       <r>   -6.1416    1.0000 </r>
       <r>   -6.0722    1.0000 </r>
       <r>   -6.0062    1.0000 </r>
       <r>   -5.5867    1.0000 </r>
       <r>   -2.1281    1.0000 </r>
       <r>   -0.1706    1.0000 </r>
       <r>    0.0919    1.0000 </r>
       <r>    5.2447    0.0000 </r>
       <r>    5.4039    0.0000 </r>
       <r>    8.0973    0.0000 </r>
       <r>    9.6687    0.0000 </r>
       <r>   10.5701    0.0000 </r>
       <r>   12.3868    0.0000 </r>
       <r>   13.1873    0.0000 </r>
       <r>   13.6924    0.0000 </r>
       <r>   14.9147    0.0000 </r>
       <r>   15.3748    0.0000 </r>
       <r>   15.9657    0.0000 </r>
       <r>   17.3699    0.0000 </r>
       <r>   17.8171    0.0000 </r>
       <r>   18.1153    0.0000 </r>
       <r>   18.8331    0.0000 </r>
       <r>   19.6480    0.0000 </r>
       <r>   20.5041    0.0000 </r>
       <r>   21.8031    0.0000 </r>
       <r>   21.9276    0.0000 </r>
       <r>   22.8110    0.0000 </r>
       <r>   24.3670    0.0000 </r>
       <r>   25.0805    0.0000 </r>
       <r>   25.4967    0.0000 </r>
       <r>   25.6729    0.0000 </r>
       <r>   26.3636    0.0000 </r>
       <r>   27.5651    0.0000 </r>
       <r>   28.7799    0.0000 </r>
      </set>
      <set comment="kpoint 20">
       <r>   -8.6496    1.0000 </r>
       <r>   -6.1558    1.0000 </r>
       <r>   -6.1424    1.0000 </r>
       <r>   -6.0508    1.0000 </r>
       <r>   -6.0187    1.0000 </r>
       <r>   -5.5296    1.0000 </r>
       <r>   -2.1628    1.0000 </r>
       <r>   -0.5077    1.0000 </r>
       <r>    0.1580    1.0000 </r>
       <r>    5.4465    0.0000 </r>
       <r>    6.5559    0.0000 </r>
       <r>    7.6509    0.0000 </r>
       <r>    8.4868    0.0000 </r>
       <r>   10.4575    0.0000 </r>
       <r>   11.8634    0.0000 </r>
       <r>   13.5753    0.0000 </r>
       <r>   14.0084    0.0000 </r>
       <r>   14.9992    0.0000 </r>
       <r>   15.5270    0.0000 </r>
       <r>   16.7869    0.0000 </r>
       <r>   17.5453    0.0000 </r>
       <r>   17.7894    0.0000 </r>
       <r>   18.0514    0.0000 </r>
       <r>   19.0556    0.0000 </r>
       <r>   20.7326    0.0000 </r>
       <r>   21.0387    0.0000 </r>
       <r>   21.4522    0.0000 </r>
       <r>   21.9683    0.0000 </r>
       <r>   22.4445    0.0000 </r>
       <r>   22.8722    0.0000 </r>
       <r>   23.2312    0.0000 </r>
       <r>   25.4468    0.0000 </r>
       <r>   25.7130    0.0000 </r>
       <r>   26.5148    0.0000 </r>
       <r>   27.6617    0.0000 </r>
       <r>   28.4628    0.0000 </r>
      </set>
     </set>
    </set>
   </array>
  </eigenvalues>
  <separator name="orbital magnetization" >
   <v name="MAGDIPOLOUT">      0.00000000      0.00000000      0.00000000</v>
  </separator>
  <dos>
   <i name="efermi">      1.90023638 </i>
   <total>
    <array>
     <dimension dim="1">gridpoints</dimension>
     <dimension dim="2">spin</dimension>
     <field>energy</field>
     <field>total</field>
     <field>integrated</field>
     <set>
      <set comment="spin 1">
       <r>   -11.0982     0.0000     0.0000 </r>
       <r>   -11.0704     0.0000     0.0000 </r>
       <r>   -11.0426     0.0000     0.0000 </r>
       <r>   -11.0148     0.0000     0.0000 </r>
       <r>   -10.9871     0.0000     0.0000 </r>
       <r>   -10.9593     0.0000     0.0000 </r>
       <r>   -10.9315     0.0000     0.0000 </r>
       <r>   -10.9037     0.0000     0.0000 </r>
       <r>   -10.8760     0.0000     0.0000 </r>
       <r>   -10.8482     0.0000     0.0000 </r>
       <r>   -10.8204     0.0000     0.0000 </r>
       <r>   -10.7926     0.0000     0.0000 </r>
       <r>   -10.7649     0.0000     0.0000 </r>
       <r>   -10.7371     0.0000     0.0000 </r>
       <r>   -10.7093     0.0000     0.0000 </r>
       <r>   -10.6815     0.0000     0.0000 </r>
       <r>   -10.6538     0.0000     0.0000 </r>
       <r>   -10.6260     0.0000     0.0000 </r>
       <r>   -10.5982     0.0000     0.0000 </r>
       <r>   -10.5704     0.0000     0.0000 </r>
       <r>   -10.5427     0.0000     0.0000 </r>
       <r>   -10.5149     0.0000     0.0000 </r>
       <r>   -10.4871     0.0000     0.0000 </r>
       <r>   -10.4594     0.0000     0.0000 </r>
       <r>   -10.4316     0.0000     0.0000 </r>
       <r>   -10.4038     0.0000     0.0000 </r>
       <r>   -10.3760     0.0000     0.0000 </r>
       <r>   -10.3483     0.0000     0.0000 </r>
       <r>   -10.3205     0.0000     0.0000 </r>
       <r>   -10.2927     0.0000     0.0000 </r>
       <r>   -10.2649     0.0000     0.0000 </r>
       <r>   -10.2372     0.0000     0.0000 </r>
       <r>   -10.2094     0.0000     0.0000 </r>
       <r>   -10.1816     0.0000     0.0000 </r>
       <r>   -10.1538     0.0000     0.0000 </r>
       <r>   -10.1261     0.0000     0.0000 </r>
       <r>   -10.0983     0.0000     0.0000 </r>
       <r>   -10.0705     0.0000     0.0000 </r>
       <r>   -10.0427     0.0000     0.0000 </r>
       <r>   -10.0150     0.0000     0.0000 </r>
       <r>    -9.9872     0.0000     0.0000 </r>
       <r>    -9.9594     0.0000     0.0000 </r>
       <r>    -9.9317     0.0000     0.0000 </r>
       <r>    -9.9039     0.0000     0.0000 </r>
       <r>    -9.8761     0.0000     0.0000 </r>
       <r>    -9.8483     0.0000     0.0000 </r>
       <r>    -9.8206     0.0000     0.0000 </r>
       <r>    -9.7928     0.0000     0.0000 </r>
       <r>    -9.7650     0.0000     0.0000 </r>
       <r>    -9.7372     0.0000     0.0000 </r>
       <r>    -9.7095     0.0000     0.0000 </r>
       <r>    -9.6817     0.0000     0.0000 </r>
       <r>    -9.6539     0.0000     0.0000 </r>
       <r>    -9.6261     0.0000     0.0000 </r>
       <r>    -9.5984     0.0000     0.0000 </r>
       <r>    -9.5706     0.0000     0.0000 </r>
       <r>    -9.5428     0.0000     0.0000 </r>
       <r>    -9.5150     0.0000     0.0000 </r>
       <r>    -9.4873     0.0000     0.0000 </r>
       <r>    -9.4595     0.0000     0.0000 </r>
       <r>    -9.4317     0.0000     0.0000 </r>
       <r>    -9.4039     0.0000     0.0000 </r>
       <r>    -9.3762     0.0000     0.0000 </r>
       <r>    -9.3484     0.0000     0.0000 </r>
       <r>    -9.3206     0.0000     0.0000 </r>
       <r>    -9.2929     0.0000     0.0000 </r>
       <r>    -9.2651     0.0000     0.0000 </r>
       <r>    -9.2373     0.0000     0.0000 </r>
       <r>    -9.2095     0.0000     0.0000 </r>
       <r>    -9.1818     0.0000     0.0000 </r>
       <r>    -9.1540     0.0000     0.0000 </r>
       <r>    -9.1262     0.0000     0.0000 </r>
       <r>    -9.0984     0.0981     0.0008 </r>
       <r>    -9.0707     0.4324     0.0076 </r>
       <r>    -9.0429     0.7373     0.0256 </r>
       <r>    -9.0151     0.9033     0.0480 </r>
       <r>    -8.9873     1.1216     0.0761 </r>
       <r>    -8.9596     1.3577     0.1104 </r>
       <r>    -8.9318     1.6429     0.1519 </r>
       <r>    -8.9040     2.0367     0.2027 </r>
       <r>    -8.8762     2.4723     0.2653 </r>
       <r>    -8.8485     2.9494     0.3405 </r>
       <r>    -8.8207     3.4728     0.4295 </r>
       <r>    -8.7929     4.5643     0.5375 </r>
       <r>    -8.7651     7.2909     0.6950 </r>
       <r>    -8.7374     9.3612     0.9384 </r>
       <r>    -8.7096    10.2668     1.1990 </r>
       <r>    -8.6818    12.3013     1.5169 </r>
       <r>    -8.6541    18.6650     1.8781 </r>
       <r>    -8.6263     0.2099     2.0000 </r>
       <r>    -8.5985     0.0000     2.0000 </r>
       <r>    -8.5707     0.0000     2.0000 </r>
       <r>    -8.5430     0.0000     2.0000 </r>
       <r>    -8.5152     0.0000     2.0000 </r>
       <r>    -8.4874     0.0000     2.0000 </r>
       <r>    -8.4596     0.0000     2.0000 </r>
       <r>    -8.4319     0.0000     2.0000 </r>
       <r>    -8.4041     0.0000     2.0000 </r>
       <r>    -8.3763     0.0000     2.0000 </r>
       <r>    -8.3485     0.0000     2.0000 </r>
       <r>    -8.3208     0.0000     2.0000 </r>
       <r>    -8.2930     0.0000     2.0000 </r>
       <r>    -8.2652     0.0000     2.0000 </r>
       <r>    -8.2374     0.0000     2.0000 </r>
       <r>    -8.2097     0.0000     2.0000 </r>
       <r>    -8.1819     0.0000     2.0000 </r>
       <r>    -8.1541     0.0000     2.0000 </r>
       <r>    -8.1263     0.0000     2.0000 </r>
       <r>    -8.0986     0.0000     2.0000 </r>
       <r>    -8.0708     0.0000     2.0000 </r>
       <r>    -8.0430     0.0000     2.0000 </r>
       <r>    -8.0153     0.0000     2.0000 </r>
       <r>    -7.9875     0.0000     2.0000 </r>
       <r>    -7.9597     0.0000     2.0000 </r>
       <r>    -7.9319     0.0000     2.0000 </r>
       <r>    -7.9042     0.0000     2.0000 </r>
       <r>    -7.8764     0.0000     2.0000 </r>
       <r>    -7.8486     0.0000     2.0000 </r>
       <r>    -7.8208     0.0000     2.0000 </r>
       <r>    -7.7931     0.0000     2.0000 </r>
       <r>    -7.7653     0.0000     2.0000 </r>
       <r>    -7.7375     0.0000     2.0000 </r>
       <r>    -7.7097     0.0000     2.0000 </r>
       <r>    -7.6820     0.0000     2.0000 </r>
       <r>    -7.6542     0.0000     2.0000 </r>
       <r>    -7.6264     0.0000     2.0000 </r>
       <r>    -7.5986     0.0000     2.0000 </r>
       <r>    -7.5709     0.0000     2.0000 </r>
       <r>    -7.5431     0.0000     2.0000 </r>
       <r>    -7.5153     0.0000     2.0000 </r>
       <r>    -7.4875     0.0000     2.0000 </r>
       <r>    -7.4598     0.0000     2.0000 </r>
       <r>    -7.4320     0.0000     2.0000 </r>
       <r>    -7.4042     0.0000     2.0000 </r>
       <r>    -7.3765     0.0000     2.0000 </r>
       <r>    -7.3487     0.0000     2.0000 </r>
       <r>    -7.3209     0.0000     2.0000 </r>
       <r>    -7.2931     0.0000     2.0000 </r>
       <r>    -7.2654     0.0000     2.0000 </r>
       <r>    -7.2376     0.0000     2.0000 </r>
       <r>    -7.2098     0.0000     2.0000 </r>
       <r>    -7.1820     0.0000     2.0000 </r>
       <r>    -7.1543     0.0000     2.0000 </r>
       <r>    -7.1265     0.0000     2.0000 </r>
       <r>    -7.0987     0.0000     2.0000 </r>
       <r>    -7.0709     0.0000     2.0000 </r>
       <r>    -7.0432     0.0000     2.0000 </r>
       <r>    -7.0154     0.0000     2.0000 </r>
       <r>    -6.9876     0.0000     2.0000 </r>
       <r>    -6.9598     0.0000     2.0000 </r>
       <r>    -6.9321     0.0000     2.0000 </r>
       <r>    -6.9043     0.0000     2.0000 </r>
       <r>    -6.8765     0.0000     2.0000 </r>
       <r>    -6.8488     0.0000     2.0000 </r>
       <r>    -6.8210     0.0000     2.0000 </r>
       <r>    -6.7932     0.0000     2.0000 </r>
       <r>    -6.7654     0.0000     2.0000 </r>
       <r>    -6.7377     0.0000     2.0000 </r>
       <r>    -6.7099     0.0000     2.0000 </r>
       <r>    -6.6821     0.0000     2.0000 </r>
       <r>    -6.6543     0.0000     2.0000 </r>
       <r>    -6.6266     0.0000     2.0000 </r>
       <r>    -6.5988     0.0000     2.0000 </r>
       <r>    -6.5710     0.0000     2.0000 </r>
       <r>    -6.5432     0.0000     2.0000 </r>
       <r>    -6.5155     0.0000     2.0000 </r>
       <r>    -6.4877     0.0000     2.0000 </r>
       <r>    -6.4599     0.0000     2.0000 </r>
       <r>    -6.4321     0.0000     2.0000 </r>
       <r>    -6.4044     0.0000     2.0000 </r>
       <r>    -6.3766     0.0000     2.0000 </r>
       <r>    -6.3488     0.0000     2.0000 </r>
       <r>    -6.3210     0.0000     2.0000 </r>
       <r>    -6.2933     0.0000     2.0000 </r>
       <r>    -6.2655     0.0000     2.0000 </r>
       <r>    -6.2377     8.7047     2.0867 </r>
       <r>    -6.2100    27.3777     2.5240 </r>
       <r>    -6.1822    60.4847     3.7757 </r>
       <r>    -6.1544    58.6077     5.2135 </r>
       <r>    -6.1266    11.3114     6.0612 </r>
       <r>    -6.0989     6.2657     6.1776 </r>
       <r>    -6.0711    20.4960     6.5852 </r>
       <r>    -6.0433    36.2412     7.4282 </r>
       <r>    -6.0155   209.0766     9.0062 </r>
       <r>    -5.9878    14.7752    10.2172 </r>
       <r>    -5.9600     2.0879    10.2760 </r>
       <r>    -5.9322     2.1839    10.3350 </r>
       <r>    -5.9044     2.3261    10.3976 </r>
       <r>    -5.8767     2.4741    10.4643 </r>
       <r>    -5.8489     2.5037    10.5328 </r>
       <r>    -5.8211     2.7474    10.6055 </r>
       <r>    -5.7933     3.0483    10.6859 </r>
       <r>    -5.7656     3.4759    10.7759 </r>
       <r>    -5.7378     4.3332    10.8837 </r>
       <r>    -5.7100     4.8226    11.0122 </r>
       <r>    -5.6822     4.7527    11.1465 </r>
       <r>    -5.6545     6.0537    11.2880 </r>
       <r>    -5.6267     6.1566    11.4602 </r>
       <r>    -5.5989     6.0992    11.6303 </r>
       <r>    -5.5712     8.1784    11.8190 </r>
       <r>    -5.5434     2.4684    11.9705 </r>
       <r>    -5.5156     0.2099    12.0000 </r>
       <r>    -5.4878     0.0000    12.0000 </r>
       <r>    -5.4601     0.0000    12.0000 </r>
       <r>    -5.4323     0.0000    12.0000 </r>
       <r>    -5.4045     0.0000    12.0000 </r>
       <r>    -5.3767     0.0000    12.0000 </r>
       <r>    -5.3490     0.0000    12.0000 </r>
       <r>    -5.3212     0.0000    12.0000 </r>
       <r>    -5.2934     0.0000    12.0000 </r>
       <r>    -5.2656     0.0000    12.0000 </r>
       <r>    -5.2379     0.0000    12.0000 </r>
       <r>    -5.2101     0.0000    12.0000 </r>
       <r>    -5.1823     0.0000    12.0000 </r>
       <r>    -5.1545     0.0000    12.0000 </r>
       <r>    -5.1268     0.0000    12.0000 </r>
       <r>    -5.0990     0.0000    12.0000 </r>
       <r>    -5.0712     0.0000    12.0000 </r>
       <r>    -5.0434     0.0000    12.0000 </r>
       <r>    -5.0157     0.0000    12.0000 </r>
       <r>    -4.9879     0.0000    12.0000 </r>
       <r>    -4.9601     0.0000    12.0000 </r>
       <r>    -4.9324     0.0000    12.0000 </r>
       <r>    -4.9046     0.0000    12.0000 </r>
       <r>    -4.8768     0.0000    12.0000 </r>
       <r>    -4.8490     0.0000    12.0000 </r>
       <r>    -4.8213     0.0000    12.0000 </r>
       <r>    -4.7935     0.0000    12.0000 </r>
       <r>    -4.7657     0.0000    12.0000 </r>
       <r>    -4.7379     0.0000    12.0000 </r>
       <r>    -4.7102     0.0000    12.0000 </r>
       <r>    -4.6824     0.0000    12.0000 </r>
       <r>    -4.6546     0.0000    12.0000 </r>
       <r>    -4.6268     0.0000    12.0000 </r>
       <r>    -4.5991     0.0000    12.0000 </r>
       <r>    -4.5713     0.0000    12.0000 </r>
       <r>    -4.5435     0.0000    12.0000 </r>
       <r>    -4.5157     0.0000    12.0000 </r>
       <r>    -4.4880     0.0000    12.0000 </r>
       <r>    -4.4602     0.0000    12.0000 </r>
       <r>    -4.4324     0.0000    12.0000 </r>
       <r>    -4.4046     0.0000    12.0000 </r>
       <r>    -4.3769     0.0000    12.0000 </r>
       <r>    -4.3491     0.0000    12.0000 </r>
       <r>    -4.3213     0.0000    12.0000 </r>
       <r>    -4.2936     0.0000    12.0000 </r>
       <r>    -4.2658     0.0000    12.0000 </r>
       <r>    -4.2380     0.0000    12.0000 </r>
       <r>    -4.2102     0.0000    12.0000 </r>
       <r>    -4.1825     0.0000    12.0000 </r>
       <r>    -4.1547     0.0000    12.0000 </r>
       <r>    -4.1269     0.0000    12.0000 </r>
       <r>    -4.0991     0.0000    12.0000 </r>
       <r>    -4.0714     0.0000    12.0000 </r>
       <r>    -4.0436     0.0000    12.0000 </r>
       <r>    -4.0158     0.0000    12.0000 </r>
       <r>    -3.9880     0.0000    12.0000 </r>
       <r>    -3.9603     0.0000    12.0000 </r>
       <r>    -3.9325     0.0000    12.0000 </r>
       <r>    -3.9047     0.0000    12.0000 </r>
       <r>    -3.8769     0.0000    12.0000 </r>
       <r>    -3.8492     0.0000    12.0000 </r>
       <r>    -3.8214     0.0000    12.0000 </r>
       <r>    -3.7936     0.0000    12.0000 </r>
       <r>    -3.7659     0.0000    12.0000 </r>
       <r>    -3.7381     0.0000    12.0000 </r>
       <r>    -3.7103     0.0000    12.0000 </r>
       <r>    -3.6825     0.0000    12.0000 </r>
       <r>    -3.6548     0.0000    12.0000 </r>
       <r>    -3.6270     0.0000    12.0000 </r>
       <r>    -3.5992     0.0000    12.0000 </r>
       <r>    -3.5714     0.0000    12.0000 </r>
       <r>    -3.5437     0.0000    12.0000 </r>
       <r>    -3.5159     0.0000    12.0000 </r>
       <r>    -3.4881     0.0000    12.0000 </r>
       <r>    -3.4603     0.0000    12.0000 </r>
       <r>    -3.4326     0.0000    12.0000 </r>
       <r>    -3.4048     0.0000    12.0000 </r>
       <r>    -3.3770     0.0000    12.0000 </r>
       <r>    -3.3492     0.0000    12.0000 </r>
       <r>    -3.3215     0.0000    12.0000 </r>
       <r>    -3.2937     0.0000    12.0000 </r>
       <r>    -3.2659     0.0000    12.0000 </r>
       <r>    -3.2381     0.0000    12.0000 </r>
       <r>    -3.2104     0.0000    12.0000 </r>
       <r>    -3.1826     0.0000    12.0000 </r>
       <r>    -3.1548     0.0000    12.0000 </r>
       <r>    -3.1271     0.0000    12.0000 </r>
       <r>    -3.0993     0.0000    12.0000 </r>
       <r>    -3.0715     0.0000    12.0000 </r>
       <r>    -3.0437     0.0000    12.0000 </r>
       <r>    -3.0160     0.0000    12.0000 </r>
       <r>    -2.9882     0.0000    12.0000 </r>
       <r>    -2.9604     0.0000    12.0000 </r>
       <r>    -2.9326     0.0000    12.0000 </r>
       <r>    -2.9049     0.0000    12.0000 </r>
       <r>    -2.8771     0.0000    12.0000 </r>
       <r>    -2.8493     0.0000    12.0000 </r>
       <r>    -2.8215     0.0000    12.0000 </r>
       <r>    -2.7938     0.0000    12.0000 </r>
       <r>    -2.7660     0.0000    12.0000 </r>
       <r>    -2.7382     0.0000    12.0000 </r>
       <r>    -2.7104     0.0000    12.0000 </r>
       <r>    -2.6827     0.0000    12.0000 </r>
       <r>    -2.6549     0.0000    12.0000 </r>
       <r>    -2.6271     0.0000    12.0000 </r>
       <r>    -2.5993     0.0000    12.0000 </r>
       <r>    -2.5716     0.0000    12.0000 </r>
       <r>    -2.5438     0.0000    12.0000 </r>
       <r>    -2.5160     0.0000    12.0000 </r>
       <r>    -2.4883     0.0000    12.0000 </r>
       <r>    -2.4605     0.0000    12.0000 </r>
       <r>    -2.4327     0.0000    12.0000 </r>
       <r>    -2.4049     0.0000    12.0000 </r>
       <r>    -2.3772     0.0000    12.0000 </r>
       <r>    -2.3494     0.0000    12.0000 </r>
       <r>    -2.3216     0.0000    12.0000 </r>
       <r>    -2.2938     0.0000    12.0000 </r>
       <r>    -2.2661     0.8147    12.0061 </r>
       <r>    -2.2383     1.5449    12.0406 </r>
       <r>    -2.2105     2.2886    12.0896 </r>
       <r>    -2.1827     3.8159    12.1736 </r>
       <r>    -2.1550     7.9532    12.3234 </r>
       <r>    -2.1272     6.9498    12.5416 </r>
       <r>    -2.0994     4.9261    12.7097 </r>
       <r>    -2.0716     2.9059    12.8104 </r>
       <r>    -2.0439     2.4242    12.8842 </r>
       <r>    -2.0161     2.0499    12.9461 </r>
       <r>    -1.9883     1.7829    12.9991 </r>
       <r>    -1.9605     1.6229    13.0461 </r>
       <r>    -1.9328     1.5125    13.0896 </r>
       <r>    -1.9050     1.4114    13.1302 </r>
       <r>    -1.8772     1.3209    13.1681 </r>
       <r>    -1.8495     1.2412    13.2037 </r>
       <r>    -1.8217     1.1722    13.2372 </r>
       <r>    -1.7939     1.1131    13.2689 </r>
       <r>    -1.7661     1.0575    13.2990 </r>
       <r>    -1.7384     1.0041    13.3277 </r>
       <r>    -1.7106     0.9530    13.3548 </r>
       <r>    -1.6828     0.9042    13.3806 </r>
       <r>    -1.6550     0.8577    13.4051 </r>
       <r>    -1.6273     0.8135    13.4283 </r>
       <r>    -1.5995     0.7716    13.4503 </r>
       <r>    -1.5717     0.6898    13.4706 </r>
       <r>    -1.5439     0.6181    13.4888 </r>
       <r>    -1.5162     0.5658    13.5052 </r>
       <r>    -1.4884     0.5327    13.5204 </r>
       <r>    -1.4606     0.5181    13.5349 </r>
       <r>    -1.4328     0.5081    13.5492 </r>
       <r>    -1.4051     0.4983    13.5632 </r>
       <r>    -1.3773     0.4886    13.5769 </r>
       <r>    -1.3495     0.4789    13.5903 </r>
       <r>    -1.3217     0.4695    13.6035 </r>
       <r>    -1.2940     0.4601    13.6164 </r>
       <r>    -1.2662     0.4508    13.6290 </r>
       <r>    -1.2384     0.4417    13.6414 </r>
       <r>    -1.2107     0.4326    13.6536 </r>
       <r>    -1.1829     0.4237    13.6654 </r>
       <r>    -1.1551     0.4149    13.6771 </r>
       <r>    -1.1273     0.4061    13.6885 </r>
       <r>    -1.0996     0.3971    13.6996 </r>
       <r>    -1.0718     0.3878    13.7105 </r>
       <r>    -1.0440     0.3780    13.7212 </r>
       <r>    -1.0162     0.3677    13.7315 </r>
       <r>    -0.9885     0.3569    13.7416 </r>
       <r>    -0.9607     0.3457    13.7514 </r>
       <r>    -0.9329     0.3339    13.7608 </r>
       <r>    -0.9051     0.3217    13.7699 </r>
       <r>    -0.8774     0.3089    13.7787 </r>
       <r>    -0.8496     0.2957    13.7871 </r>
       <r>    -0.8218     0.2820    13.7951 </r>
       <r>    -0.7940     0.2678    13.8027 </r>
       <r>    -0.7663     0.2544    13.8100 </r>
       <r>    -0.7385     0.2420    13.8169 </r>
       <r>    -0.7107     0.2304    13.8234 </r>
       <r>    -0.6830     0.2196    13.8297 </r>
       <r>    -0.6552     0.2097    13.8356 </r>
       <r>    -0.6274     0.2006    13.8413 </r>
       <r>    -0.5996     0.1923    13.8468 </r>
       <r>    -0.5719     0.1849    13.8520 </r>
       <r>    -0.5441     0.1784    13.8571 </r>
       <r>    -0.5163     0.1727    13.8619 </r>
       <r>    -0.4885     0.7472    13.8777 </r>
       <r>    -0.4608     1.0934    13.8995 </r>
       <r>    -0.4330     2.0357    13.9420 </r>
       <r>    -0.4052     1.8772    13.9985 </r>
       <r>    -0.3774     2.0214    14.0527 </r>
       <r>    -0.3497     2.1133    14.1103 </r>
       <r>    -0.3219     2.1527    14.1696 </r>
       <r>    -0.2941     2.1398    14.2294 </r>
       <r>    -0.2663     2.0745    14.2880 </r>
       <r>    -0.2386     1.9567    14.3441 </r>
       <r>    -0.2108     2.1033    14.3987 </r>
       <r>    -0.1830     1.9356    14.4565 </r>
       <r>    -0.1552     1.6182    14.5036 </r>
       <r>    -0.1275     1.6198    14.5485 </r>
       <r>    -0.0997     1.6176    14.5935 </r>
       <r>    -0.0719     1.6117    14.6384 </r>
       <r>    -0.0442     1.6020    14.6830 </r>
       <r>    -0.0164     1.5886    14.7273 </r>
       <r>     0.0114     1.5715    14.7712 </r>
       <r>     0.0392     1.5506    14.8146 </r>
       <r>     0.0669     1.5260    14.8573 </r>
       <r>     0.0947     1.6012    14.8995 </r>
       <r>     0.1225     2.5789    14.9576 </r>
       <r>     0.1503     3.4835    15.0423 </r>
       <r>     0.1780     2.9860    15.1299 </r>
       <r>     0.2058     3.2265    15.2171 </r>
       <r>     0.2336     2.4476    15.2912 </r>
       <r>     0.2614     2.4587    15.3593 </r>
       <r>     0.2891     2.4684    15.4277 </r>
       <r>     0.3169     2.4766    15.4964 </r>
       <r>     0.3447     2.4835    15.5653 </r>
       <r>     0.3725     2.4896    15.6343 </r>
       <r>     0.4002     2.4931    15.7036 </r>
       <r>     0.4280     2.4674    15.7725 </r>
       <r>     0.4558     2.4590    15.8410 </r>
       <r>     0.4836     2.4405    15.9090 </r>
       <r>     0.5113     2.4306    15.9766 </r>
       <r>     0.5391     2.4317    16.0441 </r>
       <r>     0.5669     2.4419    16.1118 </r>
       <r>     0.5946     2.4467    16.1797 </r>
       <r>     0.6224     2.4450    16.2477 </r>
       <r>     0.6502     2.4417    16.3155 </r>
       <r>     0.6780     2.4373    16.3833 </r>
       <r>     0.7057     2.4306    16.4509 </r>
       <r>     0.7335     2.4211    16.5183 </r>
       <r>     0.7613     2.4087    16.5853 </r>
       <r>     0.7891     2.3936    16.6520 </r>
       <r>     0.8168     2.3756    16.7183 </r>
       <r>     0.8446     2.3549    16.7840 </r>
       <r>     0.8724     2.3313    16.8491 </r>
       <r>     0.9002     2.3049    16.9134 </r>
       <r>     0.9279     2.2938    16.9772 </r>
       <r>     0.9557     2.3129    17.0411 </r>
       <r>     0.9835     2.3684    17.1060 </r>
       <r>     1.0113     2.3858    17.1724 </r>
       <r>     1.0390     2.3576    17.2383 </r>
       <r>     1.0668     2.2958    17.3032 </r>
       <r>     1.0946     2.1651    17.3651 </r>
       <r>     1.1224     2.0133    17.4232 </r>
       <r>     1.1501     1.8368    17.4767 </r>
       <r>     1.1779     1.6405    17.5250 </r>
       <r>     1.2057     1.5458    17.5693 </r>
       <r>     1.2334     1.4450    17.6108 </r>
       <r>     1.2612     1.3381    17.6495 </r>
       <r>     1.2890     1.2250    17.6851 </r>
       <r>     1.3168     1.1067    17.7175 </r>
       <r>     1.3445     1.0012    17.7467 </r>
       <r>     1.3723     0.9131    17.7733 </r>
       <r>     1.4001     0.8422    17.7976 </r>
       <r>     1.4279     0.7794    17.8201 </r>
       <r>     1.4556     0.7210    17.8409 </r>
       <r>     1.4834     0.6698    17.8602 </r>
       <r>     1.5112     0.6261    17.8782 </r>
       <r>     1.5390     0.5897    17.8951 </r>
       <r>     1.5667     0.5607    17.9110 </r>
       <r>     1.5945     0.5391    17.9263 </r>
       <r>     1.6223     0.5249    17.9410 </r>
       <r>     1.6501     0.5142    17.9555 </r>
       <r>     1.6778     0.4606    17.9692 </r>
       <r>     1.7056     0.3508    17.9806 </r>
       <r>     1.7334     0.2400    17.9886 </r>
       <r>     1.7612     0.1552    17.9941 </r>
       <r>     1.7889     0.0889    17.9974 </r>
       <r>     1.8167     0.0409    17.9992 </r>
       <r>     1.8445     0.0113    17.9999 </r>
       <r>     1.8722     0.0001    18.0000 </r>
       <r>     1.9000     0.0000    18.0000 </r>
       <r>     1.9278     0.0000    18.0000 </r>
       <r>     1.9556     0.0000    18.0000 </r>
       <r>     1.9833     0.0000    18.0000 </r>
       <r>     2.0111     0.0000    18.0000 </r>
       <r>     2.0389     0.0000    18.0000 </r>
       <r>     2.0667     0.0000    18.0000 </r>
       <r>     2.0944     0.0000    18.0000 </r>
       <r>     2.1222     0.0000    18.0000 </r>
       <r>     2.1500     0.0000    18.0000 </r>
       <r>     2.1778     0.0000    18.0000 </r>
       <r>     2.2055     0.0000    18.0000 </r>
       <r>     2.2333     0.0000    18.0000 </r>
       <r>     2.2611     0.0000    18.0000 </r>
       <r>     2.2889     0.0000    18.0000 </r>
       <r>     2.3166     0.0000    18.0000 </r>
       <r>     2.3444     0.0000    18.0000 </r>
       <r>     2.3722     0.0000    18.0000 </r>
       <r>     2.3999     0.0000    18.0000 </r>
       <r>     2.4277     0.0000    18.0000 </r>
       <r>     2.4555     0.0000    18.0000 </r>
       <r>     2.4833     0.0002    18.0000 </r>
       <r>     2.5110     0.0003    18.0000 </r>
       <r>     2.5388     0.0006    18.0000 </r>
       <r>     2.5666     0.0009    18.0000 </r>
       <r>     2.5944     0.0013    18.0001 </r>
       <r>     2.6221     0.0017    18.0001 </r>
       <r>     2.6499     0.0022    18.0002 </r>
       <r>     2.6777     0.0028    18.0002 </r>
       <r>     2.7055     0.0035    18.0003 </r>
       <r>     2.7332     0.0042    18.0004 </r>
[...]
        <r>  0.0037  0.0105  0.0052  0.0036  0.0057  0.0320  0.0689  0.0067  0.0242 </r>
       </set>
       <set comment="band 24">
        <r>  0.0046  0.0106  0.0028  0.0040  0.0066  0.0052  0.0006  0.0099  0.0294 </r>
        <r>  0.0044  0.0084  0.0013  0.0003  0.0356  0.0074  0.0846  0.0041  0.0651 </r>
       </set>
       <set comment="band 25">
        <r>  0.0007  0.0224  0.0389  0.0021  0.0013  0.0086  0.0081  0.0178  0.0217 </r>
        <r>  0.0009  0.0199  0.0515  0.0006  0.0276  0.0513  0.1323  0.0152  0.0692 </r>
       </set>
       <set comment="band 26">
        <r>  0.0163  0.0227  0.0052  0.0112  0.0245  0.0061  0.0025  0.0229  0.0005 </r>
        <r>  0.0045  0.0010  0.0093  0.0020  0.1252  0.0079  0.0284  0.0013  0.0076 </r>
       </set>
       <set comment="band 27">
        <r>  0.0181  0.0128  0.0088  0.0004  0.0011  0.0041  0.0404  0.0080  0.0095 </r>
        <r>  0.0476  0.0153  0.0143  0.0035  0.0030  0.0283  0.0145  0.0073  0.0067 </r>
       </set>
       <set comment="band 28">
        <r>  0.0113  0.0162  0.0051  0.0041  0.0457  0.0154  0.0177  0.0097  0.0020 </r>
        <r>  0.0041  0.0001  0.0024  0.0084  0.0178  0.0524  0.0006  0.0701  0.0105 </r>
       </set>
       <set comment="band 29">
        <r>  0.0074  0.0058  0.0006  0.0145  0.0084  0.0158  0.0120  0.0063  0.0094 </r>
        <r>  0.0019  0.0011  0.0035  0.0053  0.0259  0.0854  0.0025  0.0310  0.0194 </r>
       </set>
       <set comment="band 30">
        <r>  0.0102  0.0015  0.0001  0.0201  0.0070  0.0033  0.0059  0.0133  0.0247 </r>
        <r>  0.0059  0.0048  0.0021  0.0096  0.0326  0.0002  0.0103  0.0112  0.0175 </r>
       </set>
       <set comment="band 31">
        <r>  0.0022  0.0098  0.0638  0.0004  0.0027  0.0035  0.0238  0.0131  0.0140 </r>
        <r>  0.0002  0.0005  0.0009  0.0008  0.0534  0.0065  0.0452  0.0848  0.0012 </r>
       </set>
       <set comment="band 32">
        <r>  0.0180  0.0012  0.0045  0.0065  0.0204  0.0260  0.0101  0.0001  0.0147 </r>
        <r>  0.0033  0.0016  0.0012  0.0076  0.0043  0.0214  0.0086  0.0186  0.0201 </r>
       </set>
       <set comment="band 33">
        <r>  0.0190  0.0195  0.0103  0.0018  0.0088  0.0024  0.0104  0.0236  0.0012 </r>
        <r>  0.0011  0.0011  0.0035  0.0024  0.0014  0.0449  0.1073  0.0015  0.0501 </r>
       </set>
       <set comment="band 34">
        <r>  0.0100  0.0075  0.0003  0.0245  0.0146  0.0139  0.0101  0.0005  0.0085 </r>
        <r>  0.0051  0.0017  0.0155  0.0063  0.0209  0.0964  0.0296  0.0157  0.0018 </r>
       </set>
       <set comment="band 35">
        <r>  0.0270  0.0191  0.0165  0.0092  0.0079  0.0002  0.0076  0.0220  0.0133 </r>
        <r>  0.0023  0.0076  0.0066  0.0001  0.0053  0.1442  0.0657  0.0419  0.0041 </r>
       </set>
       <set comment="band 36">
        <r>  0.0022  0.0172  0.0043  0.0021  0.0341  0.0009  0.0481  0.0016  0.0001 </r>
        <r>  0.0090  0.0039  0.0150  0.0017  0.0288  0.0074  0.2716  0.0128  0.0036 </r>
       </set>
      </set>
      <set comment="kpoint 19">
       <set comment="band 1">
        <r>  0.0026  0.0032  0.0012  0.0075  0.0260  0.0041  0.0753  0.0083  0.0116 </r>
        <r>  0.5812  0.0000  0.0000  0.0000  0.0000  0.0000  0.0000  0.0000  0.0000 </r>
       </set>
       <set comment="band 2">
        <r>  0.0001  0.0001  0.0002  0.0000  0.0225  0.1443  0.1663  0.2022  0.3946 </r>
        <r>  0.0002  0.0049  0.0038  0.0001  0.0001  0.0002  0.0000  0.0004  0.0005 </r>
       </set>
       <set comment="band 3">
        <r>  0.0001  0.0002  0.0003  0.0001  0.2647  0.1646  0.0594  0.1949  0.2407 </r>
        <r>  0.0000  0.0033  0.0035  0.0043  0.0000  0.0000  0.0000  0.0003  0.0003 </r>
       </set>
       <set comment="band 4">
        <r>  0.0005  0.0000  0.0000  0.0000  0.4496  0.0451  0.1668  0.0891  0.1847 </r>
        <r>  0.0000  0.0006  0.0006  0.0016  0.0002  0.0001  0.0004  0.0002  0.0002 </r>
       </set>
       <set comment="band 5">
        <r>  0.0000  0.0000  0.0000  0.0000  0.0071  0.5521  0.0022  0.3801  0.0073 </r>
        <r>  0.0000  0.0001  0.0001  0.0001  0.0000  0.0001  0.0000  0.0000  0.0001 </r>
       </set>
       <set comment="band 6">
        <r>  0.0028  0.0008  0.0002  0.0022  0.1598  0.0311  0.4673  0.0678  0.0978 </r>
        <r>  0.0929  0.0003  0.0001  0.0015  0.0002  0.0000  0.0001  0.0000  0.0001 </r>
       </set>
       <set comment="band 7">
        <r>  0.2426  0.0008  0.0009  0.0005  0.0108  0.0000  0.0081  0.0006  0.0003 </r>
        <r>  0.0085  0.0492  0.0185  0.1458  0.0008  0.0001  0.0022  0.0003  0.0003 </r>
       </set>
       <set comment="band 8">
        <r>  0.0056  0.0121  0.0317  0.0261  0.0076  0.0080  0.0015  0.0025  0.0043 </r>
        <r>  0.0006  0.0818  0.1556  0.1008  0.0004  0.0003  0.0003  0.0000  0.0000 </r>
       </set>
       <set comment="band 9">
        <r>  0.0003  0.0361  0.0305  0.0075  0.0022  0.0019  0.0023  0.0057  0.0095 </r>
        <r>  0.0000  0.1815  0.1598  0.0130  0.0007  0.0002  0.0002  0.0001  0.0002 </r>
       </set>
       <set comment="band 10">
        <r>  0.2015  0.0089  0.0029  0.0016  0.0114  0.0013  0.0073  0.0002  0.0041 </r>
        <r>  0.0001  0.0721  0.0370  0.0682  0.0117  0.0003  0.0329  0.0003  0.0012 </r>
       </set>
       <set comment="band 11">
        <r>  0.0162  0.0274  0.0028  0.0541  0.0084  0.0004  0.0197  0.0010  0.0014 </r>
        <r>  0.0414  0.0036  0.0253  0.0386  0.0215  0.0001  0.0090  0.0001  0.0041 </r>
       </set>
       <set comment="band 12">
        <r>  0.0143  0.0488  0.0476  0.0111  0.0068  0.0087  0.0032  0.0014  0.0039 </r>
        <r>  0.0246  0.0628  0.0291  0.0044  0.0095  0.0311  0.0085  0.0010  0.0108 </r>
       </set>
       <set comment="band 13">
        <r>  0.0223  0.0280  0.0572  0.0353  0.0029  0.0003  0.0022  0.0037  0.0068 </r>
        <r>  0.0064  0.0082  0.0395  0.1034  0.0025  0.0060  0.0072  0.0342  0.0174 </r>
       </set>
       <set comment="band 14">
        <r>  0.0031  0.0530  0.0589  0.0091  0.0021  0.0069  0.0000  0.0091  0.0135 </r>
        <r>  0.0020  0.0695  0.0603  0.0922  0.0044  0.0155  0.0012  0.0137  0.0144 </r>
       </set>
       <set comment="band 15">
        <r>  0.0021  0.0056  0.0096  0.0677  0.0080  0.0134  0.0124  0.0228  0.0016 </r>
        <r>  0.0280  0.0079  0.0030  0.0112  0.0021  0.0539  0.0059  0.0224  0.0674 </r>
       </set>
       <set comment="band 16">
        <r>  0.0013  0.0392  0.0566  0.0176  0.0004  0.0047  0.0005  0.0008  0.0036 </r>
        <r>  0.0033  0.0075  0.0176  0.0350  0.0077  0.0928  0.0006  0.1158  0.0370 </r>
       </set>
       <set comment="band 17">
        <r>  0.0006  0.0247  0.0080  0.0369  0.0006  0.0119  0.0043  0.0031  0.0106 </r>
        <r>  0.0039  0.0253  0.0219  0.0200  0.0064  0.0275  0.0013  0.0720  0.0475 </r>
       </set>
       <set comment="band 18">
        <r>  0.0173  0.0074  0.0030  0.0094  0.0040  0.0063  0.0004  0.0110  0.0141 </r>
        <r>  0.0019  0.0048  0.0113  0.0075  0.0571  0.0213  0.0111  0.0522  0.0478 </r>
       </set>
       <set comment="band 19">
        <r>  0.0088  0.0358  0.0083  0.0411  0.0069  0.0067  0.0039  0.0053  0.0036 </r>
        <r>  0.0007  0.0075  0.0103  0.0028  0.0230  0.0095  0.0186  0.0159  0.0098 </r>
       </set>
       <set comment="band 20">
        <r>  0.0182  0.0051  0.0067  0.0084  0.0096  0.0186  0.0080  0.0403  0.0059 </r>
        <r>  0.0352  0.0143  0.0117  0.0003  0.0480  0.0014  0.0264  0.0042  0.0189 </r>
       </set>
       <set comment="band 21">
        <r>  0.0007  0.0149  0.0029  0.0219  0.0037  0.0450  0.0017  0.0046  0.0119 </r>
        <r>  0.0039  0.0338  0.0175  0.0010  0.0233  0.1070  0.0027  0.0219  0.0747 </r>
       </set>
       <set comment="band 22">
        <r>  0.0053  0.0009  0.0062  0.0313  0.0033  0.0063  0.0012  0.0049  0.0028 </r>
        <r>  0.0090  0.0072  0.0011  0.0041  0.0297  0.0011  0.0203  0.0175  0.0350 </r>
       </set>
       <set comment="band 23">
        <r>  0.0098  0.0050  0.0161  0.0310  0.0073  0.0072  0.0014  0.0155  0.0188 </r>
        <r>  0.0043  0.0015  0.0031  0.0018  0.0009  0.0046  0.0011  0.0058  0.0123 </r>
       </set>
       <set comment="band 24">
        <r>  0.0008  0.0134  0.0134  0.0016  0.0032  0.0047  0.0014  0.0167  0.0050 </r>
        <r>  0.0000  0.0003  0.0002  0.0000  0.1103  0.0031  0.0435  0.0014  0.0188 </r>
       </set>
       <set comment="band 25">
        <r>  0.0548  0.0044  0.0063  0.0020  0.0021  0.0064  0.0046  0.0207  0.0355 </r>
        <r>  0.0001  0.0016  0.0031  0.0023  0.0879  0.0082  0.2067  0.0144  0.0033 </r>
       </set>
       <set comment="band 26">
        <r>  0.0001  0.0074  0.0162  0.0177  0.0157  0.0028  0.0101  0.0050  0.0153 </r>
        <r>  0.0015  0.0126  0.0170  0.0061  0.0399  0.0066  0.1743  0.0152  0.0446 </r>
       </set>
       <set comment="band 27">
        <r>  0.0006  0.0249  0.0159  0.0015  0.0049  0.0001  0.0190  0.0095  0.0098 </r>
        <r>  0.0464  0.0050  0.0174  0.0164  0.0014  0.0055  0.0036  0.0084  0.0189 </r>
       </set>
       <set comment="band 28">
        <r>  0.0070  0.0135  0.0156  0.0029  0.0057  0.0292  0.0047  0.0192  0.0422 </r>
        <r>  0.0095  0.0103  0.0097  0.0009  0.0924  0.0047  0.0418  0.0167  0.0031 </r>
       </set>
       <set comment="band 29">
        <r>  0.0176  0.0247  0.0085  0.0040  0.0604  0.0070  0.0287  0.0208  0.0177 </r>
        <r>  0.0000  0.0049  0.0076  0.0029  0.0027  0.0020  0.0164  0.0056  0.0117 </r>
       </set>
       <set comment="band 30">
        <r>  0.0043  0.0127  0.0167  0.0122  0.0164  0.0019  0.0487  0.0006  0.0011 </r>
        <r>  0.0002  0.0004  0.0013  0.0018  0.0131  0.0926  0.0047  0.0870  0.0125 </r>
       </set>
       <set comment="band 31">
        <r>  0.0044  0.0219  0.0149  0.0123  0.0142  0.0008  0.0347  0.0017  0.0000 </r>
        <r>  0.0033  0.0049  0.0069  0.0020  0.0073  0.0809  0.0009  0.0847  0.0373 </r>
       </set>
       <set comment="band 32">
        <r>  0.0582  0.0037  0.0044  0.0013  0.0075  0.0077  0.0044  0.0019  0.0106 </r>
        <r>  0.0024  0.0021  0.0008  0.0008  0.0410  0.0283  0.0223  0.0033  0.0436 </r>
       </set>
       <set comment="band 33">
        <r>  0.0115  0.0049  0.0213  0.0249  0.0225  0.0057  0.0091  0.0093  0.0124 </r>
        <r>  0.0000  0.0077  0.0002  0.0140  0.0743  0.0423  0.0199  0.0049  0.0092 </r>
       </set>
       <set comment="band 34">
        <r>  0.0039  0.0031  0.0097  0.0090  0.0090  0.0130  0.0039  0.0108  0.0029 </r>
        <r>  0.0000  0.0028  0.0038  0.0030  0.0572  0.0040  0.1707  0.0005  0.0031 </r>
       </set>
       <set comment="band 35">
        <r>  0.0108  0.0001  0.0007  0.0038  0.0230  0.0214  0.0125  0.0172  0.0080 </r>
        <r>  0.0005  0.0186  0.0267  0.0097  0.0418  0.0027  0.1618  0.0050  0.0208 </r>
       </set>
       <set comment="band 36">
        <r>  0.0004  0.0077  0.0096  0.0158  0.0187  0.0003  0.0290  0.0031  0.0020 </r>
        <r>  0.0441  0.0064  0.0162  0.0112  0.1449  0.0053  0.0594  0.0009  0.0351 </r>
       </set>
      </set>
      <set comment="kpoint 20">
       <set comment="band 1">
        <r>  0.0012  0.0049  0.0011  0.0060  0.0218  0.0041  0.0574  0.0083  0.0381 </r>
        <r>  0.5804  0.0000  0.0000  0.0000  0.0000  0.0000  0.0000  0.0000  0.0000 </r>
       </set>
       <set comment="band 2">
        <r>  0.0001  0.0002  0.0000  0.0001  0.0476  0.0140  0.4592  0.0254  0.3802 </r>
        <r>  0.0001  0.0043  0.0007  0.0041  0.0003  0.0001  0.0000  0.0001  0.0006 </r>
       </set>
       <set comment="band 3">
        <r>  0.0000  0.0001  0.0004  0.0000  0.1163  0.2684  0.0001  0.4888  0.0529 </r>
        <r>  0.0000  0.0010  0.0085  0.0017  0.0000  0.0002  0.0001  0.0004  0.0000 </r>
       </set>
       <set comment="band 4">
        <r>  0.0001  0.0000  0.0000  0.0000  0.5552  0.0494  0.0702  0.0659  0.2014 </r>
        <r>  0.0000  0.0001  0.0000  0.0002  0.0002  0.0000  0.0004  0.0001  0.0003 </r>
       </set>
       <set comment="band 5">
        <r>  0.0002  0.0000  0.0000  0.0000  0.0535  0.5792  0.0072  0.2987  0.0070 </r>
        <r>  0.0000  0.0003  0.0003  0.0004  0.0000  0.0001  0.0000  0.0001  0.0000 </r>
       </set>
       <set comment="band 6">
        <r>  0.0011  0.0014  0.0003  0.0016  0.1458  0.0253  0.3425  0.0503  0.2637 </r>
        <r>  0.1005  0.0002  0.0001  0.0002  0.0000  0.0000  0.0001  0.0000  0.0000 </r>
       </set>
       <set comment="band 7">
        <r>  0.2545  0.0007  0.0000  0.0013  0.0029  0.0012  0.0003  0.0007  0.0013 </r>
        <r>  0.0023  0.0924  0.0148  0.1079  0.0009  0.0001  0.0015  0.0003  0.0015 </r>
       </set>
       <set comment="band 8">
        <r>  0.0006  0.0397  0.0013  0.0285  0.0056  0.0013  0.0123  0.0011  0.0051 </r>
        <r>  0.0002  0.1716  0.0000  0.1440  0.0005  0.0001  0.0003  0.0000  0.0001 </r>
       </set>
       <set comment="band 9">
        <r>  0.0018  0.0044  0.0591  0.0088  0.0030  0.0085  0.0002  0.0121  0.0006 </r>
        <r>  0.0003  0.0120  0.3281  0.0160  0.0003  0.0004  0.0006  0.0004  0.0001 </r>
       </set>
       <set comment="band 10">
        <r>  0.1614  0.0109  0.0033  0.0217  0.0010  0.0016  0.0176  0.0017  0.0006 </r>
        <r>  0.0188  0.0365  0.0657  0.0613  0.0003  0.0004  0.0367  0.0009  0.0014 </r>
       </set>
       <set comment="band 11">
        <r>  0.0776  0.0094  0.0000  0.0186  0.0055  0.0022  0.0126  0.0028  0.0037 </r>
        <r>  0.0031  0.1225  0.0039  0.0867  0.0289  0.0013  0.0007  0.0012  0.0108 </r>
       </set>
       <set comment="band 12">
        <r>  0.0088  0.0286  0.0791  0.0341  0.0018  0.0030  0.0001  0.0051  0.0101 </r>
        <r>  0.0440  0.0145  0.0369  0.0174  0.0008  0.0242  0.0004  0.0168  0.0045 </r>
       </set>
       <set comment="band 13">
        <r>  0.0031  0.0575  0.0111  0.0340  0.0188  0.0055  0.0003  0.0047  0.0039 </r>
        <r>  0.0123  0.0091  0.0003  0.0168  0.0177  0.0086  0.0210  0.0134  0.0243 </r>
       </set>
       <set comment="band 14">
        <r>  0.0011  0.0332  0.0839  0.0271  0.0019  0.0033  0.0062  0.0059  0.0145 </r>
        <r>  0.0102  0.0595  0.0641  0.0725  0.0026  0.0157  0.0003  0.0168  0.0103 </r>
       </set>
       <set comment="band 15">
        <r>  0.0027  0.0141  0.0324  0.0072  0.0056  0.0262  0.0001  0.0205  0.0026 </r>
        <r>  0.0087  0.0165  0.0060  0.0177  0.0011  0.0645  0.0089  0.0777  0.0086 </r>
       </set>
       <set comment="band 16">
        <r>  0.0006  0.0729  0.0002  0.0745  0.0025  0.0054  0.0128  0.0075  0.0012 </r>
        <r>  0.0031  0.0356  0.0000  0.0572  0.0120  0.0265  0.0000  0.0377  0.0954 </r>
       </set>
       <set comment="band 17">
        <r>  0.0000  0.0172  0.0334  0.0248  0.0037  0.0046  0.0003  0.0023  0.0011 </r>
        <r>  0.0146  0.0210  0.0325  0.0148  0.0581  0.0629  0.0028  0.0328  0.0086 </r>
       </set>
       <set comment="band 18">
        <r>  0.0088  0.0038  0.0000  0.0061  0.0087  0.0023  0.0081  0.0035  0.0066 </r>
        <r>  0.0014  0.0060  0.0003  0.0063  0.0406  0.0155  0.0748  0.0163  0.0368 </r>
       </set>
       <set comment="band 19">
        <r>  0.0276  0.0183  0.0006  0.0315  0.0018  0.0103  0.0004  0.0054  0.0131 </r>
        <r>  0.0082  0.0000  0.0074  0.0000  0.0055  0.0224  0.0011  0.0122  0.0414 </r>
       </set>
       <set comment="band 20">
        <r>  0.0049  0.0244  0.0199  0.0271  0.0005  0.0026  0.0031  0.0045  0.0005 </r>
        <r>  0.0031  0.0656  0.0431  0.0329  0.1468  0.0433  0.0007  0.0325  0.0344 </r>
       </set>
       <set comment="band 21">
        <r>  0.0131  0.0007  0.0107  0.0010  0.0127  0.0147  0.0039  0.0212  0.0159 </r>
        <r>  0.0005  0.0023  0.0001  0.0028  0.0376  0.0081  0.0037  0.0063  0.0197 </r>
       </set>
       <set comment="band 22">
        <r>  0.0176  0.0053  0.0002  0.0028  0.0004  0.0279  0.0016  0.0255  0.0008 </r>
        <r>  0.0007  0.0069  0.0004  0.0137  0.0259  0.0730  0.0141  0.1413  0.0983 </r>
       </set>
       <set comment="band 23">
        <r>  0.0072  0.0306  0.0063  0.0353  0.0034  0.0160  0.0021  0.0121  0.0197 </r>
        <r>  0.0003  0.0003  0.0019  0.0006  0.0026  0.0011  0.0021  0.0006  0.0086 </r>
       </set>
       <set comment="band 24">
        <r>  0.0009  0.0011  0.0093  0.0019  0.0331  0.0002  0.0000  0.0002  0.0412 </r>
        <r>  0.0373  0.0008  0.0269  0.0015  0.0379  0.0090  0.2001  0.0045  0.0086 </r>
       </set>
       <set comment="band 25">
        <r>  0.0030  0.0262  0.0123  0.0162  0.0408  0.0013  0.0074  0.0007  0.0056 </r>
        <r>  0.0075  0.0016  0.0042  0.0008  0.0801  0.0018  0.0046  0.0032  0.0296 </r>
       </set>
       <set comment="band 26">
        <r>  0.0006  0.0207  0.0013  0.0105  0.0147  0.0189  0.0299  0.0323  0.0254 </r>
        <r>  0.0171  0.0005  0.0088  0.0003  0.0449  0.0135  0.1583  0.0068  0.0225 </r>
       </set>
       <set comment="band 27">
        <r>  0.0069  0.0105  0.0305  0.0117  0.0003  0.0049  0.0001  0.0034  0.0006 </r>
        <r>  0.0348  0.0001  0.0081  0.0002  0.0006  0.0060  0.0286  0.0121  0.0001 </r>
       </set>
       <set comment="band 28">
        <r>  0.0080  0.0366  0.0001  0.0413  0.0089  0.0170  0.0039  0.0329  0.0169 </r>
        <r>  0.0039  0.0023  0.0209  0.0015  0.0153  0.0088  0.0003  0.0088  0.1183 </r>
       </set>
       <set comment="band 29">
        <r>  0.0008  0.0015  0.0005  0.0008  0.0014  0.0195  0.0003  0.0100  0.0115 </r>
        <r>  0.0000  0.0003  0.0015  0.0006  0.0079  0.1450  0.0000  0.0726  0.0028 </r>
       </set>
       <set comment="band 30">
        <r>  0.0634  0.0054  0.0400  0.0039  0.0001  0.0001  0.0731  0.0003  0.0001 </r>
        <r>  0.0008  0.0023  0.0017  0.0020  0.0011  0.0069  0.0791  0.0108  0.0055 </r>
       </set>
       <set comment="band 31">
        <r>  0.0002  0.0013  0.0030  0.0018  0.0581  0.0126  0.0005  0.0108  0.0407 </r>
        <r>  0.0016  0.0039  0.0073  0.0035  0.0010  0.0027  0.0000  0.0032  0.0074 </r>
       </set>
       <set comment="band 32">
        <r>  0.0099  0.0079  0.0165  0.0094  0.0018  0.0290  0.0178  0.0219  0.0133 </r>
        <r>  0.0002  0.0038  0.0000  0.0051  0.0008  0.0409  0.0002  0.0575  0.0034 </r>
       </set>
       <set comment="band 33">
        <r>  0.0498  0.0011  0.0371  0.0007  0.0016  0.0111  0.0096  0.0059  0.0002 </r>
        <r>  0.0010  0.0012  0.0013  0.0006  0.0054  0.0122  0.0075  0.0198  0.0010 </r>
       </set>
       <set comment="band 34">
        <r>  0.0106  0.0149  0.0026  0.0077  0.0126  0.0054  0.0077  0.0040  0.0053 </r>
        <r>  0.0053  0.0067  0.0119  0.0044  0.0361  0.0481  0.0426  0.0249  0.0050 </r>
       </set>
       <set comment="band 35">
        <r>  0.0048  0.0100  0.0020  0.0133  0.0151  0.0043  0.0542  0.0085  0.0022 </r>
        <r>  0.0062  0.0005  0.0275  0.0011  0.0061  0.0104  0.4251  0.0055  0.0009 </r>
       </set>
       <set comment="band 36">
        <r>  0.0060  0.0026  0.0115  0.0089  0.0302  0.0003  0.0079  0.0004  0.0106 </r>
        <r>  0.0014  0.0127  0.0026  0.0211  0.0601  0.0044  0.0013  0.0079  0.0068 </r>
       </set>
      </set>
     </set>
    </set>
   </array>
  </projected>
 </calculation>
 <structure name="finalpos" >
  <crystal>
   <varray name="basis" >
    <v>       4.01975093       0.00000000       2.32080404 </v>
    <v>       1.33991663       3.78985854       2.32080404 </v>
    <v>       0.00000000       0.00000000       4.64161015 </v>
   </varray>
   <i name="volume">     70.71162285 </i>
   <varray name="rec_basis" >
    <v>       0.24877163      -0.08795401       0.00000000 </v>
    <v>       0.00000000       0.26386209       0.00000000 </v>
    <v>      -0.12438576      -0.08795400       0.21544248 </v>
   </varray>
  </crystal>
  <varray name="positions" >
   <v>       0.00000000       0.00000000       0.00000000 </v>
   <v>       0.25000000       0.25000000       0.25000000 </v>
  </varray>
 </structure>
</modeling>
