<?xml version="1.0" encoding="ISO-8859-1"?>
<modeling>
 <generator>
  <i name="program" type="string">vasp </i>
  <i name="version" type="string">6.4.2  </i>
  <i name="subversion" type="string">20Jul23 (build Mar 15 2024 16:31:38) complex                          parallel </i>
  <i name="platform" type="string">LinuxIFC </i>
  <i name="date" type="string">2025 03 24 </i>
  <i name="time" type="string">15:46:56 </i>
 </generator>
 <incar>
  <i type="string" name="PREC">Accurate</i>
  <i type="string" name="ALGO">Normal</i>
  <i type="int" name="ISPIN">     1</i>
  <i type="int" name="NELM">   200</i>
  <i type="int" name="NELMIN">     5</i>
  <i name="EDIFF">      0.00001000</i>
  <i type="int" name="NSW">     0</i>
  <i name="ENCUT">    680.00000000</i>
  <i name="ENAUG">   1360.00000000</i>
  <i type="int" name="NBANDS">    44</i>
  <i type="int" name="NEDOS">  1689</i>
  <i type="logical" name="LREAL"> F  </i>
  <i type="int" name="ISMEAR">    -5</i>
  <i name="SIGMA">      0.05000000</i>
  <i type="int" name="LMAXMIX">     4</i>
  <i type="logical" name="LWAVE"> T  </i>
  <i type="logical" name="LCHARG"> T  </i>
  <i type="logical" name="LVTOT"> T  </i>
  <i type="int" name="LORBIT">    11</i>
  <i type="logical" name="LELF"> F  </i>
  <i type="logical" name="LOPTICS"> T  </i>
  <i type="logical" name="LASPH"> T  </i>
  <i type="logical" name="LAECHG"> T  </i>
  <i name="CSHIFT">      0.00001000</i>
  <i name="HFSCREEN">      0.20000000</i>
  <i type="logical" name="LHFCALC"> T  </i>
  <i type="string" name="GGA">Pe</i>
  <i type="string" name="PRECFOCK">Fast</i>
  <i type="logical" name="LDAU"> F  </i>
  <i type="logical" name="LMIXTAU"> T  </i>
 </incar>
 <primitive_cell>
  <structure name="primitive_cell" >
   <crystal>
    <varray name="basis" >
     <v>       4.24669932       0.00000000       0.00000000 </v>
     <v>      -0.00000000       4.24669932       0.00000000 </v>
     <v>       0.00000000       0.00000000       4.24669932 </v>
    </varray>
    <i name="volume">     76.58690827 </i>
    <varray name="rec_basis" >
     <v>       0.23547700       0.00000000       0.00000000 </v>
     <v>       0.00000000       0.23547700       0.00000000 </v>
     <v>      -0.00000000      -0.00000000       0.23547700 </v>
    </varray>
   </crystal>
   <varray name="positions" >
    <v>       0.50000000       0.50000000       1.00000000 </v>
    <v>       0.00000000       0.50000000       0.50000000 </v>
    <v>       0.50000000       0.00000000       0.50000000 </v>
    <v>       0.00000000       0.00000000       0.00000000 </v>
    <v>       0.75000000       0.75000000       0.75000000 </v>
    <v>       0.25000000       0.25000000       0.25000000 </v>
   </varray>
  </structure>
  <varray name="primitive_index" >
   <v type="int" >        1 </v>
   <v type="int" >        2 </v>
   <v type="int" >        3 </v>
   <v type="int" >        4 </v>
   <v type="int" >        5 </v>
   <v type="int" >        6 </v>
  </varray>
 </primitive_cell>
 <kpoints>
  <generation param="Gamma">
   <v type="int" name="divisions">       5        5        5 </v>
   <v name="usershift">      0.00000000       0.00000000       0.00000000 </v>
   <v name="genvec1">      0.20000000      -0.00000000       0.00000000 </v>
   <v name="genvec2">      0.00000000       0.20000000       0.00000000 </v>
   <v name="genvec3">      0.00000000       0.00000000       0.20000000 </v>
   <v name="shift">      0.00000000       0.00000000       0.00000000 </v>
  </generation>
  <varray name="kpointlist" >
   <v>       0.00000000       0.00000000       0.00000000 </v>
   <v>       0.20000000       0.00000000       0.00000000 </v>
   <v>       0.40000000       0.00000000       0.00000000 </v>
   <v>       0.20000000       0.20000000       0.00000000 </v>
   <v>       0.40000000       0.20000000       0.00000000 </v>
   <v>       0.40000000       0.40000000       0.00000000 </v>
   <v>       0.20000000       0.20000000       0.20000000 </v>
   <v>       0.40000000       0.20000000       0.20000000 </v>
   <v>       0.40000000       0.40000000       0.20000000 </v>
   <v>       0.40000000       0.40000000       0.40000000 </v>
  </varray>
  <varray name="weights" >
   <v>       0.00800000 </v>
   <v>       0.04800000 </v>
   <v>       0.04800000 </v>
   <v>       0.09600000 </v>
   <v>       0.19200000 </v>
   <v>       0.09600000 </v>
   <v>       0.06400000 </v>
   <v>       0.19200000 </v>
   <v>       0.19200000 </v>
   <v>       0.06400000 </v>
  </varray>
  <varray name="tetrahedronlist"  type="int" >
   <v type="int" >       12        7        8        8        9 </v>
   <v type="int" >       18        8        8        9        9 </v>
   <v type="int" >       24        8        9        9       10 </v>
   <v type="int" >       12        8        9        9        9 </v>
   <v type="int" >       24        9        9        9       10 </v>
   <v type="int" >       18        9        9       10       10 </v>
   <v type="int" >       24        4        5        7        8 </v>
   <v type="int" >       12        5        7        8        8 </v>
   <v type="int" >       24        5        8        8        9 </v>
   <v type="int" >       24        4        5        5        8 </v>
   <v type="int" >       24        5        5        6        8 </v>
   <v type="int" >       12        5        6        8        9 </v>
   <v type="int" >       12        9       10       10       10 </v>
   <v type="int" >       12        8        8        9       10 </v>
   <v type="int" >       12        8        9       10       10 </v>
   <v type="int" >       12        5        5        8        9 </v>
   <v type="int" >       12        5        8        9        9 </v>
   <v type="int" >       12        5        5        6        9 </v>
   <v type="int" >       12        5        6        6        9 </v>
   <v type="int" >       12        5        6        9        9 </v>
   <v type="int" >       12        5        6        8        8 </v>
   <v type="int" >       12        5        6        6        8 </v>
   <v type="int" >       12        6        8        8        9 </v>
   <v type="int" >       12        6        8        9        9 </v>
   <v type="int" >       12        6        6        8        9 </v>
   <v type="int" >       12        7        8        9       10 </v>
   <v type="int" >       12        4        5        8        9 </v>
   <v type="int" >       12        4        7        8        9 </v>
   <v type="int" >       12        4        5        6        9 </v>
   <v type="int" >       12        5        6        7        8 </v>
   <v type="int" >       12        4        5        6        7 </v>
   <v type="int" >       12        6        7        8        9 </v>
   <v type="int" >       12        2        4        7        8 </v>
   <v type="int" >       12        2        4        5        8 </v>
   <v type="int" >       12        2        3        5        8 </v>
   <v type="int" >       12        4        4        5        7 </v>
   <v type="int" >       12        2        4        4        5 </v>
   <v type="int" >       12        2        3        4        5 </v>
   <v type="int" >       12        3        4        5        5 </v>
   <v type="int" >       12        2        3        4        7 </v>
   <v type="int" >       12        3        4        5        7 </v>
   <v type="int" >       12        3        5        7        8 </v>
   <v type="int" >        6       10       10       10       10 </v>
   <v type="int" >       12        6        6        9        9 </v>
   <v type="int" >       12        6        9        9        9 </v>
   <v type="int" >       12        6        6        6        9 </v>
   <v type="int" >       12        3        5        8        8 </v>
   <v type="int" >       12        3        5        5        8 </v>
   <v type="int" >       12        3        3        5        8 </v>
   <v type="int" >       12        5        5        5        8 </v>
   <v type="int" >       12        3        5        5        5 </v>
   <v type="int" >        6        3        3        5        5 </v>
   <v type="int" >        6        5        5        8        8 </v>
   <v type="int" >       12        2        4        4        7 </v>
   <v type="int" >       12        2        2        4        4 </v>
   <v type="int" >       12        1        2        2        4 </v>
   <v type="int" >       12        1        2        4        7 </v>
  </varray>
  <i name="volumeweight">      0.00133333 </i>
 </kpoints>
 <parameters>
  <separator name="general" >
   <i type="string" name="SYSTEM">unknown system</i>
   <i type="logical" name="LCOMPAT"> F  </i>
  </separator>
  <separator name="electronic" >
   <i type="string" name="PREC">accura</i>
   <i name="ENMAX">    680.00000000</i>
   <i name="ENAUG">   1360.00000000</i>
   <i name="EDIFF">      0.00001000</i>
   <i type="int" name="IALGO">    38</i>
   <i type="int" name="IWAVPR">    10</i>
   <i type="int" name="NBANDS">    48</i>
   <i type="int" name="NBANDSLOW">    -1</i>
   <i type="int" name="NBANDSHIGH">    -1</i>
   <i name="NELECT">     56.00000000</i>
   <i type="int" name="TURBO">     0</i>
   <i type="int" name="IRESTART">     0</i>
   <i type="int" name="NREBOOT">     0</i>
   <i type="int" name="NMIN">     0</i>
   <i name="EREF">      0.00000000</i>
   <separator name="electronic smearing" >
    <i type="int" name="ISMEAR">    -5</i>
    <i name="SIGMA">      0.05000000</i>
    <i name="KSPACING">      0.50000000</i>
    <i type="logical" name="KGAMMA"> T  </i>
    <i type="logical" name="KBLOWUP"> T  </i>
   </separator>
   <separator name="electronic projectors" >
    <i type="logical" name="LREAL"> F  </i>
    <v name="ROPT">      0.00000000      0.00000000</v>
    <i type="int" name="LMAXPAW">  -100</i>
    <i type="int" name="LMAXMIX">     4</i>
    <i type="logical" name="NLSPLINE"> F  </i>
   </separator>
   <separator name="electronic startup" >
    <i type="int" name="ISTART">     1</i>
    <i type="int" name="ICHARG">     0</i>
    <i type="int" name="INIWAV">     1</i>
   </separator>
   <separator name="electronic spin" >
    <i type="int" name="ISPIN">     1</i>
    <i type="logical" name="LNONCOLLINEAR"> F  </i>
    <v name="MAGMOM">      1.00000000      1.00000000      1.00000000      1.00000000      1.00000000      1.00000000</v>
    <i name="NUPDOWN">     -1.00000000</i>
    <i type="logical" name="LSORBIT"> F  </i>
    <v name="SAXIS">      0.00000000      0.00000000      1.00000000</v>
    <i type="logical" name="LSPIRAL"> F  </i>
    <v name="QSPIRAL">      0.00000000      0.00000000      0.00000000</v>
    <i type="logical" name="LZEROZ"> F  </i>
   </separator>
   <separator name="electronic exchange-correlation" >
    <i type="logical" name="LASPH"> T  </i>
    <i type="logical" name="LMETAGGA"> F  </i>
   </separator>
   <separator name="electronic convergence" >
    <i type="int" name="NELM">   200</i>
    <i type="int" name="NELMDL">     0</i>
    <i type="int" name="NELMIN">     5</i>
    <i name="ENINI">    680.00000000</i>
    <separator name="electronic convergence detail" >
     <i type="logical" name="LDIAG"> T  </i>
     <i type="logical" name="LSUBROT"> F  </i>
     <i name="WEIMIN">      0.00000000</i>
     <i name="EBREAK">      0.00000005</i>
     <i name="DEPER">      0.30000000</i>
     <i type="int" name="NRMM">     4</i>
     <i name="TIME">      0.40000000</i>
    </separator>
   </separator>
   <separator name="electronic mixer" >
    <i name="AMIX">      0.40000000</i>
    <i name="BMIX">      1.00000000</i>
    <i name="AMIN">      0.10000000</i>
    <i name="AMIX_MAG">      1.60000000</i>
    <i name="BMIX_MAG">      1.00000000</i>
    <separator name="electronic mixer details" >
     <i type="int" name="IMIX">     1</i>
     <i type="logical" name="MIXFIRST"> F  </i>
     <i type="int" name="MAXMIX">   -45</i>
     <i name="WC">    100.00000000</i>
     <i type="int" name="INIMIX">     1</i>
     <i type="int" name="MIXPRE">     1</i>
     <i type="int" name="MREMOVE">     5</i>
    </separator>
   </separator>
   <separator name="electronic dipolcorrection" >
    <i type="logical" name="LDIPOL"> F  </i>
    <i type="logical" name="LMONO"> F  </i>
    <i type="int" name="IDIPOL">     0</i>
    <i name="EPSILON">      1.00000000</i>
    <v name="DIPOL">   -100.00000000   -100.00000000   -100.00000000</v>
    <i name="EFIELD">      0.00000000</i>
   </separator>
  </separator>
  <separator name="grids" >
   <i type="int" name="NGX">    36</i>
   <i type="int" name="NGY">    36</i>
   <i type="int" name="NGZ">    36</i>
   <i type="int" name="NGXF">    72</i>
   <i type="int" name="NGYF">    72</i>
   <i type="int" name="NGZF">    72</i>
   <i type="logical" name="ADDGRID"> F  </i>
  </separator>
  <separator name="ionic" >
   <i type="int" name="NSW">     0</i>
   <i type="int" name="IBRION">    -1</i>
   <i type="int" name="MDALGO">     0</i>
   <i type="int" name="ISIF">     0</i>
   <i name="PSTRESS">      0.00000000</i>
   <i name="EDIFFG">      0.00010000</i>
   <i type="int" name="NFREE">     0</i>
   <i name="POTIM">      0.50000000</i>
   <i name="SMASS">     -3.00000000</i>
   <i name="SCALEE">      1.00000000</i>
  </separator>
  <separator name="ionic md" >
   <i name="TEBEG">      0.00010000</i>
   <i name="TEEND">      0.00010000</i>
   <i type="int" name="NBLOCK">     1</i>
   <i type="int" name="KBLOCK">     1</i>
   <i type="int" name="NPACO">   256</i>
   <i name="APACO">     10.00000000</i>
  </separator>
  <separator name="symmetry" >
   <i type="int" name="ISYM">     3</i>
   <i name="SYMPREC">      0.00001000</i>
  </separator>
  <separator name="dos" >
   <i type="int" name="LORBIT">    11</i>
   <v name="RWIGS">     -1.00000000     -1.00000000</v>
   <i type="int" name="NEDOS">  1689</i>
   <i name="EMIN">     10.00000000</i>
   <i name="EMAX">    -10.00000000</i>
   <i name="EFERMI">      0.00000000</i>
  </separator>
  <separator name="writing" >
   <i type="int" name="NWRITE">     2</i>
   <i type="logical" name="LWAVE"> T  </i>
   <i type="logical" name="LDOWNSAMPLE"> F  </i>
   <i type="logical" name="LCHARG"> T  </i>
   <i type="logical" name="LPARD"> F  </i>
   <i type="logical" name="LVTOT"> T  </i>
   <i type="logical" name="LVHAR"> F  </i>
   <i type="logical" name="LELF"> F  </i>
   <i type="logical" name="LOPTICS"> T  </i>
   <v name="STM">      0.00000000      0.00000000      0.00000000      0.00000000      0.00000000      0.00000000      0.00000000</v>
  </separator>
  <separator name="performance" >
   <i type="int" name="NPAR">    12</i>
   <i type="int" name="NSIM">     4</i>
   <i type="int" name="NBLK">    -1</i>
   <i type="logical" name="LPLANE"> T  </i>
   <i type="logical" name="LSCALAPACK"> T  </i>
   <i type="logical" name="LSCAAWARE"> T  </i>
   <i type="logical" name="LSCALU"> F  </i>
   <i type="logical" name="LASYNC"> F  </i>
   <i type="logical" name="LORBITALREAL"> F  </i>
  </separator>
  <separator name="miscellaneous" >
   <i type="int" name="IDIOT">     3</i>
   <i type="int" name="PHON_NSTRUCT">    -1</i>
   <i type="logical" name="LMUSIC"> F  </i>
   <v name="POMASS">     63.54600000     16.00000000</v>
   <v name="DARWINR">      0.00000000      0.00000000</v>
   <v name="DARWINV">      1.00000000      1.00000000</v>
   <i type="logical" name="LCORR"> T  </i>
  </separator>
  <i type="logical" name="GGA_COMPAT"> T  </i>
  <i type="logical" name="LBERRY"> F  </i>
  <i type="int" name="ICORELEVEL">     0</i>
  <i type="logical" name="LDAU"> F  </i>
  <i type="int" name="I_CONSTRAINED_M">     0</i>
  <separator name="electronic exchange-correlation" >
   <i type="string" name="GGA">PE</i>
   <i type="int" name="VOSKOWN">     0</i>
   <i type="logical" name="LHFCALC"> T  </i>
   <i type="string" name="PRECFOCK">fast</i>
   <i type="logical" name="LSYMGRAD"> F  </i>
   <i type="logical" name="LHFONE"> F  </i>
   <i type="logical" name="LRHFCALC"> F  </i>
   <i type="logical" name="LTHOMAS"> F  </i>
   <i type="logical" name="LMODELHF"> F  </i>
   <i type="logical" name="LFOCKACE"> T  </i>
   <i name="ENCUT4O">     -1.00000000</i>
   <i type="int" name="EXXOEP">     0</i>
   <i type="int" name="FOURORBIT">     0</i>
   <i name="AEXX">      0.25000000</i>
   <i name="HFALPHA">     -1.00000000</i>
   <i name="MCALPHA">      0.00000000</i>
   <i name="ALDAX">      0.75000000</i>
   <i name="AGGAX">      0.75000000</i>
   <i name="ALDAC">      1.00000000</i>
   <i name="AGGAC">      1.00000000</i>
   <i type="int" name="NKREDX">     1</i>
   <i type="int" name="NKREDY">     1</i>
   <i type="int" name="NKREDZ">     1</i>
   <i type="logical" name="SHIFTRED"> F  </i>
   <i type="logical" name="ODDONLY"> F  </i>
   <i type="logical" name="EVENONLY"> F  </i>
   <i type="int" name="LMAXFOCK">     4</i>
   <i type="int" name="NMAXFOCKAE">     1</i>
   <i type="logical" name="LFOCKAEDFT"> F  </i>
   <i name="HFSCREEN">      0.20000000</i>
   <i name="HFSCREENC">      0.20000000</i>
   <i type="int" name="NBANDSGWLOW">     1</i>
  </separator>
  <separator name="vdW DFT" >
   <i type="logical" name="LUSE_VDW"> F  </i>
   <i type="int" name="IVDW_NL">     1</i>
   <i type="logical" name="LSPIN_VDW"> F  </i>
   <i name="Zab_VDW">     -0.84910000</i>
   <i name="PARAM1">      0.12340000</i>
   <i name="PARAM2">      1.00000000</i>
   <i name="PARAM3">      0.00000000</i>
  </separator>
  <separator name="model GW" >
   <i type="int" name="MODEL_GW">     0</i>
   <i name="MODEL_EPS0">      7.65869083</i>
   <i name="MODEL_ALPHA">      1.00000000</i>
  </separator>
  <separator name="linear response parameters" >
   <i type="logical" name="LEPSILON"> F  </i>
   <i type="logical" name="LRPA"> F  </i>
   <i type="logical" name="LNABLA"> F  </i>
   <i type="logical" name="LVEL"> F  </i>
   <i name="CSHIFT">      0.00001000</i>
   <i name="OMEGAMAX">     -1.00000000</i>
   <i name="DEG_THRESHOLD">      0.00200000</i>
   <i name="RTIME">     -0.10000000</i>
   <i name="WPLASMAI">      0.00000000</i>
   <v name="DFIELD">      0.00000000      0.00000000      0.00000000</v>
   <v name="WPLASMA">      0.00000000      0.00000000      0.00000000      0.00000000      0.00000000      0.00000000      0.00000000      0.00000000      0.00000000</v>
  </separator>
  <separator name="orbital magnetization" >
   <i type="logical" name="NUCIND"> F  </i>
   <v name="MAGPOS">      0.00000000      0.00000000      0.00000000</v>
   <i type="logical" name="LNICSALL"> T  </i>
   <i type="logical" name="ORBITALMAG"> F  </i>
   <i type="logical" name="LMAGBLOCH"> F  </i>
   <i type="logical" name="LCHIMAG"> F  </i>
   <i type="logical" name="LGAUGE"> T  </i>
   <i type="int" name="MAGATOM">     0</i>
   <v name="MAGDIPOL">      0.00000000      0.00000000      0.00000000</v>
   <v name="AVECCONST">      0.00000000      0.00000000      0.00000000</v>
  </separator>
  <separator name="response functions" >
   <i type="logical" name="LALL_IN_ONE"> F  </i>
   <i type="int" name="IALL_IN_ONE">    -1</i>
   <i type="int" name="NBANDS_WAVE">    -1</i>
   <i type="logical" name="LFINITE_TEMPERATURE"> F  </i>
   <i type="logical" name="LADDER"> F  </i>
   <i type="logical" name="LRPAFORCE"> F  </i>
   <i type="logical" name="LFXC"> F  </i>
   <i type="logical" name="LHARTREE"> T  </i>
   <i type="int" name="IBSE">     0</i>
   <v type="int" name="KPOINT">    -1     0     0     0</v>
   <i type="logical" name="LTCTC"> F  </i>
   <i type="logical" name="LTCTE"> F  </i>
   <i type="logical" name="LTETE"> F  </i>
   <i type="logical" name="LTRIPLET"> F  </i>
   <i type="logical" name="LFXCEPS"> F  </i>
   <i type="logical" name="LFXHEG"> F  </i>
   <i type="int" name="NATURALO">     2</i>
   <i type="logical" name="LHOLEGF"> F  </i>
   <i type="logical" name="L2ORDER"> F  </i>
   <i type="logical" name="LDMP1"> F  </i>
   <i type="logical" name="LMP2LT"> F  </i>
   <i type="logical" name="LSMP2LT"> F  </i>
   <i type="logical" name="LGWLF"> F  </i>
   <i name="ENCUTGW">     -1.60000002</i>
   <i name="ENCUTGWSOFT">     -1.60000002</i>
   <i name="ENCUTLF">     -1.00000000</i>
   <i type="logical" name="LESF_SPLINES"> F  </i>
   <i type="int" name="LMAXMP2">    -1</i>
   <i name="SCISSOR">      0.00000000</i>
   <i type="int" name="NOMEGA">     0</i>
   <i type="int" name="NOMEGAR">     0</i>
   <i type="int" name="NBANDSGW">    -1</i>
   <i type="int" name="NBANDSO">    -1</i>
   <i type="int" name="NBANDSV">    -1</i>
   <i type="int" name="NELMGW">     1</i>
   <i type="int" name="NELMHF">     1</i>
   <i type="int" name="DIM">     3</i>
   <i type="int" name="IESPILON">     4</i>
   <i type="int" name="ANTIRES">     0</i>
   <i name="OMEGAMAX">    -30.00000000</i>
   <i name="OMEGAMIN">    -30.00000000</i>
   <i name="OMEGATL">   -200.00000000</i>
   <i type="int" name="OMEGAGRID">     0</i>
   <i name="CSHIFT">      0.00001000</i>
   <i type="logical" name="LSELFENERGY"> F  </i>
   <i type="logical" name="LSPECTRAL"> F  </i>
   <i type="logical" name="LSPECTRALGW"> F  </i>
   <i type="logical" name="LSINGLES"> F  </i>
   <i type="logical" name="LFERMIGW"> F  </i>
   <i type="logical" name="ODDONLYGW"> F  </i>
   <i type="logical" name="EVENONLYGW"> F  </i>
   <i type="int" name="NKREDLFX">     1</i>
   <i type="int" name="NKREDLFY">     1</i>
   <i type="int" name="NKREDLFZ">     1</i>
   <i type="int" name="MAXMEM">  2800</i>
   <i type="int" name="TELESCOPE">     0</i>
   <i type="int" name="NTAUPAR">    -1</i>
   <i type="int" name="NOMEGAPAR">    -1</i>
   <i name="DAMP_NEWTON">      0.80000001</i>
   <i name="LAMBDA">      1.00000000</i>
  </separator>
  <separator name="External order field" >
   <i name="OFIELD_KAPPA">      0.00000000</i>
   <v name="OFIELD_K">      0.00000000      0.00000000      0.00000000</v>
   <i name="OFIELD_Q6_NEAR">      0.00000000</i>
   <i name="OFIELD_Q6_FAR">      0.00000000</i>
   <i name="OFIELD_A">      0.00000000</i>
  </separator>
  <separator name="optional k-points parameters" >
   <i type="int" name="KPOINTS_OPT_MODE">     1</i>
   <i type="logical" name="LKPOINTS_OPT"> F  </i>
  </separator>
 </parameters>
 <atominfo>
  <atoms>       6 </atoms>
  <types>       2 </types>
  <array name="atoms" >
   <dimension dim="1">ion</dimension>
   <field type="string">element</field>
   <field type="int">atomtype</field>
   <set>
    <rc><c>Cu</c><c>   1</c></rc>
    <rc><c>Cu</c><c>   1</c></rc>
    <rc><c>Cu</c><c>   1</c></rc>
    <rc><c>Cu</c><c>   1</c></rc>
    <rc><c>O </c><c>   2</c></rc>
    <rc><c>O </c><c>   2</c></rc>
   </set>
  </array>
  <array name="atomtypes" >
   <dimension dim="1">type</dimension>
   <field type="int">atomspertype</field>
   <field type="string">element</field>
   <field>mass</field>
   <field>valence</field>
   <field type="string">pseudopotential</field>
   <set>
    <rc><c>   4</c><c>Cu</c><c>     63.54600000</c><c>     11.00000000</c><c>  PAW_PBE Cu 22Jun2005                  </c></rc>
    <rc><c>   2</c><c>O </c><c>     16.00000000</c><c>      6.00000000</c><c>  PAW_PBE O 08Apr2002                   </c></rc>
   </set>
  </array>
 </atominfo>
 <structure name="initialpos" >
  <crystal>
   <varray name="basis" >
    <v>       4.24669932       0.00000000       0.00000000 </v>
    <v>      -0.00000000       4.24669932       0.00000000 </v>
    <v>       0.00000000       0.00000000       4.24669932 </v>
   </varray>
   <i name="volume">     76.58690827 </i>
   <varray name="rec_basis" >
    <v>       0.23547700       0.00000000       0.00000000 </v>
    <v>       0.00000000       0.23547700       0.00000000 </v>
    <v>      -0.00000000      -0.00000000       0.23547700 </v>
   </varray>
  </crystal>
  <varray name="positions" >
   <v>       0.50000000       0.50000000       0.00000000 </v>
   <v>       0.00000000       0.50000000       0.50000000 </v>
   <v>       0.50000000       0.00000000       0.50000000 </v>
   <v>       0.00000000       0.00000000       0.00000000 </v>
   <v>       0.75000000       0.75000000       0.75000000 </v>
   <v>       0.25000000       0.25000000       0.25000000 </v>
  </varray>
 </structure>
 <calculation>
  <scstep>
   <time name="dav">   16.73   18.09</time>
   <time name="total">   17.13   18.56</time>
   <energy>
    <i name="alphaZ">    228.31989324 </i>
    <i name="ewald">  -4565.41384850 </i>
    <i name="hartreedc">  -1986.06832291 </i>
    <i name="XCdc">    179.55368616 </i>
    <i name="pawpsdc">   6487.11994866 </i>
    <i name="pawaedc">  -6888.93283580 </i>
    <i name="eentropy">      0.00000000 </i>
    <i name="bandstr">    -53.66462906 </i>
    <i name="atom">   6412.99966844 </i>
    <i name="e_fr_energy">    -31.71456032 </i>
    <i name="e_wo_entrp">    -31.71456032 </i>
    <i name="e_0_energy">    -31.71456032 </i>
   </energy>
  </scstep>
  <scstep>
   <time name="dav">   17.28   17.32</time>
   <time name="total">   17.67   17.72</time>
   <energy>
    <i name="e_fr_energy">    -31.71456053 </i>
    <i name="e_wo_entrp">    -31.71456053 </i>
    <i name="e_0_energy">    -31.71456053 </i>
   </energy>
  </scstep>
  <scstep>
   <time name="dav">   16.30   16.34</time>
   <time name="total">   16.68   16.74</time>
   <energy>
    <i name="e_fr_energy">    -31.71456055 </i>
    <i name="e_wo_entrp">    -31.71456055 </i>
    <i name="e_0_energy">    -31.71456055 </i>
   </energy>
  </scstep>
  <scstep>
   <time name="dav">   17.27   17.31</time>
   <time name="total">   17.65   17.70</time>
   <energy>
    <i name="e_fr_energy">    -31.71456060 </i>
    <i name="e_wo_entrp">    -31.71456060 </i>
    <i name="e_0_energy">    -31.71456060 </i>
   </energy>
  </scstep>
  <scstep>
   <time name="dav">   16.30   16.33</time>
   <time name="total">   16.64   16.69</time>
   <energy>
    <i name="alphaZ">    228.31989324 </i>
    <i name="ewald">  -4565.41384850 </i>
    <i name="hartreedc">  -1986.07380324 </i>
    <i name="XCdc">    179.55380468 </i>
    <i name="pawpsdc">   6487.14874533 </i>
    <i name="pawaedc">  -6888.95957604 </i>
    <i name="eentropy">      0.00000000 </i>
    <i name="bandstr">    -53.66145743 </i>
    <i name="atom">   6412.99966844 </i>
    <i name="e_fr_energy">    -31.71456059 </i>
    <i name="e_wo_entrp">    -31.71456059 </i>
    <i name="e_0_energy">    -31.71456059 </i>
   </energy>
  </scstep>
  <structure>
   <crystal>
    <varray name="basis" >
     <v>       4.24669932       0.00000000       0.00000000 </v>
     <v>      -0.00000000       4.24669932       0.00000000 </v>
     <v>       0.00000000       0.00000000       4.24669932 </v>
    </varray>
    <i name="volume">     76.58690827 </i>
    <varray name="rec_basis" >
     <v>       0.23547700       0.00000000       0.00000000 </v>
     <v>       0.00000000       0.23547700       0.00000000 </v>
     <v>      -0.00000000      -0.00000000       0.23547700 </v>
    </varray>
   </crystal>
   <varray name="positions" >
    <v>       0.50000000       0.50000000       0.00000000 </v>
    <v>       0.00000000       0.50000000       0.50000000 </v>
    <v>       0.50000000       0.00000000       0.50000000 </v>
    <v>       0.00000000       0.00000000       0.00000000 </v>
    <v>       0.75000000       0.75000000       0.75000000 </v>
    <v>       0.25000000       0.25000000       0.25000000 </v>
   </varray>
  </structure>
  <varray name="forces" >
   <v>      -0.00000000       0.00000000       0.00000000 </v>
   <v>       0.00000000      -0.00000000       0.00000000 </v>
   <v>       0.00000000       0.00000000       0.00000000 </v>
   <v>       0.00000000      -0.00000000       0.00000000 </v>
   <v>       0.00000000      -0.00000000      -0.00000000 </v>
   <v>      -0.00000000      -0.00000000      -0.00000000 </v>
  </varray>
  <energy>
   <i name="e_fr_energy">    -31.71456059 </i>
   <i name="e_wo_entrp">    -31.71456059 </i>
   <i name="e_0_energy">    -31.71456059 </i>
  </energy>
  <time name="totalsc">   99.91  101.74</time>
  <eigenvalues>
   <array>
    <dimension dim="1">band</dimension>
    <dimension dim="2">kpoint</dimension>
    <dimension dim="3">spin</dimension>
    <field>eigene</field>
    <field>occ</field>
    <set>
     <set comment="spin 1">
      <set comment="kpoint 1">
       <r>  -17.9692    1.0000 </r>
       <r>  -17.1711    1.0000 </r>
       <r>   -3.9250    1.0000 </r>
       <r>   -3.9250    1.0000 </r>
       <r>   -3.9250    1.0000 </r>
       <r>   -1.2358    1.0000 </r>
       <r>   -1.1471    1.0000 </r>
       <r>   -1.1471    1.0000 </r>
       <r>   -1.1471    1.0000 </r>
       <r>   -0.0100    1.0000 </r>
       <r>   -0.0100    1.0000 </r>
       <r>    0.3095    1.0000 </r>
       <r>    0.3095    1.0000 </r>
       <r>    0.3095    1.0000 </r>
       <r>    1.0236    1.0000 </r>
       <r>    1.0236    1.0000 </r>
       <r>    1.2545    1.0000 </r>
       <r>    1.2545    1.0000 </r>
       <r>    1.2545    1.0000 </r>
       <r>    1.2625    1.0000 </r>
       <r>    1.2625    1.0000 </r>
       <r>    1.2625    1.0000 </r>
       <r>    1.5665    1.0000 </r>
       <r>    1.5665    1.0000 </r>
       <r>    1.5665    1.0000 </r>
       <r>    3.8647    1.0000 </r>
       <r>    3.8647    1.0000 </r>
       <r>    3.8647    1.0000 </r>
       <r>    5.9314    0.0000 </r>
       <r>    6.3457    0.0000 </r>
       <r>    6.3457    0.0000 </r>
       <r>   14.0350    0.0000 </r>
       <r>   14.0350    0.0000 </r>
       <r>   14.0350    0.0000 </r>
       <r>   15.0497    0.0000 </r>
       <r>   15.0497    0.0000 </r>
       <r>   15.0497    0.0000 </r>
       <r>   16.3249    0.0000 </r>
       <r>   18.3411    0.0000 </r>
       <r>   18.3411    0.0000 </r>
       <r>   18.5141    0.0000 </r>
       <r>   18.5141    0.0000 </r>
       <r>   18.5141    0.0000 </r>
       <r>   22.0680    0.0000 </r>
       <r>   22.0680    0.0000 </r>
       <r>   22.0680    0.0000 </r>
       <r>   22.6493    0.0000 </r>
       <r>   22.6493    0.0000 </r>
      </set>
      <set comment="kpoint 2">
       <r>  -17.8923    1.0000 </r>
       <r>  -17.2462    1.0000 </r>
       <r>   -3.7897    1.0000 </r>
       <r>   -3.7595    1.0000 </r>
       <r>   -3.7595    1.0000 </r>
       <r>   -1.9008    1.0000 </r>
       <r>   -1.6211    1.0000 </r>
       <r>   -1.6211    1.0000 </r>
       <r>   -0.7651    1.0000 </r>
       <r>    0.0750    1.0000 </r>
       <r>    0.2826    1.0000 </r>
       <r>    0.3330    1.0000 </r>
       <r>    0.5673    1.0000 </r>
       <r>    0.5673    1.0000 </r>
       <r>    1.0217    1.0000 </r>
       <r>    1.0541    1.0000 </r>
       <r>    1.1529    1.0000 </r>
       <r>    1.1872    1.0000 </r>
       <r>    1.2382    1.0000 </r>
       <r>    1.2382    1.0000 </r>
       <r>    1.3956    1.0000 </r>
       <r>    1.4959    1.0000 </r>
       <r>    1.4959    1.0000 </r>
       <r>    1.5454    1.0000 </r>
       <r>    1.5454    1.0000 </r>
       <r>    2.7420    1.0000 </r>
       <r>    3.7762    1.0000 </r>
       <r>    3.7762    1.0000 </r>
       <r>    6.3058    0.0000 </r>
       <r>    6.9591    0.0000 </r>
       <r>    7.5162    0.0000 </r>
       <r>   13.1656    0.0000 </r>
       <r>   13.2767    0.0000 </r>
       <r>   13.7921    0.0000 </r>
       <r>   13.7921    0.0000 </r>
       <r>   14.2479    0.0000 </r>
       <r>   14.2479    0.0000 </r>
       <r>   17.8886    0.0000 </r>
       <r>   18.1124    0.0000 </r>
       <r>   18.7070    0.0000 </r>
       <r>   19.6566    0.0000 </r>
       <r>   19.6566    0.0000 </r>
       <r>   20.7022    0.0000 </r>
       <r>   21.2179    0.0000 </r>
       <r>   21.7048    0.0000 </r>
       <r>   22.3103    0.0000 </r>
       <r>   22.3103    0.0000 </r>
       <r>   23.0055    0.0000 </r>
      </set>
      <set comment="kpoint 3">
       <r>  -17.6912    1.0000 </r>
       <r>  -17.4442    1.0000 </r>
       <r>   -3.3854    1.0000 </r>
       <r>   -3.3324    1.0000 </r>
       <r>   -3.3324    1.0000 </r>
       <r>   -2.7271    1.0000 </r>
       <r>   -2.3708    1.0000 </r>
       <r>   -2.3708    1.0000 </r>
       <r>   -0.1802    1.0000 </r>
       <r>    0.3026    1.0000 </r>
       <r>    0.3312    1.0000 </r>
       <r>    0.6366    1.0000 </r>
       <r>    0.7403    1.0000 </r>
       <r>    0.8626    1.0000 </r>
       <r>    0.8626    1.0000 </r>
       <r>    0.9869    1.0000 </r>
       <r>    1.0573    1.0000 </r>
       <r>    1.1353    1.0000 </r>
       <r>    1.1374    1.0000 </r>
       <r>    1.1374    1.0000 </r>
       <r>    1.2439    1.0000 </r>
       <r>    1.4434    1.0000 </r>
       <r>    1.4434    1.0000 </r>
       <r>    1.4435    1.0000 </r>
       <r>    2.0144    1.0000 </r>
       <r>    2.0144    1.0000 </r>
       <r>    3.5809    1.0000 </r>
       <r>    3.5809    1.0000 </r>
       <r>    7.2362    0.0000 </r>
       <r>    8.0838    0.0000 </r>
       <r>    8.5143    0.0000 </r>
       <r>   10.6558    0.0000 </r>
       <r>   13.2993    0.0000 </r>
       <r>   13.2993    0.0000 </r>
       <r>   13.5583    0.0000 </r>
       <r>   13.5583    0.0000 </r>
       <r>   13.9122    0.0000 </r>
       <r>   16.3385    0.0000 </r>
       <r>   19.1891    0.0000 </r>
       <r>   20.1921    0.0000 </r>
       <r>   20.2195    0.0000 </r>
       <r>   20.8178    0.0000 </r>
       <r>   20.9706    0.0000 </r>
       <r>   20.9706    0.0000 </r>
       <r>   21.8166    0.0000 </r>
       <r>   21.8166    0.0000 </r>
       <r>   24.6552    0.0000 </r>
       <r>   25.4952    0.0000 </r>
      </set>
      <set comment="kpoint 4">
       <r>  -17.8275    1.0000 </r>
       <r>  -17.3042    1.0000 </r>
       <r>   -3.9070    1.0000 </r>
       <r>   -3.6282    1.0000 </r>
       <r>   -3.3941    1.0000 </r>
       <r>   -2.4526    1.0000 </r>
       <r>   -1.8968    1.0000 </r>
       <r>   -1.6232    1.0000 </r>
       <r>   -0.5809    1.0000 </r>
       <r>    0.1609    1.0000 </r>
       <r>    0.3769    1.0000 </r>
       <r>    0.4283    1.0000 </r>
       <r>    0.5587    1.0000 </r>
       <r>    0.7271    1.0000 </r>
       <r>    0.9830    1.0000 </r>
       <r>    1.0437    1.0000 </r>
       <r>    1.1207    1.0000 </r>
       <r>    1.1229    1.0000 </r>
       <r>    1.1940    1.0000 </r>
       <r>    1.3287    1.0000 </r>
       <r>    1.3820    1.0000 </r>
       <r>    1.4121    1.0000 </r>
       <r>    1.4917    1.0000 </r>
       <r>    1.5621    1.0000 </r>
       <r>    1.6804    1.0000 </r>
       <r>    2.5862    1.0000 </r>
       <r>    3.3246    1.0000 </r>
       <r>    3.6934    1.0000 </r>
       <r>    6.6204    0.0000 </r>
       <r>    7.5555    0.0000 </r>
       <r>    8.0560    0.0000 </r>
       <r>   11.7463    0.0000 </r>
       <r>   12.1486    0.0000 </r>
       <r>   13.5482    0.0000 </r>
       <r>   13.7365    0.0000 </r>
       <r>   14.4860    0.0000 </r>
       <r>   14.9790    0.0000 </r>
       <r>   18.4134    0.0000 </r>
       <r>   18.5032    0.0000 </r>
       <r>   18.6931    0.0000 </r>
       <r>   19.4862    0.0000 </r>
       <r>   20.3574    0.0000 </r>
       <r>   20.5458    0.0000 </r>
       <r>   21.1753    0.0000 </r>
       <r>   21.5336    0.0000 </r>
       <r>   22.0830    0.0000 </r>
       <r>   23.4548    0.0000 </r>
       <r>   23.5775    0.0000 </r>
      </set>
      <set comment="kpoint 5">
       <r>  -17.6605    1.0000 </r>
       <r>  -17.4603    1.0000 </r>
       <r>   -3.7484    1.0000 </r>
       <r>   -3.4310    1.0000 </r>
       <r>   -2.9560    1.0000 </r>
       <r>   -2.8880    1.0000 </r>
       <r>   -2.4141    1.0000 </r>
       <r>   -2.1270    1.0000 </r>
       <r>   -0.0423    1.0000 </r>
       <r>    0.3576    1.0000 </r>
       <r>    0.4055    1.0000 </r>
       <r>    0.6312    1.0000 </r>
       <r>    0.6810    1.0000 </r>
       <r>    0.7710    1.0000 </r>
       <r>    0.8493    1.0000 </r>
       <r>    0.8833    1.0000 </r>
       <r>    0.9551    1.0000 </r>
       <r>    1.0957    1.0000 </r>
       <r>    1.1615    1.0000 </r>
       <r>    1.2317    1.0000 </r>
       <r>    1.2940    1.0000 </r>
       <r>    1.3027    1.0000 </r>
       <r>    1.5247    1.0000 </r>
       <r>    1.7834    1.0000 </r>
       <r>    1.9520    1.0000 </r>
       <r>    2.0403    1.0000 </r>
       <r>    3.3292    1.0000 </r>
       <r>    3.4899    1.0000 </r>
       <r>    7.3516    0.0000 </r>
       <r>    7.9734    0.0000 </r>
       <r>    8.8336    0.0000 </r>
       <r>   10.0619    0.0000 </r>
       <r>   12.4083    0.0000 </r>
       <r>   13.1120    0.0000 </r>
       <r>   13.1540    0.0000 </r>
       <r>   13.6567    0.0000 </r>
       <r>   15.9358    0.0000 </r>
       <r>   17.7413    0.0000 </r>
       <r>   18.6793    0.0000 </r>
       <r>   18.7628    0.0000 </r>
       <r>   19.4694    0.0000 </r>
       <r>   19.9268    0.0000 </r>
       <r>   20.9224    0.0000 </r>
       <r>   22.0841    0.0000 </r>
       <r>   22.7388    0.0000 </r>
       <r>   23.2321    0.0000 </r>
       <r>   23.7012    0.0000 </r>
       <r>   25.3911    0.0000 </r>
      </set>
      <set comment="kpoint 6">
       <r>  -17.5870    1.0000 </r>
       <r>  -17.5102    1.0000 </r>
       <r>   -3.9001    1.0000 </r>
       <r>   -3.7537    1.0000 </r>
       <r>   -2.8873    1.0000 </r>
       <r>   -2.7160    1.0000 </r>
       <r>   -2.3219    1.0000 </r>
       <r>   -2.0942    1.0000 </r>
       <r>    0.2796    1.0000 </r>
       <r>    0.4237    1.0000 </r>
       <r>    0.5151    1.0000 </r>
       <r>    0.5480    1.0000 </r>
       <r>    0.7234    1.0000 </r>
       <r>    0.7381    1.0000 </r>
       <r>    0.8129    1.0000 </r>
       <r>    0.8444    1.0000 </r>
       <r>    0.8643    1.0000 </r>
       <r>    0.9316    1.0000 </r>
       <r>    1.2035    1.0000 </r>
       <r>    1.2330    1.0000 </r>
       <r>    1.2566    1.0000 </r>
       <r>    1.3024    1.0000 </r>
       <r>    1.7016    1.0000 </r>
       <r>    1.8747    1.0000 </r>
       <r>    2.0037    1.0000 </r>
       <r>    2.0751    1.0000 </r>
       <r>    3.1355    1.0000 </r>
       <r>    3.2871    1.0000 </r>
       <r>    7.3468    0.0000 </r>
       <r>    7.4865    0.0000 </r>
       <r>    9.2913    0.0000 </r>
       <r>    9.4963    0.0000 </r>
       <r>   12.6864    0.0000 </r>
       <r>   12.6983    0.0000 </r>
       <r>   13.0678    0.0000 </r>
       <r>   14.0318    0.0000 </r>
       <r>   17.0672    0.0000 </r>
       <r>   17.8382    0.0000 </r>
       <r>   18.2093    0.0000 </r>
       <r>   18.5758    0.0000 </r>
       <r>   18.7902    0.0000 </r>
       <r>   19.6837    0.0000 </r>
       <r>   21.7035    0.0000 </r>
       <r>   22.1673    0.0000 </r>
       <r>   24.0329    0.0000 </r>
       <r>   24.0331    0.0000 </r>
       <r>   25.0815    0.0000 </r>
       <r>   25.6130    0.0000 </r>
      </set>
      <set comment="kpoint 7">
       <r>  -17.7792    1.0000 </r>
       <r>  -17.3424    1.0000 </r>
       <r>   -3.7720    1.0000 </r>
       <r>   -3.7720    1.0000 </r>
       <r>   -3.0883    1.0000 </r>
       <r>   -2.8102    1.0000 </r>
       <r>   -1.8726    1.0000 </r>
       <r>   -1.8726    1.0000 </r>
       <r>   -0.4102    1.0000 </r>
       <r>    0.2557    1.0000 </r>
       <r>    0.2557    1.0000 </r>
       <r>    0.6860    1.0000 </r>
       <r>    0.6871    1.0000 </r>
       <r>    0.6871    1.0000 </r>
       <r>    0.9660    1.0000 </r>
       <r>    0.9660    1.0000 </r>
       <r>    1.0647    1.0000 </r>
       <r>    1.0647    1.0000 </r>
       <r>    1.1634    1.0000 </r>
       <r>    1.3558    1.0000 </r>
       <r>    1.3558    1.0000 </r>
       <r>    1.3722    1.0000 </r>
       <r>    1.5243    1.0000 </r>
       <r>    1.5243    1.0000 </r>
       <r>    1.7571    1.0000 </r>
       <r>    2.8594    1.0000 </r>
       <r>    2.8594    1.0000 </r>
       <r>    3.5636    1.0000 </r>
       <r>    6.9154    0.0000 </r>
       <r>    8.1914    0.0000 </r>
       <r>    8.1914    0.0000 </r>
       <r>   10.9701    0.0000 </r>
       <r>   11.7084    0.0000 </r>
       <r>   11.7084    0.0000 </r>
       <r>   14.9291    0.0000 </r>
       <r>   14.9291    0.0000 </r>
       <r>   16.3981    0.0000 </r>
       <r>   17.3533    0.0000 </r>
       <r>   18.6225    0.0000 </r>
       <r>   19.0243    0.0000 </r>
       <r>   19.0243    0.0000 </r>
       <r>   19.6338    0.0000 </r>
       <r>   20.9638    0.0000 </r>
       <r>   20.9638    0.0000 </r>
       <r>   22.6845    0.0000 </r>
       <r>   22.9860    0.0000 </r>
       <r>   22.9860    0.0000 </r>
       <r>   24.7167    0.0000 </r>
      </set>
      <set comment="kpoint 8">
       <r>  -17.6702    1.0000 </r>
       <r>  -17.4349    1.0000 </r>
       <r>   -3.7747    1.0000 </r>
       <r>   -3.4704    1.0000 </r>
       <r>   -3.3299    1.0000 </r>
       <r>   -2.5845    1.0000 </r>
       <r>   -2.3266    1.0000 </r>
       <r>   -2.1226    1.0000 </r>
       <r>   -0.0151    1.0000 </r>
       <r>    0.3471    1.0000 </r>
       <r>    0.3894    1.0000 </r>
       <r>    0.6788    1.0000 </r>
       <r>    0.6840    1.0000 </r>
       <r>    0.7835    1.0000 </r>
       <r>    0.8108    1.0000 </r>
       <r>    0.8411    1.0000 </r>
       <r>    0.9764    1.0000 </r>
       <r>    1.0379    1.0000 </r>
       <r>    1.1549    1.0000 </r>
       <r>    1.3088    1.0000 </r>
       <r>    1.3315    1.0000 </r>
       <r>    1.3328    1.0000 </r>
       <r>    1.4729    1.0000 </r>
       <r>    1.7413    1.0000 </r>
       <r>    1.9783    1.0000 </r>
       <r>    2.2610    1.0000 </r>
       <r>    3.1993    1.0000 </r>
       <r>    3.3679    1.0000 </r>
       <r>    7.5293    0.0000 </r>
       <r>    8.3549    0.0000 </r>
       <r>    8.5180    0.0000 </r>
       <r>   10.2053    0.0000 </r>
       <r>   10.6888    0.0000 </r>
       <r>   11.7018    0.0000 </r>
       <r>   15.0633    0.0000 </r>
       <r>   15.8035    0.0000 </r>
       <r>   16.1167    0.0000 </r>
       <r>   16.6988    0.0000 </r>
       <r>   17.9389    0.0000 </r>
       <r>   18.5568    0.0000 </r>
       <r>   20.3125    0.0000 </r>
       <r>   20.6687    0.0000 </r>
       <r>   20.6815    0.0000 </r>
       <r>   21.8534    0.0000 </r>
       <r>   22.8171    0.0000 </r>
       <r>   22.9057    0.0000 </r>
       <r>   24.4134    0.0000 </r>
       <r>   25.6580    0.0000 </r>
      </set>
      <set comment="kpoint 9">
       <r>  -17.6816    1.0000 </r>
       <r>  -17.3979    1.0000 </r>
       <r>   -3.8370    1.0000 </r>
       <r>   -3.7437    1.0000 </r>
       <r>   -3.3403    1.0000 </r>
       <r>   -2.3776    1.0000 </r>
       <r>   -2.2594    1.0000 </r>
       <r>   -2.1159    1.0000 </r>
       <r>    0.1095    1.0000 </r>
       <r>    0.2928    1.0000 </r>
       <r>    0.3161    1.0000 </r>
       <r>    0.6319    1.0000 </r>
       <r>    0.6378    1.0000 </r>
       <r>    0.7600    1.0000 </r>
       <r>    0.7822    1.0000 </r>
       <r>    0.9178    1.0000 </r>
       <r>    1.0264    1.0000 </r>
       <r>    1.0432    1.0000 </r>
       <r>    1.1948    1.0000 </r>
       <r>    1.2235    1.0000 </r>
       <r>    1.3587    1.0000 </r>
       <r>    1.3844    1.0000 </r>
       <r>    1.5492    1.0000 </r>
       <r>    1.5794    1.0000 </r>
       <r>    2.2596    1.0000 </r>
       <r>    2.4508    1.0000 </r>
       <r>    3.0882    1.0000 </r>
       <r>    3.1928    1.0000 </r>
       <r>    7.2440    0.0000 </r>
       <r>    8.3947    0.0000 </r>
       <r>    8.8870    0.0000 </r>
       <r>    9.2610    0.0000 </r>
       <r>   10.9784    0.0000 </r>
       <r>   11.2310    0.0000 </r>
       <r>   15.2608    0.0000 </r>
       <r>   15.8223    0.0000 </r>
       <r>   16.6176    0.0000 </r>
       <r>   16.6346    0.0000 </r>
       <r>   18.4132    0.0000 </r>
       <r>   19.4863    0.0000 </r>
       <r>   19.9311    0.0000 </r>
       <r>   20.2118    0.0000 </r>
       <r>   21.6799    0.0000 </r>
       <r>   22.0590    0.0000 </r>
       <r>   22.6021    0.0000 </r>
       <r>   24.7388    0.0000 </r>
       <r>   25.4410    0.0000 </r>
       <r>   25.7786    0.0000 </r>
      </set>
      <set comment="kpoint 10">
       <r>  -17.7507    1.0000 </r>
       <r>  -17.3001    1.0000 </r>
       <r>   -3.7331    1.0000 </r>
       <r>   -3.7331    1.0000 </r>
       <r>   -3.7305    1.0000 </r>
       <r>   -2.1433    1.0000 </r>
       <r>   -2.1416    1.0000 </r>
       <r>   -2.1416    1.0000 </r>
       <r>    0.0467    1.0000 </r>
       <r>    0.1299    1.0000 </r>
       <r>    0.1299    1.0000 </r>
       <r>    0.5383    1.0000 </r>
       <r>    0.5383    1.0000 </r>
       <r>    0.7612    1.0000 </r>
       <r>    0.7612    1.0000 </r>
       <r>    0.8190    1.0000 </r>
       <r>    1.2087    1.0000 </r>
       <r>    1.2087    1.0000 </r>
       <r>    1.2201    1.0000 </r>
       <r>    1.2903    1.0000 </r>
       <r>    1.3285    1.0000 </r>
       <r>    1.3285    1.0000 </r>
       <r>    1.4709    1.0000 </r>
       <r>    1.4709    1.0000 </r>
       <r>    2.7013    1.0000 </r>
       <r>    2.9906    1.0000 </r>
       <r>    2.9906    1.0000 </r>
       <r>    3.0196    1.0000 </r>
       <r>    7.7666    0.0000 </r>
       <r>    7.9800    0.0000 </r>
       <r>    7.9800    0.0000 </r>
       <r>   10.0270    0.0000 </r>
       <r>   10.6544    0.0000 </r>
       <r>   10.6544    0.0000 </r>
       <r>   13.7553    0.0000 </r>
       <r>   14.7166    0.0000 </r>
       <r>   18.9883    0.0000 </r>
       <r>   18.9883    0.0000 </r>
       <r>   19.8064    0.0000 </r>
       <r>   20.3723    0.0000 </r>
       <r>   20.3723    0.0000 </r>
       <r>   20.9724    0.0000 </r>
       <r>   20.9724    0.0000 </r>
       <r>   21.6457    0.0000 </r>
       <r>   23.4440    0.0000 </r>
       <r>   23.4440    0.0000 </r>
       <r>   25.5903    0.0000 </r>
       <r>   26.2008    0.0000 </r>
      </set>
     </set>
    </set>
   </array>
  </eigenvalues>
  <separator name="orbital magnetization" >
   <v name="MAGDIPOLOUT">      0.00000000      0.00000000      0.00000000</v>
  </separator>
  <dielectricfunction comment="density-density">
   <imag>
    <array>
     <dimension dim="1">gridpoints</dimension>
     <field>energy</field>
     <field>xx</field>
     <field>yy</field>
     <field>zz</field>
     <field>xy</field>
     <field>yz</field>
     <field>zx</field>
     <set>
      <r>     0.0000     0.0000     0.0000     0.0000     0.0000     0.0000     0.0000 </r>
      <r>     0.0314     0.0000     0.0000     0.0000     0.0000     0.0000     0.0000 </r>
      <r>     0.0628     0.0000     0.0000     0.0000     0.0000     0.0000     0.0000 </r>
      <r>     0.0942     0.0000     0.0000     0.0000     0.0000     0.0000     0.0000 </r>
      <r>     0.1256     0.0000     0.0000     0.0000     0.0000     0.0000     0.0000 </r>
      <r>     0.1570     0.0000     0.0000     0.0000     0.0000     0.0000     0.0000 </r>
      <r>     0.1884     0.0000     0.0000     0.0000     0.0000     0.0000     0.0000 </r>
      <r>     0.2198     0.0000     0.0000     0.0000     0.0000     0.0000     0.0000 </r>
      <r>     0.2512     0.0000     0.0000     0.0000     0.0000     0.0000     0.0000 </r>
      <r>     0.2826     0.0000     0.0000     0.0000     0.0000     0.0000     0.0000 </r>
      <r>     0.3140     0.0000     0.0000     0.0000     0.0000     0.0000     0.0000 </r>
      <r>     0.3454     0.0000     0.0000     0.0000     0.0000     0.0000     0.0000 </r>
      <r>     0.3768     0.0000     0.0000     0.0000     0.0000     0.0000     0.0000 </r>
      <r>     0.4082     0.0000     0.0000     0.0000     0.0000     0.0000     0.0000 </r>
      <r>     0.4396     0.0000     0.0000     0.0000     0.0000     0.0000     0.0000 </r>
      <r>     0.4710     0.0000     0.0000     0.0000     0.0000     0.0000     0.0000 </r>
      <r>     0.5024     0.0000     0.0000     0.0000     0.0000     0.0000     0.0000 </r>
      <r>     0.5338     0.0000     0.0000     0.0000     0.0000     0.0000     0.0000 </r>
      <r>     0.5652     0.0000     0.0000     0.0000     0.0000     0.0000     0.0000 </r>
      <r>     0.5966     0.0000     0.0000     0.0000     0.0000     0.0000     0.0000 </r>
      <r>     0.6280     0.0000     0.0000     0.0000     0.0000     0.0000     0.0000 </r>
      <r>     0.6594     0.0000     0.0000     0.0000     0.0000     0.0000     0.0000 </r>
      <r>     0.6908     0.0000     0.0000     0.0000     0.0000     0.0000     0.0000 </r>
      <r>     0.7222     0.0000     0.0000     0.0000     0.0000     0.0000     0.0000 </r>
      <r>     0.7536     0.0000     0.0000     0.0000     0.0000     0.0000     0.0000 </r>
      <r>     0.7850     0.0000     0.0000     0.0000     0.0000     0.0000     0.0000 </r>
      <r>     0.8164     0.0000     0.0000     0.0000     0.0000     0.0000     0.0000 </r>
      <r>     0.8478     0.0000     0.0000     0.0000     0.0000     0.0000     0.0000 </r>
      <r>     0.8792     0.0000     0.0000     0.0000     0.0000     0.0000     0.0000 </r>
      <r>     0.9106     0.0000     0.0000     0.0000     0.0000     0.0000     0.0000 </r>
      <r>     0.9420     0.0000     0.0000     0.0000     0.0000     0.0000     0.0000 </r>
      <r>     0.9734     0.0000     0.0000     0.0000     0.0000     0.0000     0.0000 </r>
      <r>     1.0048     0.0000     0.0000     0.0000     0.0000     0.0000     0.0000 </r>
      <r>     1.0362     0.0000     0.0000     0.0000     0.0000     0.0000     0.0000 </r>
      <r>     1.0676     0.0000     0.0000     0.0000     0.0000     0.0000     0.0000 </r>
      <r>     1.0990     0.0000     0.0000     0.0000     0.0000     0.0000     0.0000 </r>
      <r>     1.1304     0.0000     0.0000     0.0000     0.0000     0.0000     0.0000 </r>
      <r>     1.1618     0.0000     0.0000     0.0000     0.0000     0.0000     0.0000 </r>
      <r>     1.1932     0.0000     0.0000     0.0000     0.0000     0.0000     0.0000 </r>
      <r>     1.2246     0.0000     0.0000     0.0000     0.0000     0.0000     0.0000 </r>
      <r>     1.2560     0.0000     0.0000     0.0000     0.0000     0.0000     0.0000 </r>
      <r>     1.2874     0.0000     0.0000     0.0000     0.0000     0.0000     0.0000 </r>
      <r>     1.3188     0.0000     0.0000     0.0000     0.0000     0.0000     0.0000 </r>
      <r>     1.3502     0.0000     0.0000     0.0000     0.0000     0.0000     0.0000 </r>
      <r>     1.3816     0.0000     0.0000     0.0000     0.0000     0.0000     0.0000 </r>
      <r>     1.4130     0.0000     0.0000     0.0000     0.0000     0.0000     0.0000 </r>
      <r>     1.4444     0.0000     0.0000     0.0000     0.0000     0.0000     0.0000 </r>
      <r>     1.4758     0.0000     0.0000     0.0000     0.0000     0.0000     0.0000 </r>
      <r>     1.5072     0.0000     0.0000     0.0000     0.0000     0.0000     0.0000 </r>
      <r>     1.5386     0.0000     0.0000     0.0000     0.0000     0.0000     0.0000 </r>
      <r>     1.5700     0.0000     0.0000     0.0000     0.0000     0.0000     0.0000 </r>
      <r>     1.6014     0.0000     0.0000     0.0000     0.0000     0.0000     0.0000 </r>
      <r>     1.6328     0.0000     0.0000     0.0000     0.0000     0.0000     0.0000 </r>
      <r>     1.6642     0.0000     0.0000     0.0000     0.0000     0.0000     0.0000 </r>
      <r>     1.6956     0.0000     0.0000     0.0000     0.0000     0.0000     0.0000 </r>
      <r>     1.7270     0.0000     0.0000     0.0000     0.0000     0.0000     0.0000 </r>
      <r>     1.7584     0.0000     0.0000     0.0000     0.0000     0.0000     0.0000 </r>
      <r>     1.7898     0.0000     0.0000     0.0000     0.0000     0.0000     0.0000 </r>
      <r>     1.8212     0.0000     0.0000     0.0000     0.0000     0.0000     0.0000 </r>
      <r>     1.8526     0.0000     0.0000     0.0000     0.0000     0.0000     0.0000 </r>
      <r>     1.8840     0.0000     0.0000     0.0000     0.0000     0.0000     0.0000 </r>
      <r>     1.9154     0.0000     0.0000     0.0000     0.0000     0.0000     0.0000 </r>
      <r>     1.9468     0.0000     0.0000     0.0000     0.0000     0.0000     0.0000 </r>
      <r>     1.9782     0.0000     0.0000     0.0000     0.0000     0.0000     0.0000 </r>
      <r>     2.0096     0.0000     0.0000     0.0000     0.0000     0.0000     0.0000 </r>
      <r>     2.0410     0.0000     0.0000     0.0000     0.0000     0.0000     0.0000 </r>
      <r>     2.0724     0.0000     0.0000     0.0000    -0.0000     0.0000     0.0000 </r>
      <r>     2.1038     0.0001     0.0001     0.0001    -0.0000     0.0000     0.0000 </r>
      <r>     2.1352     0.0002     0.0002     0.0002    -0.0000     0.0000     0.0000 </r>
      <r>     2.1666     0.0004     0.0004     0.0004    -0.0000     0.0000     0.0000 </r>
      <r>     2.1980     0.0008     0.0008     0.0008    -0.0000     0.0000     0.0000 </r>
      <r>     2.2294     0.0012     0.0012     0.0012    -0.0000     0.0000     0.0000 </r>
      <r>     2.2608     0.0016     0.0016     0.0016    -0.0000     0.0000     0.0000 </r>
      <r>     2.2922     0.0022     0.0022     0.0022    -0.0000     0.0000     0.0000 </r>
      <r>     2.3236     0.0029     0.0029     0.0029    -0.0000     0.0000     0.0000 </r>
      <r>     2.3550     0.0036     0.0036     0.0036    -0.0000     0.0000     0.0000 </r>
      <r>     2.3864     0.0045     0.0045     0.0045    -0.0000     0.0000     0.0000 </r>
      <r>     2.4178     0.0054     0.0054     0.0054    -0.0000     0.0000     0.0000 </r>
      <r>     2.4492     0.0064     0.0064     0.0064    -0.0000     0.0000     0.0000 </r>
      <r>     2.4806     0.0075     0.0075     0.0075    -0.0000     0.0000     0.0000 </r>
      <r>     2.5120     0.0118     0.0118     0.0118    -0.0000     0.0000     0.0000 </r>
      <r>     2.5434     0.0227     0.0227     0.0227    -0.0000     0.0000     0.0000 </r>
      <r>     2.5748     0.0404     0.0404     0.0404    -0.0000     0.0000     0.0000 </r>
      <r>     2.6062     0.0646     0.0646     0.0646    -0.0000     0.0000     0.0000 </r>
      <r>     2.6376     0.0953     0.0953     0.0953    -0.0000     0.0000     0.0000 </r>
      <r>     2.6690     0.1325     0.1325     0.1325    -0.0000     0.0000     0.0000 </r>
      <r>     2.7004     0.1763     0.1763     0.1763    -0.0000     0.0000     0.0000 </r>
      <r>     2.7318     0.2265     0.2265     0.2265    -0.0000     0.0000     0.0000 </r>
      <r>     2.7632     0.2833     0.2833     0.2833    -0.0000     0.0000     0.0000 </r>
      <r>     2.7946     0.3466     0.3466     0.3466    -0.0000     0.0000     0.0000 </r>
      <r>     2.8260     0.4164     0.4164     0.4164    -0.0000     0.0000     0.0000 </r>
      <r>     2.8574     0.4927     0.4927     0.4927    -0.0000     0.0000     0.0000 </r>
      <r>     2.8888     0.5756     0.5756     0.5756    -0.0000     0.0000     0.0000 </r>
      <r>     2.9202     0.6649     0.6649     0.6649    -0.0000     0.0000     0.0000 </r>
      <r>     2.9516     0.7607     0.7607     0.7607    -0.0000     0.0000     0.0000 </r>
      <r>     2.9830     0.8632     0.8632     0.8632    -0.0000     0.0000     0.0000 </r>
      <r>     3.0144     0.9725     0.9725     0.9725    -0.0000     0.0000     0.0000 </r>
      <r>     3.0458     1.0885     1.0885     1.0885    -0.0000     0.0000     0.0000 </r>
      <r>     3.0772     1.2114     1.2114     1.2114    -0.0000     0.0000     0.0000 </r>
      <r>     3.1086     1.3410     1.3410     1.3410    -0.0000     0.0000     0.0000 </r>
      <r>     3.1400     1.4773     1.4773     1.4773    -0.0000     0.0000     0.0000 </r>
      <r>     3.1714     1.6205     1.6205     1.6205    -0.0000     0.0000     0.0000 </r>
      <r>     3.2028     1.7222     1.7222     1.7222    -0.0000     0.0000     0.0000 </r>
      <r>     3.2343     1.7971     1.7971     1.7971    -0.0000     0.0000     0.0000 </r>
      <r>     3.2657     1.8715     1.8715     1.8715    -0.0000     0.0000     0.0000 </r>
      <r>     3.2971     1.9455     1.9455     1.9455    -0.0000     0.0000     0.0000 </r>
      <r>     3.3285     2.0194     2.0194     2.0194    -0.0000     0.0000     0.0000 </r>
      <r>     3.3599     2.0936     2.0936     2.0936    -0.0000     0.0000     0.0000 </r>
      <r>     3.3913     2.1683     2.1683     2.1683    -0.0000     0.0000     0.0000 </r>
      <r>     3.4227     2.2436     2.2436     2.2436    -0.0000     0.0000     0.0000 </r>
      <r>     3.4541     2.3195     2.3195     2.3195    -0.0000     0.0000     0.0000 </r>
      <r>     3.4855     2.3961     2.3961     2.3961    -0.0000     0.0000     0.0000 </r>
      <r>     3.5169     2.4732     2.4732     2.4732    -0.0000     0.0000     0.0000 </r>
      <r>     3.5483     2.5509     2.5509     2.5509    -0.0000     0.0000     0.0000 </r>
      <r>     3.5797     2.6293     2.6293     2.6293    -0.0000     0.0000     0.0000 </r>
      <r>     3.6111     2.7087     2.7087     2.7087    -0.0000     0.0000     0.0000 </r>
      <r>     3.6425     2.7889     2.7889     2.7889    -0.0000     0.0000     0.0000 </r>
      <r>     3.6739     2.8898     2.8898     2.8898    -0.0000     0.0000     0.0000 </r>
      <r>     3.7053     3.0024     3.0024     3.0024    -0.0000     0.0000     0.0000 </r>
      <r>     3.7367     3.1122     3.1122     3.1122    -0.0000     0.0000     0.0000 </r>
      <r>     3.7681     3.2176     3.2176     3.2176    -0.0000     0.0000     0.0000 </r>
      <r>     3.7995     3.3206     3.3206     3.3206    -0.0000     0.0000     0.0000 </r>
      <r>     3.8309     3.4215     3.4215     3.4215    -0.0000     0.0000     0.0000 </r>
      <r>     3.8623     3.5226     3.5226     3.5226    -0.0000     0.0000     0.0000 </r>
      <r>     3.8937     3.7390     3.7390     3.7390    -0.0000     0.0000     0.0000 </r>
      <r>     3.9251     3.9849     3.9849     3.9849    -0.0000     0.0000     0.0000 </r>
      <r>     3.9565     4.2605     4.2605     4.2605    -0.0000     0.0000     0.0000 </r>
      <r>     3.9879     4.5657     4.5657     4.5657    -0.0000     0.0000     0.0000 </r>
      <r>     4.0193     4.9005     4.9005     4.9005    -0.0000     0.0000     0.0000 </r>
      <r>     4.0507     5.4847     5.4847     5.4847    -0.0000     0.0000     0.0000 </r>
      <r>     4.0821     9.2015     9.2015     9.2015    -0.0000     0.0000     0.0000 </r>
      <r>     4.1135     6.9000     6.9000     6.9000    -0.0000     0.0000     0.0000 </r>
      <r>     4.1449     6.4069     6.4069     6.4069    -0.0000     0.0000     0.0000 </r>
      <r>     4.1763     7.4644     7.4644     7.4644    -0.0000     0.0000     0.0000 </r>
      <r>     4.2077     7.9217     7.9217     7.9217    -0.0000     0.0000     0.0000 </r>
      <r>     4.2391     6.4641     6.4641     6.4641    -0.0000     0.0000     0.0000 </r>
      <r>     4.2705     6.2432     6.2432     6.2432    -0.0000     0.0000     0.0000 </r>
      <r>     4.3019     6.0546     6.0546     6.0546    -0.0000     0.0000     0.0000 </r>
      <r>     4.3333     5.9303     5.9303     5.9303    -0.0000     0.0000     0.0000 </r>
      <r>     4.3647     6.1137     6.1137     6.1137    -0.0000     0.0000     0.0000 </r>
      <r>     4.3961     6.2829     6.2829     6.2829    -0.0000     0.0000     0.0000 </r>
      <r>     4.4275     6.4533     6.4533     6.4533    -0.0000     0.0000     0.0000 </r>
      <r>     4.4589     6.6250     6.6250     6.6250    -0.0000     0.0000     0.0000 </r>
      <r>     4.4903    12.2867    12.2867    12.2867    -0.0000     0.0000     0.0000 </r>
      <r>     4.5217     6.8608     6.8608     6.8608    -0.0000     0.0000     0.0000 </r>
      <r>     4.5531     6.6794     6.6794     6.6794    -0.0000     0.0000     0.0000 </r>
      <r>     4.5845     6.5028     6.5028     6.5028    -0.0000     0.0000     0.0000 </r>
      <r>     4.6159     6.3310     6.3310     6.3310    -0.0000     0.0000     0.0000 </r>
      <r>     4.6473     6.0290     6.0290     6.0290    -0.0000     0.0000     0.0000 </r>
      <r>     4.6787     5.8379     5.8379     5.8379    -0.0000     0.0000     0.0000 </r>
      <r>     4.7101     5.6690     5.6690     5.6690    -0.0000     0.0000     0.0000 </r>
      <r>     4.7415     5.5240     5.5240     5.5240    -0.0000     0.0000     0.0000 </r>
      <r>     4.7729     5.5907     5.5907     5.5907    -0.0000     0.0000     0.0000 </r>
      <r>     4.8043    14.4881    14.4881    14.4881    -0.0000     0.0000     0.0000 </r>
      <r>     4.8357     6.6030     6.6030     6.6030    -0.0000     0.0000     0.0000 </r>
      <r>     4.8671     6.6066     6.6066     6.6066    -0.0000     0.0000     0.0000 </r>
      <r>     4.8985     6.6199     6.6199     6.6199    -0.0000     0.0000     0.0000 </r>
      <r>     4.9299     6.6433     6.6433     6.6433    -0.0000     0.0000     0.0000 </r>
      <r>     4.9613     7.6261     7.6261     7.6261    -0.0000     0.0000     0.0000 </r>
      <r>     4.9927    15.4388    15.4388    15.4388    -0.0000     0.0000     0.0000 </r>
      <r>     5.0241    12.3808    12.3808    12.3808    -0.0000     0.0000     0.0000 </r>
      <r>     5.0555    12.6967    12.6967    12.6967    -0.0000     0.0000     0.0000 </r>
      <r>     5.0869    12.0703    12.0703    12.0703    -0.0000     0.0000     0.0000 </r>
      <r>     5.1183    11.5257    11.5257    11.5257    -0.0000     0.0000     0.0000 </r>
      <r>     5.1497    11.9017    11.9017    11.9017    -0.0000     0.0000     0.0000 </r>
      <r>     5.1811    12.0811    12.0811    12.0811    -0.0000     0.0000     0.0000 </r>
      <r>     5.2125    11.4294    11.4294    11.4294    -0.0000     0.0000     0.0000 </r>
      <r>     5.2439    12.1739    12.1739    12.1739    -0.0000     0.0000     0.0000 </r>
      <r>     5.2753    14.4571    14.4571    14.4571    -0.0000     0.0000     0.0000 </r>
      <r>     5.3067    11.8276    11.8276    11.8276    -0.0000     0.0000     0.0000 </r>
      <r>     5.3381    10.3430    10.3430    10.3430    -0.0000     0.0000     0.0000 </r>
      <r>     5.3695     9.3839     9.3839     9.3839    -0.0000     0.0000     0.0000 </r>
      <r>     5.4009     9.2187     9.2187     9.2187    -0.0000     0.0000     0.0000 </r>
      <r>     5.4323     8.8207     8.8207     8.8207    -0.0000     0.0000     0.0000 </r>
      <r>     5.4637     8.4516     8.4516     8.4516    -0.0000     0.0000     0.0000 </r>
      <r>     5.4951     8.2522     8.2522     8.2522    -0.0000     0.0000     0.0000 </r>
      <r>     5.5265     6.5738     6.5738     6.5738    -0.0000     0.0000     0.0000 </r>
      <r>     5.5579     6.3700     6.3700     6.3700    -0.0000     0.0000     0.0000 </r>
      <r>     5.5893     6.3634     6.3634     6.3634    -0.0000     0.0000     0.0000 </r>
      <r>     5.6207     6.3616     6.3616     6.3616    -0.0000     0.0000     0.0000 </r>
      <r>     5.6521     7.7406     7.7406     7.7406    -0.0000     0.0000     0.0000 </r>
      <r>     5.6835     7.8203     7.8203     7.8203    -0.0000     0.0000     0.0000 </r>
      <r>     5.7149     6.8174     6.8174     6.8174    -0.0000     0.0000     0.0000 </r>
      <r>     5.7463     6.5580     6.5580     6.5580    -0.0000     0.0000     0.0000 </r>
      <r>     5.7777     6.2213     6.2213     6.2213    -0.0000     0.0000     0.0000 </r>
      <r>     5.8091     5.6221     5.6221     5.6221    -0.0000     0.0000     0.0000 </r>
      <r>     5.8405     5.4316     5.4316     5.4316    -0.0000     0.0000     0.0000 </r>
      <r>     5.8719     5.8314     5.8314     5.8314    -0.0000     0.0000     0.0000 </r>
      <r>     5.9033     5.8006     5.8006     5.8006    -0.0000     0.0000     0.0000 </r>
      <r>     5.9347     6.1152     6.1152     6.1152    -0.0000     0.0000     0.0000 </r>
      <r>     5.9661     6.0477     6.0477     6.0477    -0.0000     0.0000     0.0000 </r>
      <r>     5.9975     5.8477     5.8477     5.8477    -0.0000     0.0000     0.0000 </r>
      <r>     6.0289     5.9510     5.9510     5.9510    -0.0000     0.0000     0.0000 </r>
      <r>     6.0603     5.3528     5.3528     5.3528    -0.0000     0.0000     0.0000 </r>
      <r>     6.0917     5.7042     5.7042     5.7042    -0.0000     0.0000     0.0000 </r>
      <r>     6.1231     5.7646     5.7646     5.7646    -0.0000     0.0000     0.0000 </r>
      <r>     6.1545     5.7499     5.7499     5.7499    -0.0000     0.0000     0.0000 </r>
      <r>     6.1859     5.8143     5.8143     5.8143    -0.0000     0.0000     0.0000 </r>
      <r>     6.2173     5.4177     5.4177     5.4177    -0.0000     0.0000     0.0000 </r>
      <r>     6.2487     5.6190     5.6190     5.6190    -0.0000     0.0000     0.0000 </r>
      <r>     6.2801     5.6051     5.6051     5.6051    -0.0000     0.0000     0.0000 </r>
      <r>     6.3115     5.7172     5.7172     5.7172    -0.0000     0.0000     0.0000 </r>
      <r>     6.3429     5.4971     5.4971     5.4971    -0.0000     0.0000     0.0000 </r>
      <r>     6.3743     5.3646     5.3646     5.3646    -0.0000     0.0000     0.0000 </r>
      <r>     6.4057     5.4023     5.4023     5.4023    -0.0000     0.0000     0.0000 </r>
      <r>     6.4371     5.2003     5.2003     5.2003    -0.0000     0.0000     0.0000 </r>
      <r>     6.4685     5.3099     5.3099     5.3099    -0.0000     0.0000     0.0000 </r>
      <r>     6.4999     5.3003     5.3003     5.3003    -0.0000     0.0000     0.0000 </r>
      <r>     6.5313     5.9390     5.9390     5.9390    -0.0000     0.0000     0.0000 </r>
      <r>     6.5627     5.4957     5.4957     5.4957    -0.0000     0.0000     0.0000 </r>
      <r>     6.5941     5.6878     5.6878     5.6878    -0.0000     0.0000     0.0000 </r>
      <r>     6.6255     5.5619     5.5619     5.5619    -0.0000     0.0000     0.0000 </r>
      <r>     6.6569     5.4605     5.4605     5.4605    -0.0000     0.0000     0.0000 </r>
      <r>     6.6883     5.2395     5.2395     5.2395    -0.0000     0.0000     0.0000 </r>
      <r>     6.7197     5.1876     5.1876     5.1876    -0.0000     0.0000     0.0000 </r>
      <r>     6.7511     5.0021     5.0021     5.0021    -0.0000     0.0000     0.0000 </r>
      <r>     6.7825     5.2844     5.2844     5.2844    -0.0000     0.0000     0.0000 </r>
      <r>     6.8139     4.5307     4.5307     4.5307    -0.0000     0.0000     0.0000 </r>
      <r>     6.8453     3.9505     3.9505     3.9505    -0.0000     0.0000     0.0000 </r>
      <r>     6.8767     3.6833     3.6833     3.6833    -0.0000     0.0000     0.0000 </r>
      <r>     6.9081     3.4166     3.4166     3.4166    -0.0000     0.0000     0.0000 </r>
      <r>     6.9395     3.5733     3.5733     3.5733    -0.0000     0.0000     0.0000 </r>
      <r>     6.9709     3.3781     3.3781     3.3781    -0.0000     0.0000     0.0000 </r>
      <r>     7.0023     3.3419     3.3419     3.3419    -0.0000     0.0000     0.0000 </r>
      <r>     7.0337     3.4378     3.4378     3.4378    -0.0000     0.0000     0.0000 </r>
      <r>     7.0651     2.5141     2.5141     2.5141    -0.0000     0.0000     0.0000 </r>
      <r>     7.0965     3.3655     3.3655     3.3655    -0.0000     0.0000     0.0000 </r>
      <r>     7.1279     3.3814     3.3814     3.3814    -0.0000     0.0000     0.0000 </r>
      <r>     7.1593     3.2482     3.2482     3.2482    -0.0000     0.0000     0.0000 </r>
      <r>     7.1907     3.1183     3.1183     3.1183    -0.0000     0.0000     0.0000 </r>
      <r>     7.2221     3.1826     3.1826     3.1826    -0.0000     0.0000     0.0000 </r>
      <r>     7.2535     3.1679     3.1679     3.1679    -0.0000     0.0000     0.0000 </r>
      <r>     7.2849     3.1902     3.1902     3.1902    -0.0000     0.0000     0.0000 </r>
      <r>     7.3163     3.1479     3.1479     3.1479    -0.0000     0.0000     0.0000 </r>
      <r>     7.3477     3.1816     3.1816     3.1816    -0.0000     0.0000     0.0000 </r>
      <r>     7.3791     3.1129     3.1129     3.1129    -0.0000     0.0000     0.0000 </r>
      <r>     7.4105     3.4519     3.4519     3.4519    -0.0000     0.0000     0.0000 </r>
      <r>     7.4419     2.9040     2.9040     2.9040    -0.0000     0.0000     0.0000 </r>
      <r>     7.4733     2.5459     2.5459     2.5459    -0.0000     0.0000     0.0000 </r>
      <r>     7.5047     2.2422     2.2422     2.2422    -0.0000     0.0000     0.0000 </r>
      <r>     7.5361     1.9519     1.9519     1.9519    -0.0000     0.0000     0.0000 </r>
      <r>     7.5675     1.8736     1.8736     1.8736    -0.0000     0.0000     0.0000 </r>
      <r>     7.5989     1.9635     1.9635     1.9635    -0.0000     0.0000     0.0000 </r>
      <r>     7.6303     1.9808     1.9808     1.9808    -0.0000     0.0000     0.0000 </r>
      <r>     7.6617     2.0491     2.0491     2.0491    -0.0000     0.0000     0.0000 </r>
      <r>     7.6931     2.1301     2.1301     2.1301    -0.0000     0.0000     0.0000 </r>
      <r>     7.7245     2.3683     2.3683     2.3683    -0.0000     0.0000     0.0000 </r>
      <r>     7.7559     2.2740     2.2740     2.2740    -0.0000     0.0000     0.0000 </r>
      <r>     7.7873     2.1164     2.1164     2.1164    -0.0000     0.0000     0.0000 </r>
      <r>     7.8187     1.9205     1.9205     1.9205    -0.0000     0.0000     0.0000 </r>
      <r>     7.8501     2.0859     2.0859     2.0859    -0.0000     0.0000     0.0000 </r>
      <r>     7.8815     1.9665     1.9665     1.9665    -0.0000     0.0000     0.0000 </r>
      <r>     7.9129     1.9183     1.9183     1.9183    -0.0000     0.0000     0.0000 </r>
      <r>     7.9443     2.0516     2.0516     2.0516    -0.0000     0.0000     0.0000 </r>
      <r>     7.9757     2.1951     2.1951     2.1951    -0.0000     0.0000     0.0000 </r>
      <r>     8.0071     2.2575     2.2575     2.2575    -0.0000     0.0000     0.0000 </r>
      <r>     8.0385     2.2514     2.2514     2.2514    -0.0000     0.0000     0.0000 </r>
      <r>     8.0699     2.2308     2.2308     2.2308    -0.0000     0.0000     0.0000 </r>
      <r>     8.1013     2.1063     2.1063     2.1063    -0.0000     0.0000     0.0000 </r>
      <r>     8.1327     2.3117     2.3117     2.3117    -0.0000     0.0000     0.0000 </r>
      <r>     8.1641     2.2996     2.2996     2.2996    -0.0000     0.0000     0.0000 </r>
      <r>     8.1955     2.2786     2.2786     2.2786    -0.0000     0.0000     0.0000 </r>
      <r>     8.2269     2.2714     2.2714     2.2714    -0.0000     0.0000     0.0000 </r>
      <r>     8.2583     2.2792     2.2792     2.2792    -0.0000     0.0000     0.0000 </r>
      <r>     8.2897     2.3766     2.3766     2.3766    -0.0000     0.0000     0.0000 </r>
      <r>     8.3211     2.3277     2.3277     2.3277    -0.0000     0.0000     0.0000 </r>
      <r>     8.3525     2.2641     2.2641     2.2641    -0.0000     0.0000     0.0000 </r>
      <r>     8.3839     2.1984     2.1984     2.1984    -0.0000     0.0000     0.0000 </r>
      <r>     8.4153     2.1751     2.1751     2.1751    -0.0000     0.0000     0.0000 </r>
      <r>     8.4467     2.1558     2.1558     2.1558    -0.0000     0.0000     0.0000 </r>
      <r>     8.4781     2.1450     2.1450     2.1450    -0.0000     0.0000     0.0000 </r>
      <r>     8.5095     2.1347     2.1347     2.1347    -0.0000     0.0000     0.0000 </r>
      <r>     8.5409     2.1797     2.1797     2.1797    -0.0000     0.0000     0.0000 </r>
      <r>     8.5723     2.1608     2.1608     2.1608    -0.0000     0.0000     0.0000 </r>
      <r>     8.6037     2.1400     2.1400     2.1400    -0.0000     0.0000     0.0000 </r>
      <r>     8.6351     2.1390     2.1390     2.1390    -0.0000     0.0000     0.0000 </r>
      <r>     8.6665     2.1297     2.1297     2.1297    -0.0000     0.0000     0.0000 </r>
      <r>     8.6979     2.1167     2.1167     2.1167    -0.0000     0.0000     0.0000 </r>
      <r>     8.7293     2.3379     2.3379     2.3379    -0.0000     0.0000     0.0000 </r>
      <r>     8.7607     2.1832     2.1832     2.1832    -0.0000     0.0000     0.0000 </r>
      <r>     8.7921     2.2301     2.2301     2.2301    -0.0000     0.0000     0.0000 </r>
      <r>     8.8235     2.1837     2.1837     2.1837    -0.0000     0.0000     0.0000 </r>
      <r>     8.8549     2.1398     2.1398     2.1398    -0.0000     0.0000     0.0000 </r>
      <r>     8.8863     2.0780     2.0780     2.0780    -0.0000     0.0000     0.0000 </r>
      <r>     8.9177     2.0780     2.0780     2.0780    -0.0000     0.0000     0.0000 </r>
      <r>     8.9491     2.1476     2.1476     2.1476    -0.0000     0.0000     0.0000 </r>
      <r>     8.9805     2.2038     2.2038     2.2038    -0.0000     0.0000     0.0000 </r>
      <r>     9.0119     2.1595     2.1595     2.1595    -0.0000     0.0000     0.0000 </r>
      <r>     9.0433     2.1456     2.1456     2.1456    -0.0000     0.0000     0.0000 </r>
      <r>     9.0747     2.1005     2.1005     2.1005    -0.0000     0.0000     0.0000 </r>
      <r>     9.1061     2.0859     2.0859     2.0859    -0.0000     0.0000     0.0000 </r>
      <r>     9.1375     2.0804     2.0804     2.0804    -0.0000     0.0000     0.0000 </r>
      <r>     9.1689     2.0723     2.0723     2.0723    -0.0000     0.0000     0.0000 </r>
      <r>     9.2003     2.1464     2.1464     2.1464    -0.0000     0.0000     0.0000 </r>
      <r>     9.2317     2.1625     2.1625     2.1625    -0.0000     0.0000     0.0000 </r>
      <r>     9.2631     2.1955     2.1955     2.1955    -0.0000     0.0000     0.0000 </r>
      <r>     9.2945     2.2370     2.2370     2.2370    -0.0000     0.0000     0.0000 </r>
      <r>     9.3259     2.3928     2.3928     2.3928    -0.0000     0.0000     0.0000 </r>
      <r>     9.3573     2.4028     2.4028     2.4028    -0.0000     0.0000     0.0000 </r>
      <r>     9.3887     3.8989     3.8989     3.8989    -0.0000     0.0000     0.0000 </r>
      <r>     9.4201     4.7427     4.7427     4.7427    -0.0000     0.0000     0.0000 </r>
      <r>     9.4515     4.3283     4.3283     4.3283    -0.0000     0.0000     0.0000 </r>
      <r>     9.4829     5.0261     5.0261     5.0261    -0.0000     0.0000     0.0000 </r>
      <r>     9.5143     4.7899     4.7899     4.7899    -0.0000     0.0000     0.0000 </r>
      <r>     9.5457     4.4061     4.4061     4.4061    -0.0000     0.0000     0.0000 </r>
      <r>     9.5771     4.0122     4.0122     4.0122    -0.0000     0.0000     0.0000 </r>
      <r>     9.6085     3.6062     3.6062     3.6062    -0.0000     0.0000     0.0000 </r>
      <r>     9.6399     3.5971     3.5971     3.5971    -0.0000     0.0000     0.0000 </r>
      <r>     9.6714     3.3927     3.3927     3.3927    -0.0000     0.0000     0.0000 </r>
      <r>     9.7028     3.5456     3.5456     3.5456    -0.0000     0.0000     0.0000 </r>
      <r>     9.7342     3.8166     3.8166     3.8166    -0.0000     0.0000     0.0000 </r>
      <r>     9.7656     4.1895     4.1895     4.1895    -0.0000     0.0000     0.0000 </r>
      <r>     9.7970     3.3933     3.3933     3.3933    -0.0000     0.0000     0.0000 </r>
      <r>     9.8284     2.8449     2.8449     2.8449    -0.0000     0.0000     0.0000 </r>
      <r>     9.8598     2.2616     2.2616     2.2616    -0.0000     0.0000     0.0000 </r>
      <r>     9.8912     2.1623     2.1623     2.1623    -0.0000     0.0000     0.0000 </r>
      <r>     9.9226     2.2484     2.2484     2.2484    -0.0000     0.0000     0.0000 </r>
      <r>     9.9540     1.9840     1.9840     1.9840    -0.0000     0.0000     0.0000 </r>
      <r>     9.9854     2.0095     2.0095     2.0095    -0.0000     0.0000     0.0000 </r>
      <r>    10.0168     2.0070     2.0070     2.0070    -0.0000     0.0000     0.0000 </r>
      <r>    10.0482     2.0470     2.0470     2.0470    -0.0000     0.0000     0.0000 </r>
      <r>    10.0796     1.9707     1.9707     1.9707    -0.0000     0.0000     0.0000 </r>
      <r>    10.1110     2.0320     2.0320     2.0320    -0.0000     0.0000     0.0000 </r>
      <r>    10.1424     2.0377     2.0377     2.0377    -0.0000     0.0000     0.0000 </r>
      <r>    10.1738     1.8831     1.8831     1.8831    -0.0000     0.0000     0.0000 </r>
      <r>    10.2052     1.7618     1.7618     1.7618    -0.0000     0.0000     0.0000 </r>
      <r>    10.2366     1.6677     1.6677     1.6677    -0.0000     0.0000     0.0000 </r>
      <r>    10.2680     1.6862     1.6862     1.6862    -0.0000     0.0000     0.0000 </r>
      <r>    10.2994     1.7532     1.7532     1.7532    -0.0000     0.0000     0.0000 </r>
      <r>    10.3308     1.8210     1.8210     1.8210    -0.0000     0.0000     0.0000 </r>
      <r>    10.3622     1.8590     1.8590     1.8590    -0.0000     0.0000     0.0000 </r>
      <r>    10.3936     2.1016     2.1016     2.1016    -0.0000     0.0000     0.0000 </r>
      <r>    10.4250     2.1060     2.1060     2.1060    -0.0000     0.0000     0.0000 </r>
      <r>    10.4564     2.1099     2.1099     2.1099    -0.0000     0.0000     0.0000 </r>
      <r>    10.4878     2.4280     2.4280     2.4280    -0.0000     0.0000     0.0000 </r>
      <r>    10.5192     1.7158     1.7158     1.7158    -0.0000     0.0000     0.0000 </r>
      <r>    10.5506     1.7580     1.7580     1.7580    -0.0000     0.0000     0.0000 </r>
      <r>    10.5820     1.7767     1.7767     1.7767    -0.0000     0.0000     0.0000 </r>
      <r>    10.6134     1.8149     1.8149     1.8149    -0.0000     0.0000     0.0000 </r>
      <r>    10.6448     1.8339     1.8339     1.8339    -0.0000     0.0000     0.0000 </r>
      <r>    10.6762     1.7781     1.7781     1.7781    -0.0000     0.0000     0.0000 </r>
      <r>    10.7076     1.5625     1.5625     1.5625    -0.0000     0.0000     0.0000 </r>
      <r>    10.7390     1.6203     1.6203     1.6203    -0.0000     0.0000     0.0000 </r>
      <r>    10.7704     1.7334     1.7334     1.7334    -0.0000     0.0000     0.0000 </r>
      <r>    10.8018     1.8476     1.8476     1.8476    -0.0000     0.0000     0.0000 </r>
      <r>    10.8332     2.1130     2.1130     2.1130    -0.0000     0.0000     0.0000 </r>
      <r>    10.8646     2.5224     2.5224     2.5224    -0.0000     0.0000     0.0000 </r>
      <r>    10.8960     2.3387     2.3387     2.3387    -0.0000     0.0000     0.0000 </r>
      <r>    10.9274     2.0543     2.0543     2.0543    -0.0000     0.0000     0.0000 </r>
      <r>    10.9588     1.9067     1.9067     1.9067    -0.0000     0.0000     0.0000 </r>
      <r>    10.9902     2.1242     2.1242     2.1242    -0.0000     0.0000     0.0000 </r>
      <r>    11.0216     1.8227     1.8227     1.8227    -0.0000     0.0000     0.0000 </r>
      <r>    11.0530     1.7602     1.7602     1.7602    -0.0000     0.0000     0.0000 </r>
      <r>    11.0844     1.8877     1.8877     1.8877    -0.0000     0.0000     0.0000 </r>
      <r>    11.1158     1.8863     1.8863     1.8863    -0.0000     0.0000     0.0000 </r>
      <r>    11.1472     1.8401     1.8401     1.8401    -0.0000     0.0000     0.0000 </r>
      <r>    11.1786     1.8104     1.8104     1.8104    -0.0000     0.0000     0.0000 </r>
      <r>    11.2100     1.7761     1.7761     1.7761    -0.0000     0.0000     0.0000 </r>
      <r>    11.2414     1.7267     1.7267     1.7267    -0.0000     0.0000     0.0000 </r>
      <r>    11.2728     1.6160     1.6160     1.6160    -0.0000     0.0000     0.0000 </r>
      <r>    11.3042     1.6148     1.6148     1.6148    -0.0000     0.0000     0.0000 </r>
      <r>    11.3356     1.6349     1.6349     1.6349    -0.0000     0.0000     0.0000 </r>
      <r>    11.3670     1.6460     1.6460     1.6460    -0.0000     0.0000     0.0000 </r>
      <r>    11.3984     1.7481     1.7481     1.7481    -0.0000     0.0000     0.0000 </r>
      <r>    11.4298     1.8545     1.8545     1.8545    -0.0000     0.0000     0.0000 </r>
[...]
        <r>  0.0000  0.0000  0.0001  0.0001  0.0416  0.0416  0.1754  0.0000  0.0585 </r>
        <r>  0.0000  0.0000  0.0000  0.0000  0.0000  0.0000  0.0000  0.0000  0.0000 </r>
        <r>  0.0000  0.0000  0.0000  0.0000  0.0000  0.0000  0.0000  0.0000  0.0000 </r>
        <r>  0.0000  0.0000  0.0000  0.0000  0.0000  0.0000  0.0000  0.0000  0.0000 </r>
       </set>
       <set comment="band 17">
        <r>  0.0018  0.0000  0.0000  0.0001  0.0002  0.0574  0.0378  0.0600  0.0239 </r>
        <r>  0.0001  0.0002  0.0001  0.0000  0.0057  0.0000  0.2283  0.0031  0.1132 </r>
        <r>  0.0010  0.0000  0.0000  0.0002  0.0340  0.0287  0.0896  0.0001  0.1132 </r>
        <r>  0.0000  0.0001  0.0001  0.0000  0.0056  0.0004  0.1472  0.0030  0.0103 </r>
        <r>  0.0000  0.0017  0.0032  0.0002  0.0000  0.0000  0.0000  0.0000  0.0000 </r>
        <r>  0.0000  0.0017  0.0032  0.0002  0.0000  0.0000  0.0000  0.0000  0.0000 </r>
       </set>
       <set comment="band 18">
        <r>  0.0001  0.0002  0.0000  0.0001  0.0000  0.0056  0.0027  0.0029  0.3398 </r>
        <r>  0.0018  0.0000  0.0001  0.0000  0.0572  0.0002  0.0545  0.0599  0.0080 </r>
        <r>  0.0010  0.0000  0.0002  0.0000  0.0290  0.0343  0.1932  0.0001  0.0080 </r>
        <r>  0.0000  0.0001  0.0000  0.0001  0.0004  0.0056  0.0103  0.0030  0.1472 </r>
        <r>  0.0000  0.0017  0.0002  0.0032  0.0000  0.0000  0.0000  0.0000  0.0000 </r>
        <r>  0.0000  0.0017  0.0002  0.0032  0.0000  0.0000  0.0000  0.0000  0.0000 </r>
       </set>
       <set comment="band 19">
        <r>  0.0000  0.0002  0.0013  0.0002  0.0053  0.0124  0.2471  0.0124  0.0000 </r>
        <r>  0.0000  0.0002  0.0002  0.0013  0.0124  0.0053  0.0618  0.0124  0.1854 </r>
        <r>  0.0000  0.0013  0.0002  0.0002  0.0124  0.0124  0.0618  0.0053  0.1854 </r>
        <r>  0.0011  0.0009  0.0009  0.0009  0.0340  0.0340  0.0000  0.0340  0.0000 </r>
        <r>  0.0004  0.0029  0.0029  0.0029  0.0000  0.0000  0.0000  0.0000  0.0000 </r>
        <r>  0.0004  0.0029  0.0029  0.0029  0.0000  0.0000  0.0000  0.0000  0.0000 </r>
       </set>
       <set comment="band 20">
        <r>  0.0000  0.0000  0.0000  0.0000  0.0000  0.1205  0.0000  0.1205  0.0873 </r>
        <r>  0.0000  0.0000  0.0000  0.0000  0.1205  0.0000  0.0654  0.1205  0.0218 </r>
        <r>  0.0000  0.0000  0.0000  0.0000  0.1205  0.1205  0.0655  0.0000  0.0218 </r>
        <r>  0.0000  0.0000  0.0000  0.0000  0.0000  0.0000  0.0000  0.0000  0.0000 </r>
        <r>  0.0000  0.0000  0.0000  0.0000  0.0000  0.0000  0.0000  0.0000  0.0000 </r>
        <r>  0.0000  0.0000  0.0000  0.0000  0.0000  0.0000  0.0000  0.0000  0.0000 </r>
       </set>
       <set comment="band 21">
        <r>  0.0000  0.0007  0.0006  0.0013  0.1053  0.0257  0.0866  0.0047  0.0002 </r>
        <r>  0.0000  0.0008  0.0001  0.0000  0.0197  0.0075  0.0066  0.0407  0.0020 </r>
        <r>  0.0000  0.0003  0.0001  0.0014  0.0017  0.0437  0.0191  0.0565  0.0286 </r>
        <r>  0.0000  0.0001  0.0002  0.0000  0.1850  0.0133  0.1952  0.0992  0.0140 </r>
        <r>  0.0000  0.0031  0.0058  0.0004  0.0000  0.0000  0.0000  0.0000  0.0000 </r>
        <r>  0.0000  0.0031  0.0058  0.0004  0.0000  0.0000  0.0000  0.0000  0.0000 </r>
       </set>
       <set comment="band 22">
        <r>  0.0000  0.0008  0.0000  0.0001  0.0076  0.0197  0.0062  0.0407  0.0023 </r>
        <r>  0.0000  0.0007  0.0013  0.0006  0.0257  0.1054  0.0185  0.0047  0.0683 </r>
        <r>  0.0000  0.0003  0.0014  0.0001  0.0437  0.0017  0.0060  0.0564  0.0417 </r>
        <r>  0.0000  0.0001  0.0000  0.0002  0.0133  0.1850  0.0140  0.0991  0.1952 </r>
        <r>  0.0000  0.0031  0.0004  0.0058  0.0000  0.0000  0.0000  0.0000  0.0000 </r>
        <r>  0.0000  0.0031  0.0004  0.0058  0.0000  0.0000  0.0000  0.0000  0.0000 </r>
       </set>
       <set comment="band 23">
        <r>  0.0002  0.0003  0.0004  0.0002  0.0969  0.0001  0.0821  0.0584  0.0101 </r>
        <r>  0.0000  0.0000  0.0000  0.0000  0.0651  0.0002  0.0369  0.0600  0.0094 </r>
        <r>  0.0002  0.0004  0.0003  0.0002  0.0637  0.0002  0.0558  0.0890  0.0326 </r>
        <r>  0.0000  0.0000  0.0000  0.0000  0.0461  0.0001  0.1728  0.0424  0.0484 </r>
        <r>  0.0000  0.0024  0.0026  0.0000  0.0000  0.0000  0.0000  0.0000  0.0000 </r>
        <r>  0.0000  0.0024  0.0026  0.0000  0.0000  0.0000  0.0000  0.0000  0.0000 </r>
       </set>
       <set comment="band 24">
        <r>  0.0001  0.0000  0.0001  0.0001  0.0271  0.0824  0.0230  0.0241  0.0361 </r>
        <r>  0.0003  0.0003  0.0003  0.0005  0.0173  0.1238  0.0241  0.0225  0.0810 </r>
        <r>  0.0001  0.0001  0.0001  0.0001  0.0188  0.0823  0.0051  0.0350  0.0577 </r>
        <r>  0.0000  0.0000  0.0000  0.0000  0.0129  0.0590  0.0484  0.0167  0.1728 </r>
        <r>  0.0000  0.0009  0.0007  0.0033  0.0000  0.0000  0.0000  0.0000  0.0000 </r>
        <r>  0.0000  0.0009  0.0007  0.0033  0.0000  0.0000  0.0000  0.0000  0.0000 </r>
       </set>
       <set comment="band 25">
        <r>  0.0132  0.0008  0.0009  0.0008  0.0642  0.0441  0.0158  0.0441  0.0000 </r>
        <r>  0.0132  0.0008  0.0008  0.0009  0.0441  0.0642  0.0040  0.0441  0.0119 </r>
        <r>  0.0132  0.0009  0.0008  0.0008  0.0441  0.0441  0.0040  0.0642  0.0119 </r>
        <r>  0.0618  0.0027  0.0027  0.0027  0.0553  0.0553  0.0000  0.0553  0.0000 </r>
        <r>  0.0006  0.0184  0.0184  0.0184  0.0000  0.0000  0.0000  0.0000  0.0000 </r>
        <r>  0.0006  0.0184  0.0184  0.0184  0.0000  0.0000  0.0000  0.0000  0.0000 </r>
       </set>
       <set comment="band 26">
        <r>  0.0696  0.0003  0.0001  0.0011  0.1235  0.0711  0.0011  0.0069  0.0016 </r>
        <r>  0.0491  0.0001  0.0012  0.0001  0.0922  0.0871  0.0020  0.0001  0.0034 </r>
        <r>  0.0018  0.0000  0.0006  0.0003  0.0765  0.0487  0.0083  0.0032  0.0035 </r>
        <r>  0.0000  0.0000  0.0010  0.0007  0.0892  0.0630  0.0039  0.0023  0.0006 </r>
        <r>  0.0000  0.0007  0.0262  0.0185  0.0000  0.0000  0.0000  0.0000  0.0000 </r>
        <r>  0.0000  0.0007  0.0262  0.0185  0.0000  0.0000  0.0000  0.0000  0.0000 </r>
       </set>
       <set comment="band 27">
        <r>  0.0107  0.0009  0.0000  0.0001  0.0190  0.0273  0.0002  0.0916  0.0104 </r>
        <r>  0.0312  0.0012  0.0000  0.0001  0.0063  0.0554  0.0073  0.0984  0.0005 </r>
        <r>  0.0785  0.0001  0.0006  0.0010  0.0220  0.0498  0.0010  0.1394  0.0005 </r>
        <r>  0.0000  0.0012  0.0002  0.0005  0.0138  0.0400  0.0006  0.1007  0.0039 </r>
        <r>  0.0000  0.0296  0.0040  0.0118  0.0000  0.0000  0.0000  0.0000  0.0000 </r>
        <r>  0.0000  0.0296  0.0040  0.0118  0.0000  0.0000  0.0000  0.0000  0.0000 </r>
       </set>
       <set comment="band 28">
        <r>  0.0075  0.0000  0.0002  0.0000  0.0654  0.0720  0.0019  0.0720  0.0000 </r>
        <r>  0.0075  0.0000  0.0000  0.0002  0.0720  0.0654  0.0005  0.0720  0.0015 </r>
        <r>  0.0075  0.0002  0.0000  0.0000  0.0720  0.0720  0.0005  0.0654  0.0015 </r>
        <r>  0.0098  0.0007  0.0007  0.0007  0.0871  0.0871  0.0000  0.0871  0.0000 </r>
        <r>  0.0086  0.0049  0.0049  0.0049  0.0000  0.0000  0.0000  0.0000  0.0000 </r>
        <r>  0.0086  0.0049  0.0049  0.0049  0.0000  0.0000  0.0000  0.0000  0.0000 </r>
       </set>
       <set comment="band 29">
        <r>  0.0117  0.0134  0.0338  0.0134  0.0014  0.0101  0.0002  0.0101  0.0000 </r>
        <r>  0.0117  0.0134  0.0134  0.0338  0.0101  0.0014  0.0000  0.0101  0.0001 </r>
        <r>  0.0117  0.0338  0.0134  0.0134  0.0101  0.0101  0.0000  0.0014  0.0001 </r>
        <r>  0.0282  0.0003  0.0003  0.0003  0.0087  0.0087  0.0000  0.0087  0.0000 </r>
        <r>  0.0111  0.0263  0.0263  0.0263  0.0000  0.0000  0.0000  0.0000  0.0000 </r>
        <r>  0.0111  0.0263  0.0263  0.0263  0.0000  0.0000  0.0000  0.0000  0.0000 </r>
       </set>
       <set comment="band 30">
        <r>  0.0008  0.0035  0.0128  0.0014  0.0004  0.0053  0.0002  0.0088  0.0000 </r>
        <r>  0.0001  0.0402  0.0427  0.0011  0.0048  0.0000  0.0002  0.0004  0.0002 </r>
        <r>  0.0004  0.0063  0.0265  0.0219  0.0085  0.0006  0.0001  0.0002  0.0002 </r>
        <r>  0.0000  0.0287  0.0583  0.0052  0.0000  0.0000  0.0002  0.0000  0.0000 </r>
        <r>  0.0000  0.0280  0.0569  0.0051  0.0000  0.0000  0.0000  0.0000  0.0000 </r>
        <r>  0.0000  0.0280  0.0569  0.0051  0.0000  0.0000  0.0000  0.0000  0.0000 </r>
       </set>
       <set comment="band 31">
        <r>  0.0000  0.0419  0.0007  0.0440  0.0000  0.0041  0.0000  0.0007  0.0004 </r>
        <r>  0.0008  0.0052  0.0026  0.0124  0.0047  0.0004  0.0001  0.0091  0.0001 </r>
        <r>  0.0004  0.0072  0.0189  0.0235  0.0010  0.0088  0.0003  0.0002  0.0000 </r>
        <r>  0.0000  0.0327  0.0032  0.0563  0.0000  0.0000  0.0000  0.0000  0.0002 </r>
        <r>  0.0000  0.0320  0.0031  0.0550  0.0000  0.0000  0.0000  0.0000  0.0000 </r>
        <r>  0.0000  0.0320  0.0031  0.0550  0.0000  0.0000  0.0000  0.0000  0.0000 </r>
       </set>
       <set comment="band 32">
        <r>  0.0090  0.0004  0.0096  0.0004  0.0180  0.0005  0.0151  0.0005  0.0000 </r>
        <r>  0.0090  0.0004  0.0004  0.0096  0.0005  0.0180  0.0038  0.0005  0.0113 </r>
        <r>  0.0090  0.0096  0.0004  0.0004  0.0005  0.0005  0.0038  0.0180  0.0113 </r>
        <r>  0.1430  0.0019  0.0019  0.0019  0.0383  0.0383  0.0000  0.0383  0.0000 </r>
        <r>  0.0188  0.0217  0.0217  0.0217  0.0000  0.0000  0.0000  0.0000  0.0000 </r>
        <r>  0.0188  0.0217  0.0217  0.0217  0.0000  0.0000  0.0000  0.0000  0.0000 </r>
       </set>
       <set comment="band 33">
        <r>  0.0439  0.0013  0.0034  0.0003  0.0108  0.0347  0.0007  0.0038  0.0094 </r>
        <r>  0.0192  0.0008  0.0001  0.0015  0.0235  0.0047  0.0111  0.0001  0.0016 </r>
        <r>  0.1211  0.0095  0.0022  0.0019  0.0386  0.0461  0.0001  0.0297  0.0021 </r>
        <r>  0.0000  0.0031  0.0011  0.0005  0.0032  0.0014  0.0032  0.0089  0.0058 </r>
        <r>  0.0000  0.0692  0.0251  0.0110  0.0000  0.0000  0.0000  0.0000  0.0000 </r>
        <r>  0.0000  0.0692  0.0251  0.0110  0.0000  0.0000  0.0000  0.0000  0.0000 </r>
       </set>
       <set comment="band 34">
        <r>  0.0789  0.0009  0.0062  0.0019  0.0194  0.0142  0.0013  0.0452  0.0052 </r>
        <r>  0.1036  0.0014  0.0022  0.0081  0.0254  0.0254  0.0004  0.0488  0.0036 </r>
        <r>  0.0017  0.0001  0.0000  0.0003  0.0103  0.0029  0.0114  0.0004  0.0031 </r>
        <r>  0.0000  0.0000  0.0020  0.0027  0.0058  0.0076  0.0058  0.0001  0.0032 </r>
        <r>  0.0000  0.0010  0.0451  0.0592  0.0000  0.0000  0.0000  0.0000  0.0000 </r>
        <r>  0.0000  0.0010  0.0451  0.0592  0.0000  0.0000  0.0000  0.0000  0.0000 </r>
       </set>
       <set comment="band 35">
        <r>  0.0013  0.0119  0.0080  0.0119  0.0044  0.0000  0.0000  0.0000  0.0000 </r>
        <r>  0.0013  0.0119  0.0119  0.0080  0.0000  0.0044  0.0000  0.0000  0.0000 </r>
        <r>  0.0013  0.0080  0.0119  0.0119  0.0000  0.0000  0.0000  0.0044  0.0000 </r>
        <r>  0.0378  0.0095  0.0095  0.0095  0.0060  0.0060  0.0000  0.0060  0.0000 </r>
        <r>  0.0341  0.0120  0.0120  0.0120  0.0000  0.0000  0.0000  0.0000  0.0000 </r>
        <r>  0.0341  0.0120  0.0120  0.0120  0.0000  0.0000  0.0000  0.0000  0.0000 </r>
       </set>
       <set comment="band 36">
        <r>  0.1320  0.0048  0.0076  0.0048  0.0015  0.0007  0.0001  0.0007  0.0000 </r>
        <r>  0.1320  0.0048  0.0048  0.0076  0.0007  0.0015  0.0000  0.0007  0.0001 </r>
        <r>  0.1320  0.0076  0.0048  0.0048  0.0007  0.0007  0.0000  0.0015  0.0001 </r>
        <r>  0.1060  0.0008  0.0008  0.0008  0.0019  0.0019  0.0000  0.0019  0.0000 </r>
        <r>  0.0584  0.0065  0.0065  0.0065  0.0000  0.0000  0.0000  0.0000  0.0000 </r>
        <r>  0.0584  0.0065  0.0065  0.0065  0.0000  0.0000  0.0000  0.0000  0.0000 </r>
       </set>
       <set comment="band 37">
        <r>  0.0417  0.0385  0.1402  0.0166  0.0069  0.0009  0.0012  0.0000  0.0006 </r>
        <r>  0.0017  0.0048  0.0183  0.0058  0.0013  0.0003  0.0034  0.0018  0.0018 </r>
        <r>  0.0265  0.0890  0.0391  0.0037  0.0002  0.0016  0.0008  0.0044  0.0023 </r>
        <r>  0.0000  0.0026  0.0042  0.0002  0.0010  0.0000  0.0248  0.0006  0.0029 </r>
        <r>  0.0000  0.0023  0.0037  0.0002  0.0000  0.0000  0.0000  0.0000  0.0000 </r>
        <r>  0.0000  0.0023  0.0037  0.0002  0.0000  0.0000  0.0000  0.0000  0.0000 </r>
       </set>
       <set comment="band 38">
        <r>  0.0049  0.0018  0.0165  0.0238  0.0008  0.0010  0.0001  0.0019  0.0047 </r>
        <r>  0.0449  0.0355  0.0220  0.1508  0.0007  0.0074  0.0009  0.0001  0.0006 </r>
        <r>  0.0201  0.0676  0.0012  0.0366  0.0018  0.0003  0.0036  0.0033  0.0000 </r>
        <r>  0.0000  0.0020  0.0005  0.0045  0.0001  0.0011  0.0029  0.0005  0.0248 </r>
        <r>  0.0000  0.0018  0.0004  0.0039  0.0000  0.0000  0.0000  0.0000  0.0000 </r>
        <r>  0.0000  0.0018  0.0004  0.0039  0.0000  0.0000  0.0000  0.0000  0.0000 </r>
       </set>
       <set comment="band 39">
        <r>  0.0000  0.0780  0.0000  0.0780  0.0000  0.0026  0.0000  0.0026  0.0105 </r>
        <r>  0.0000  0.0780  0.0780  0.0000  0.0026  0.0000  0.0079  0.0026  0.0026 </r>
        <r>  0.0000  0.0000  0.0780  0.0780  0.0026  0.0026  0.0079  0.0000  0.0026 </r>
        <r>  0.0000  0.0000  0.0000  0.0000  0.0000  0.0000  0.0000  0.0000  0.0000 </r>
        <r>  0.0000  0.0000  0.0000  0.0000  0.0000  0.0000  0.0000  0.0000  0.0000 </r>
        <r>  0.0000  0.0000  0.0000  0.0000  0.0000  0.0000  0.0000  0.0000  0.0000 </r>
       </set>
       <set comment="band 40">
        <r>  0.0014  0.0153  0.0002  0.0026  0.0039  0.0012  0.0020  0.0020  0.0012 </r>
        <r>  0.0000  0.0502  0.0551  0.0000  0.0004  0.0001  0.0067  0.0001  0.0016 </r>
        <r>  0.0010  0.0001  0.0300  0.0124  0.0018  0.0006  0.0046  0.0028  0.0000 </r>
        <r>  0.0000  0.1128  0.1554  0.0034  0.0001  0.0000  0.0053  0.0000  0.0009 </r>
        <r>  0.0000  0.0020  0.0028  0.0001  0.0000  0.0000  0.0000  0.0000  0.0000 </r>
        <r>  0.0000  0.0020  0.0028  0.0001  0.0000  0.0000  0.0000  0.0000  0.0000 </r>
       </set>
       <set comment="band 41">
        <r>  0.0002  0.0399  0.0000  0.0526  0.0006  0.0008  0.0003  0.0000  0.0072 </r>
        <r>  0.0016  0.0050  0.0001  0.0002  0.0016  0.0044  0.0002  0.0019  0.0023 </r>
        <r>  0.0006  0.0001  0.0252  0.0428  0.0002  0.0014  0.0023  0.0017  0.0038 </r>
        <r>  0.0000  0.0683  0.0256  0.1777  0.0000  0.0001  0.0009  0.0000  0.0053 </r>
        <r>  0.0000  0.0012  0.0005  0.0032  0.0000  0.0000  0.0000  0.0000  0.0000 </r>
        <r>  0.0000  0.0012  0.0005  0.0032  0.0000  0.0000  0.0000  0.0000  0.0000 </r>
       </set>
       <set comment="band 42">
        <r>  0.0124  0.0057  0.0021  0.0365  0.0050  0.0007  0.0026  0.0045  0.0036 </r>
        <r>  0.0003  0.0060  0.0134  0.0000  0.0057  0.0001  0.0082  0.0066  0.0019 </r>
        <r>  0.0162  0.0028  0.0129  0.0364  0.0029  0.0001  0.0000  0.0066  0.0050 </r>
        <r>  0.0000  0.0252  0.0192  0.0004  0.0056  0.0001  0.0063  0.0073  0.0035 </r>
        <r>  0.0000  0.0015  0.0011  0.0000  0.0000  0.0000  0.0000  0.0000  0.0000 </r>
        <r>  0.0000  0.0015  0.0011  0.0000  0.0000  0.0000  0.0000  0.0000  0.0000 </r>
       </set>
       <set comment="band 43">
        <r>  0.0069  0.0313  0.0012  0.0004  0.0028  0.0061  0.0014  0.0024  0.0065 </r>
        <r>  0.0190  0.0309  0.0236  0.0032  0.0011  0.0077  0.0005  0.0002  0.0037 </r>
        <r>  0.0030  0.0005  0.0240  0.0006  0.0039  0.0067  0.0086  0.0012  0.0006 </r>
        <r>  0.0000  0.0047  0.0106  0.0295  0.0031  0.0086  0.0035  0.0014  0.0063 </r>
        <r>  0.0000  0.0003  0.0006  0.0017  0.0000  0.0000  0.0000  0.0000  0.0000 </r>
        <r>  0.0000  0.0003  0.0006  0.0017  0.0000  0.0000  0.0000  0.0000  0.0000 </r>
       </set>
       <set comment="band 44">
        <r>  0.0005  0.0031  0.0059  0.0031  0.0061  0.0011  0.0033  0.0011  0.0000 </r>
        <r>  0.0005  0.0031  0.0031  0.0059  0.0011  0.0061  0.0008  0.0011  0.0025 </r>
        <r>  0.0005  0.0059  0.0031  0.0031  0.0011  0.0011  0.0008  0.0061  0.0025 </r>
        <r>  0.0170  0.0162  0.0162  0.0162  0.0008  0.0008  0.0000  0.0008  0.0000 </r>
        <r>  0.0005  0.0040  0.0040  0.0040  0.0000  0.0000  0.0000  0.0000  0.0000 </r>
        <r>  0.0005  0.0040  0.0040  0.0040  0.0000  0.0000  0.0000  0.0000  0.0000 </r>
       </set>
       <set comment="band 45">
        <r>  0.0001  0.0181  0.0258  0.0038  0.0020  0.0013  0.0530  0.0056  0.0052 </r>
        <r>  0.0000  0.0055  0.0073  0.0001  0.0150  0.0000  0.0205  0.0144  0.0046 </r>
        <r>  0.0001  0.0230  0.0185  0.0024  0.0072  0.0022  0.0334  0.0018  0.0210 </r>
        <r>  0.0000  0.0024  0.0026  0.0000  0.0209  0.0001  0.0049  0.0186  0.0013 </r>
        <r>  0.0000  0.0073  0.0082  0.0000  0.0000  0.0000  0.0000  0.0000  0.0000 </r>
        <r>  0.0000  0.0073  0.0082  0.0000  0.0000  0.0000  0.0000  0.0000  0.0000 </r>
       </set>
       <set comment="band 46">
        <r>  0.0000  0.0004  0.0068  0.0148  0.0005  0.0140  0.0139  0.0096  0.0198 </r>
        <r>  0.0001  0.0130  0.0113  0.0325  0.0003  0.0026  0.0149  0.0008  0.0518 </r>
        <r>  0.0000  0.0096  0.0001  0.0162  0.0081  0.0130  0.0020  0.0008  0.0353 </r>
        <r>  0.0000  0.0010  0.0007  0.0033  0.0055  0.0263  0.0013  0.0078  0.0049 </r>
        <r>  0.0000  0.0031  0.0021  0.0103  0.0000  0.0000  0.0000  0.0000  0.0000 </r>
        <r>  0.0000  0.0031  0.0021  0.0103  0.0000  0.0000  0.0000  0.0000  0.0000 </r>
       </set>
       <set comment="band 47">
        <r>  0.0023  0.0164  0.0016  0.0164  0.0204  0.0018  0.0046  0.0018  0.0000 </r>
        <r>  0.0023  0.0164  0.0164  0.0016  0.0018  0.0204  0.0011  0.0018  0.0034 </r>
        <r>  0.0023  0.0016  0.0164  0.0164  0.0018  0.0018  0.0011  0.0204  0.0034 </r>
        <r>  0.1020  0.0087  0.0087  0.0087  0.0000  0.0000  0.0000  0.0000  0.0000 </r>
        <r>  0.0019  0.0094  0.0094  0.0094  0.0000  0.0000  0.0000  0.0000  0.0000 </r>
        <r>  0.0019  0.0094  0.0094  0.0094  0.0000  0.0000  0.0000  0.0000  0.0000 </r>
       </set>
       <set comment="band 48">
        <r>  0.0026  0.0045  0.0079  0.0063  0.0031  0.0030  0.0104  0.0019  0.0221 </r>
        <r>  0.0099  0.0166  0.0115  0.0297  0.0032  0.0120  0.0114  0.0051  0.0357 </r>
        <r>  0.0026  0.0078  0.0025  0.0093  0.0016  0.0044  0.0174  0.0031  0.0073 </r>
        <r>  0.0000  0.0000  0.0000  0.0000  0.0062  0.0238  0.0088  0.0062  0.0257 </r>
        <r>  0.0000  0.0009  0.0009  0.0035  0.0000  0.0000  0.0000  0.0000  0.0000 </r>
        <r>  0.0000  0.0009  0.0009  0.0035  0.0000  0.0000  0.0000  0.0000  0.0000 </r>
       </set>
      </set>
     </set>
    </set>
   </array>
  </projected>
 </calculation>
 <structure name="finalpos" >
  <crystal>
   <varray name="basis" >
    <v>       4.24669932       0.00000000       0.00000000 </v>
    <v>      -0.00000000       4.24669932       0.00000000 </v>
    <v>       0.00000000       0.00000000       4.24669932 </v>
   </varray>
   <i name="volume">     76.58690827 </i>
   <varray name="rec_basis" >
    <v>       0.23547700       0.00000000       0.00000000 </v>
    <v>       0.00000000       0.23547700       0.00000000 </v>
    <v>      -0.00000000      -0.00000000       0.23547700 </v>
   </varray>
  </crystal>
  <varray name="positions" >
   <v>       0.50000000       0.50000000       0.00000000 </v>
   <v>       0.00000000       0.50000000       0.50000000 </v>
   <v>       0.50000000       0.00000000       0.50000000 </v>
   <v>       0.00000000       0.00000000       0.00000000 </v>
   <v>       0.75000000       0.75000000       0.75000000 </v>
   <v>       0.25000000       0.25000000       0.25000000 </v>
  </varray>
 </structure>
</modeling>
