<?xml version="1.0" encoding="ISO-8859-1"?>
<modeling>
 <generator>
  <i name="program" type="string">vasp </i>
  <i name="version" type="string">6.4.2  </i>
  <i name="subversion" type="string">20Jul23 (build Mar 15 2024 16:31:38) complex                          parallel </i>
  <i name="platform" type="string">LinuxIFC </i>
  <i name="date" type="string">2025 03 19 </i>
  <i name="time" type="string">14:51:19 </i>
 </generator>
 <incar>
  <i type="string" name="PREC">Accurate</i>
  <i type="string" name="ALGO">Fast</i>
  <i type="int" name="ISPIN">     2</i>
  <i type="int" name="NELM">   200</i>
  <i name="EDIFF">      0.00001000</i>
  <i type="int" name="NSW">     0</i>
  <i name="ENCUT">    680.00000000</i>
  <i name="ENAUG">   1360.00000000</i>
  <v name="MAGMOM">      0.60000000      0.60000000      0.60000000      0.60000000      0.60000000      0.60000000      0.60000000      0.60000000</v>
  <i type="logical" name="LREAL"> F  </i>
  <i type="int" name="ISMEAR">    -5</i>
  <i name="SIGMA">      0.20000000</i>
  <i type="int" name="LMAXMIX">     4</i>
  <i type="logical" name="LWAVE"> T  </i>
  <i type="logical" name="LCHARG"> T  </i>
  <i type="logical" name="LVTOT"> T  </i>
  <i type="int" name="LORBIT">    11</i>
  <i type="logical" name="LELF"> F  </i>
  <i type="logical" name="LASPH"> T  </i>
  <i type="logical" name="LAECHG"> T  </i>
  <i type="string" name="GGA">Ps</i>
  <i type="logical" name="LMIXTAU"> T  </i>
 </incar>
 <primitive_cell>
  <structure name="primitive_cell" >
   <crystal>
    <varray name="basis" >
     <v>       4.93901185       0.00000000      -4.41848219 </v>
     <v>      -0.98753537       4.83927803      -4.41848219 </v>
     <v>       0.00000000       0.00000000       6.62697690 </v>
    </varray>
    <i name="volume">    158.39304179 </i>
    <varray name="rec_basis" >
     <v>       0.20246965       0.04131731       0.00000000 </v>
     <v>       0.00000000       0.20664239       0.00000000 </v>
     <v>       0.13499497       0.16532509       0.15089837 </v>
    </varray>
   </crystal>
   <varray name="positions" >
    <v>       0.75000000       0.25000000       0.50000000 </v>
    <v>       0.00000000       0.00000000       0.00000000 </v>
    <v>       0.25000000       0.75000000       0.50000000 </v>
    <v>       0.50000000       0.50000000       0.00000000 </v>
    <v>       0.36432714       0.37124032       0.47758056 </v>
    <v>       0.89365977       0.88674759       0.52241944 </v>
    <v>       0.11325241       0.63567286       0.00691218 </v>
    <v>       0.62875968       0.10634023       0.99308782 </v>
   </varray>
  </structure>
  <varray name="primitive_index" >
   <v type="int" >        1 </v>
   <v type="int" >        2 </v>
   <v type="int" >        3 </v>
   <v type="int" >        4 </v>
   <v type="int" >        5 </v>
   <v type="int" >        6 </v>
   <v type="int" >        7 </v>
   <v type="int" >        8 </v>
  </varray>
 </primitive_cell>
 <kpoints>
  <generation param="Gamma">
   <v type="int" name="divisions">       4        4        4 </v>
   <v name="usershift">      0.00000000       0.00000000       0.00000000 </v>
   <v name="genvec1">      0.25000000      -0.00000000       0.00000000 </v>
   <v name="genvec2">      0.00000000       0.25000000       0.00000000 </v>
   <v name="genvec3">      0.00000000       0.00000000       0.25000000 </v>
   <v name="shift">      0.00000000       0.00000000       0.00000000 </v>
  </generation>
  <varray name="kpointlist" >
   <v>       0.00000000       0.00000000       0.00000000 </v>
   <v>       0.25000000       0.00000000       0.00000000 </v>
   <v>       0.50000000       0.00000000       0.00000000 </v>
   <v>       0.25000000       0.25000000       0.00000000 </v>
   <v>       0.50000000       0.25000000       0.00000000 </v>
   <v>       0.50000000      -0.25000000      -0.25000000 </v>
   <v>      -0.25000000       0.25000000       0.00000000 </v>
   <v>       0.50000000       0.50000000       0.00000000 </v>
   <v>       0.25000000       0.25000000       0.25000000 </v>
   <v>      -0.25000000       0.25000000       0.25000000 </v>
   <v>       0.50000000       0.50000000       0.25000000 </v>
   <v>      -0.25000000       0.50000000       0.25000000 </v>
   <v>      -0.25000000      -0.25000000       0.25000000 </v>
   <v>       0.50000000       0.50000000       0.50000000 </v>
  </varray>
  <varray name="weights" >
   <v>       0.01562500 </v>
   <v>       0.12500000 </v>
   <v>       0.06250000 </v>
   <v>       0.12500000 </v>
   <v>       0.12500000 </v>
   <v>       0.12500000 </v>
   <v>       0.06250000 </v>
   <v>       0.03125000 </v>
   <v>       0.03125000 </v>
   <v>       0.06250000 </v>
   <v>       0.06250000 </v>
   <v>       0.12500000 </v>
   <v>       0.03125000 </v>
   <v>       0.01562500 </v>
  </varray>
  <varray name="tetrahedronlist"  type="int" >
   <v type="int" >        2        4        6        9       11 </v>
   <v type="int" >        2        4        5        9       11 </v>
   <v type="int" >        4        4        5       11       12 </v>
   <v type="int" >        4        4        6       11       12 </v>
   <v type="int" >        4        4       11       12       14 </v>
   <v type="int" >        2        6       10       12       12 </v>
   <v type="int" >        2        6       11       12       12 </v>
   <v type="int" >        4       11       12       12       14 </v>
   <v type="int" >        4       10       11       12       12 </v>
   <v type="int" >        4       11       12       12       12 </v>
   <v type="int" >        4       12       12       12       14 </v>
   <v type="int" >        2        4        5       10       11 </v>
   <v type="int" >        4        4       10       11       12 </v>
   <v type="int" >        4        4       11       12       12 </v>
   <v type="int" >        4        4        5        6       11 </v>
   <v type="int" >        2        3        4        6       11 </v>
   <v type="int" >        4        3        4       11       12 </v>
   <v type="int" >        4        5        5        6        9 </v>
   <v type="int" >        4        4        5        5        6 </v>
   <v type="int" >        8        3        4        5        6 </v>
   <v type="int" >        8        4        5        6        9 </v>
   <v type="int" >        4        4        5        6       12 </v>
   <v type="int" >        4        3        5        6       12 </v>
   <v type="int" >        2        5       11       12       12 </v>
   <v type="int" >        2        5       10       12       12 </v>
   <v type="int" >        4       11       12       13       14 </v>
   <v type="int" >        4       12       12       13       14 </v>
   <v type="int" >        4        4       12       13       14 </v>
   <v type="int" >        4        2        4       12       12 </v>
   <v type="int" >        4        2       12       12       13 </v>
   <v type="int" >        8        2        4       12       13 </v>
   <v type="int" >        8        2        3        4       12 </v>
   <v type="int" >        4        2        3        6       12 </v>
   <v type="int" >        4        2        4        6       12 </v>
   <v type="int" >        4        3        4        5       10 </v>
   <v type="int" >        4        2        3        4       10 </v>
   <v type="int" >        4        2        3        6       10 </v>
   <v type="int" >        4        3        5       10       12 </v>
   <v type="int" >        4        3       10       11       12 </v>
   <v type="int" >        2        3        6       10       11 </v>
   <v type="int" >        2        4        6       10       11 </v>
   <v type="int" >        2        3        4        5       11 </v>
   <v type="int" >        4        2        4        5       12 </v>
   <v type="int" >        4        2        3        5       12 </v>
   <v type="int" >        4        2        4        7       13 </v>
   <v type="int" >        4        2        4        5        7 </v>
   <v type="int" >        4        2        4        6        7 </v>
   <v type="int" >        2        4        6        7        8 </v>
   <v type="int" >        2        4        5        7        8 </v>
   <v type="int" >        2        2        6        6       10 </v>
   <v type="int" >        2        2        6        6        7 </v>
   <v type="int" >        2        6        6        7        8 </v>
   <v type="int" >        2        6        6       10       11 </v>
   <v type="int" >        2        5        6        6       11 </v>
   <v type="int" >        4        5        6        6        8 </v>
   <v type="int" >        4        4        5        6        6 </v>
   <v type="int" >        4        5        6        6        9 </v>
   <v type="int" >        4        3        4        6       10 </v>
   <v type="int" >        4        3        6       10       12 </v>
   <v type="int" >        4        2        3        5       10 </v>
   <v type="int" >        2        3        5       10       11 </v>
   <v type="int" >        2        2        5        5        7 </v>
   <v type="int" >        2        2        5        5       10 </v>
   <v type="int" >        2        5        5       10       11 </v>
   <v type="int" >        2        5        5        7        8 </v>
   <v type="int" >        4        5        5        6        8 </v>
   <v type="int" >        2        5        5        6       11 </v>
   <v type="int" >        2        6        7        8        9 </v>
   <v type="int" >        2        5        7        8        9 </v>
   <v type="int" >        8        5        6        8        9 </v>
   <v type="int" >        4        4        5        8        9 </v>
   <v type="int" >        4        4        6        8        9 </v>
   <v type="int" >        4        4       11       12       13 </v>
   <v type="int" >        2        4        5        8       11 </v>
   <v type="int" >        2        4        6        8       11 </v>
   <v type="int" >        2        5        5       10       12 </v>
   <v type="int" >        2        5        5       11       12 </v>
   <v type="int" >        2        5        5        8       11 </v>
   <v type="int" >        2        5        5        7       10 </v>
   <v type="int" >        2        5        5        6        7 </v>
   <v type="int" >        4        2        4        7       10 </v>
   <v type="int" >        2        4        5        7       10 </v>
   <v type="int" >        4        4        5        6        7 </v>
   <v type="int" >        4        2        2        4        7 </v>
   <v type="int" >        4        2        3        4        7 </v>
   <v type="int" >        2        3        4        6        7 </v>
   <v type="int" >        4        2        2       12       13 </v>
   <v type="int" >        4        2        2        4       12 </v>
   <v type="int" >        2        6        6       11       12 </v>
   <v type="int" >        2        6        6       10       12 </v>
   <v type="int" >        2        6        6        7       10 </v>
   <v type="int" >        2        6        6        8       11 </v>
   <v type="int" >        2        5        6        6        7 </v>
   <v type="int" >        2        5        8        9       11 </v>
   <v type="int" >        2        6        8        9       11 </v>
   <v type="int" >        4        2        3        5        6 </v>
   <v type="int" >        4        2        4        5        6 </v>
   <v type="int" >        4        3        4       10       12 </v>
   <v type="int" >        2        3        6        7       10 </v>
   <v type="int" >        4        2        3        7       10 </v>
   <v type="int" >        2        4        6        7       10 </v>
   <v type="int" >        2        3        4        5        7 </v>
   <v type="int" >        2        4        5        7        9 </v>
   <v type="int" >        2        4        6        7        9 </v>
   <v type="int" >        4        1        2        4        7 </v>
   <v type="int" >        2        2        2        5       10 </v>
   <v type="int" >        2        2        2        5        7 </v>
   <v type="int" >        4        1        2        2        7 </v>
   <v type="int" >        4        2        2        7       10 </v>
   <v type="int" >        4        2        2        2        7 </v>
   <v type="int" >        4        1        2        2        2 </v>
   <v type="int" >        2        3        5        7       10 </v>
   <v type="int" >        2        2        2        6        7 </v>
   <v type="int" >        2        2        2        6       10 </v>
   <v type="int" >        4        1        2        7       13 </v>
   <v type="int" >        4        1        2        2       13 </v>
   <v type="int" >        4        1        2        4       13 </v>
  </varray>
  <i name="volumeweight">      0.00260417 </i>
 </kpoints>
 <parameters>
  <separator name="general" >
   <i type="string" name="SYSTEM">unknown system</i>
   <i type="logical" name="LCOMPAT"> F  </i>
  </separator>
  <separator name="electronic" >
   <i type="string" name="PREC">accura</i>
   <i name="ENMAX">    680.00000000</i>
   <i name="ENAUG">   1360.00000000</i>
   <i name="EDIFF">      0.00001000</i>
   <i type="int" name="IALGO">    68</i>
   <i type="int" name="IWAVPR">    10</i>
   <i type="int" name="NBANDS">    48</i>
   <i type="int" name="NBANDSLOW">    -1</i>
   <i type="int" name="NBANDSHIGH">    -1</i>
   <i name="NELECT">     72.00000000</i>
   <i type="int" name="TURBO">     0</i>
   <i type="int" name="IRESTART">     0</i>
   <i type="int" name="NREBOOT">     0</i>
   <i type="int" name="NMIN">     0</i>
   <i name="EREF">      0.00000000</i>
   <separator name="electronic smearing" >
    <i type="int" name="ISMEAR">    -5</i>
    <i name="SIGMA">      0.20000000</i>
    <i name="KSPACING">      0.50000000</i>
    <i type="logical" name="KGAMMA"> T  </i>
    <i type="logical" name="KBLOWUP"> T  </i>
   </separator>
   <separator name="electronic projectors" >
    <i type="logical" name="LREAL"> F  </i>
    <v name="ROPT">      0.00000000      0.00000000      0.00000000      0.00000000</v>
    <i type="int" name="LMAXPAW">  -100</i>
    <i type="int" name="LMAXMIX">     4</i>
    <i type="logical" name="NLSPLINE"> F  </i>
   </separator>
   <separator name="electronic startup" >
    <i type="int" name="ISTART">     0</i>
    <i type="int" name="ICHARG">     2</i>
    <i type="int" name="INIWAV">     1</i>
   </separator>
   <separator name="electronic spin" >
    <i type="int" name="ISPIN">     2</i>
    <i type="logical" name="LNONCOLLINEAR"> F  </i>
    <v name="MAGMOM">      0.60000000      0.60000000      0.60000000      0.60000000      0.60000000      0.60000000      0.60000000      0.60000000</v>
    <i name="NUPDOWN">     -1.00000000</i>
    <i type="logical" name="LSORBIT"> F  </i>
    <v name="SAXIS">      0.00000000      0.00000000      1.00000000</v>
    <i type="logical" name="LSPIRAL"> F  </i>
    <v name="QSPIRAL">      0.00000000      0.00000000      0.00000000</v>
    <i type="logical" name="LZEROZ"> F  </i>
   </separator>
   <separator name="electronic exchange-correlation" >
    <i type="logical" name="LASPH"> T  </i>
    <i type="logical" name="LMETAGGA"> F  </i>
   </separator>
   <separator name="electronic convergence" >
    <i type="int" name="NELM">   200</i>
    <i type="int" name="NELMDL">    -5</i>
    <i type="int" name="NELMIN">     2</i>
    <i name="ENINI">    680.00000000</i>
    <separator name="electronic convergence detail" >
     <i type="logical" name="LDIAG"> T  </i>
     <i type="logical" name="LSUBROT"> F  </i>
     <i name="WEIMIN">      0.00000000</i>
     <i name="EBREAK">      0.00000005</i>
     <i name="DEPER">      0.30000000</i>
     <i type="int" name="NRMM">     4</i>
     <i name="TIME">      0.40000000</i>
    </separator>
   </separator>
   <separator name="electronic mixer" >
    <i name="AMIX">      0.40000000</i>
    <i name="BMIX">      1.00000000</i>
    <i name="AMIN">      0.10000000</i>
    <i name="AMIX_MAG">      1.60000000</i>
    <i name="BMIX_MAG">      1.00000000</i>
    <separator name="electronic mixer details" >
     <i type="int" name="IMIX">     4</i>
     <i type="logical" name="MIXFIRST"> F  </i>
     <i type="int" name="MAXMIX">   -45</i>
     <i name="WC">    100.00000000</i>
     <i type="int" name="INIMIX">     1</i>
     <i type="int" name="MIXPRE">     1</i>
     <i type="int" name="MREMOVE">     5</i>
    </separator>
   </separator>
   <separator name="electronic dipolcorrection" >
    <i type="logical" name="LDIPOL"> F  </i>
    <i type="logical" name="LMONO"> F  </i>
    <i type="int" name="IDIPOL">     0</i>
    <i name="EPSILON">      1.00000000</i>
    <v name="DIPOL">   -100.00000000   -100.00000000   -100.00000000</v>
    <i name="EFIELD">      0.00000000</i>
   </separator>
  </separator>
  <separator name="grids" >
   <i type="int" name="NGX">    56</i>
   <i type="int" name="NGY">    56</i>
   <i type="int" name="NGZ">    56</i>
   <i type="int" name="NGXF">   112</i>
   <i type="int" name="NGYF">   112</i>
   <i type="int" name="NGZF">   112</i>
   <i type="logical" name="ADDGRID"> F  </i>
  </separator>
  <separator name="ionic" >
   <i type="int" name="NSW">     0</i>
   <i type="int" name="IBRION">    -1</i>
   <i type="int" name="MDALGO">     0</i>
   <i type="int" name="ISIF">     2</i>
   <i name="PSTRESS">      0.00000000</i>
   <i name="EDIFFG">      0.00010000</i>
   <i type="int" name="NFREE">     0</i>
   <i name="POTIM">      0.50000000</i>
   <i name="SMASS">     -3.00000000</i>
   <i name="SCALEE">      1.00000000</i>
  </separator>
  <separator name="ionic md" >
   <i name="TEBEG">      0.00010000</i>
   <i name="TEEND">      0.00010000</i>
   <i type="int" name="NBLOCK">     1</i>
   <i type="int" name="KBLOCK">     1</i>
   <i type="int" name="NPACO">   256</i>
   <i name="APACO">     10.00000000</i>
  </separator>
  <separator name="symmetry" >
   <i type="int" name="ISYM">     2</i>
   <i name="SYMPREC">      0.00001000</i>
  </separator>
  <separator name="dos" >
   <i type="int" name="LORBIT">    11</i>
   <v name="RWIGS">     -1.00000000     -1.00000000     -1.00000000     -1.00000000</v>
   <i type="int" name="NEDOS">   301</i>
   <i name="EMIN">     10.00000000</i>
   <i name="EMAX">    -10.00000000</i>
   <i name="EFERMI">      0.00000000</i>
  </separator>
  <separator name="writing" >
   <i type="int" name="NWRITE">     2</i>
   <i type="logical" name="LWAVE"> T  </i>
   <i type="logical" name="LDOWNSAMPLE"> F  </i>
   <i type="logical" name="LCHARG"> T  </i>
   <i type="logical" name="LPARD"> F  </i>
   <i type="logical" name="LVTOT"> T  </i>
   <i type="logical" name="LVHAR"> F  </i>
   <i type="logical" name="LELF"> F  </i>
   <i type="logical" name="LOPTICS"> F  </i>
   <v name="STM">      0.00000000      0.00000000      0.00000000      0.00000000      0.00000000      0.00000000      0.00000000</v>
  </separator>
  <separator name="performance" >
   <i type="int" name="NPAR">    12</i>
   <i type="int" name="NSIM">     4</i>
   <i type="int" name="NBLK">    -1</i>
   <i type="logical" name="LPLANE"> T  </i>
   <i type="logical" name="LSCALAPACK"> T  </i>
   <i type="logical" name="LSCAAWARE"> F  </i>
   <i type="logical" name="LSCALU"> F  </i>
   <i type="logical" name="LASYNC"> F  </i>
   <i type="logical" name="LORBITALREAL"> F  </i>
  </separator>
  <separator name="miscellaneous" >
   <i type="int" name="IDIOT">     3</i>
   <i type="int" name="PHON_NSTRUCT">    -1</i>
   <i type="logical" name="LMUSIC"> F  </i>
   <v name="POMASS">     65.39000000     63.54600000    118.71000000     32.06600000</v>
   <v name="DARWINR">      0.00000000      0.00000000      0.00000000      0.00000000</v>
   <v name="DARWINV">      1.00000000      1.00000000      1.00000000      1.00000000</v>
   <i type="logical" name="LCORR"> T  </i>
  </separator>
  <i type="logical" name="GGA_COMPAT"> T  </i>
  <i type="logical" name="LBERRY"> F  </i>
  <i type="int" name="ICORELEVEL">     0</i>
  <i type="logical" name="LDAU"> F  </i>
  <i type="int" name="I_CONSTRAINED_M">     0</i>
  <separator name="electronic exchange-correlation" >
   <i type="string" name="GGA">PS</i>
   <i type="int" name="VOSKOWN">     0</i>
   <i type="logical" name="LHFCALC"> F  </i>
   <i type="string" name="PRECFOCK"></i>
   <i type="logical" name="LSYMGRAD"> F  </i>
   <i type="logical" name="LHFONE"> F  </i>
   <i type="logical" name="LRHFCALC"> F  </i>
   <i type="logical" name="LTHOMAS"> F  </i>
   <i type="logical" name="LMODELHF"> F  </i>
   <i type="logical" name="LFOCKACE"> F  </i>
   <i name="ENCUT4O">     -1.00000000</i>
   <i type="int" name="EXXOEP">     0</i>
   <i type="int" name="FOURORBIT">     0</i>
   <i name="AEXX">      0.00000000</i>
   <i name="HFALPHA">      0.00000000</i>
   <i name="MCALPHA">      0.00000000</i>
   <i name="ALDAX">      1.00000000</i>
   <i name="AGGAX">      1.00000000</i>
   <i name="ALDAC">      1.00000000</i>
   <i name="AGGAC">      1.00000000</i>
   <i type="int" name="NKREDX">     1</i>
   <i type="int" name="NKREDY">     1</i>
   <i type="int" name="NKREDZ">     1</i>
   <i type="logical" name="SHIFTRED"> F  </i>
   <i type="logical" name="ODDONLY"> F  </i>
   <i type="logical" name="EVENONLY"> F  </i>
   <i type="int" name="LMAXFOCK">     0</i>
   <i type="int" name="NMAXFOCKAE">     0</i>
   <i type="logical" name="LFOCKAEDFT"> F  </i>
   <i name="HFSCREEN">      0.00000000</i>
   <i name="HFSCREENC">      0.00000000</i>
   <i type="int" name="NBANDSGWLOW">     0</i>
  </separator>
  <separator name="vdW DFT" >
   <i type="logical" name="LUSE_VDW"> F  </i>
   <i type="int" name="IVDW_NL">     1</i>
   <i type="logical" name="LSPIN_VDW"> F  </i>
   <i name="Zab_VDW">     -0.84910000</i>
   <i name="PARAM1">      0.12340000</i>
   <i name="PARAM2">      1.00000000</i>
   <i name="PARAM3">      0.00000000</i>
  </separator>
  <separator name="model GW" >
   <i type="int" name="MODEL_GW">     0</i>
   <i name="MODEL_EPS0">     11.87947813</i>
   <i name="MODEL_ALPHA">      1.00000000</i>
  </separator>
  <separator name="linear response parameters" >
   <i type="logical" name="LEPSILON"> F  </i>
   <i type="logical" name="LRPA"> F  </i>
   <i type="logical" name="LNABLA"> F  </i>
   <i type="logical" name="LVEL"> F  </i>
   <i name="CSHIFT">      0.10000000</i>
   <i name="OMEGAMAX">     -1.00000000</i>
   <i name="DEG_THRESHOLD">      0.00200000</i>
   <i name="RTIME">     -0.10000000</i>
   <i name="WPLASMAI">      0.00000000</i>
   <v name="DFIELD">      0.00000000      0.00000000      0.00000000</v>
   <v name="WPLASMA">      0.00000000      0.00000000      0.00000000      0.00000000      0.00000000      0.00000000      0.00000000      0.00000000      0.00000000</v>
  </separator>
  <separator name="orbital magnetization" >
   <i type="logical" name="NUCIND"> F  </i>
   <v name="MAGPOS">      0.00000000      0.00000000      0.00000000</v>
   <i type="logical" name="LNICSALL"> T  </i>
   <i type="logical" name="ORBITALMAG"> F  </i>
   <i type="logical" name="LMAGBLOCH"> F  </i>
   <i type="logical" name="LCHIMAG"> F  </i>
   <i type="logical" name="LGAUGE"> T  </i>
   <i type="int" name="MAGATOM">     0</i>
   <v name="MAGDIPOL">      0.00000000      0.00000000      0.00000000</v>
   <v name="AVECCONST">      0.00000000      0.00000000      0.00000000</v>
  </separator>
  <separator name="response functions" >
   <i type="logical" name="LALL_IN_ONE"> F  </i>
   <i type="int" name="IALL_IN_ONE">    -1</i>
   <i type="int" name="NBANDS_WAVE">    -1</i>
   <i type="logical" name="LFINITE_TEMPERATURE"> F  </i>
   <i type="logical" name="LADDER"> F  </i>
   <i type="logical" name="LRPAFORCE"> F  </i>
   <i type="logical" name="LFXC"> F  </i>
   <i type="logical" name="LHARTREE"> T  </i>
   <i type="int" name="IBSE">     0</i>
   <v type="int" name="KPOINT">    -1     0     0     0</v>
   <i type="logical" name="LTCTC"> F  </i>
   <i type="logical" name="LTCTE"> F  </i>
   <i type="logical" name="LTETE"> F  </i>
   <i type="logical" name="LTRIPLET"> F  </i>
   <i type="logical" name="LFXCEPS"> F  </i>
   <i type="logical" name="LFXHEG"> F  </i>
   <i type="int" name="NATURALO">     2</i>
   <i type="logical" name="LHOLEGF"> F  </i>
   <i type="logical" name="L2ORDER"> F  </i>
   <i type="logical" name="LDMP1"> F  </i>
   <i type="logical" name="LMP2LT"> F  </i>
   <i type="logical" name="LSMP2LT"> F  </i>
   <i type="logical" name="LGWLF"> F  </i>
   <i name="ENCUTGW">     -1.60000002</i>
   <i name="ENCUTGWSOFT">     -1.60000002</i>
   <i name="ENCUTLF">     -1.00000000</i>
   <i type="logical" name="LESF_SPLINES"> F  </i>
   <i type="int" name="LMAXMP2">    -1</i>
   <i name="SCISSOR">      0.00000000</i>
   <i type="int" name="NOMEGA">     0</i>
   <i type="int" name="NOMEGAR">     0</i>
   <i type="int" name="NBANDSGW">    -1</i>
   <i type="int" name="NBANDSO">    -1</i>
   <i type="int" name="NBANDSV">    -1</i>
   <i type="int" name="NELMGW">     1</i>
   <i type="int" name="NELMHF">     1</i>
   <i type="int" name="DIM">     3</i>
   <i type="int" name="IESPILON">     4</i>
   <i type="int" name="ANTIRES">     0</i>
   <i name="OMEGAMAX">    -30.00000000</i>
   <i name="OMEGAMIN">    -30.00000000</i>
   <i name="OMEGATL">   -200.00000000</i>
   <i type="int" name="OMEGAGRID">     0</i>
   <i name="CSHIFT">     -0.10000000</i>
   <i type="logical" name="LSELFENERGY"> F  </i>
   <i type="logical" name="LSPECTRAL"> F  </i>
   <i type="logical" name="LSPECTRALGW"> F  </i>
   <i type="logical" name="LSINGLES"> F  </i>
   <i type="logical" name="LFERMIGW"> F  </i>
   <i type="logical" name="ODDONLYGW"> F  </i>
   <i type="logical" name="EVENONLYGW"> F  </i>
   <i type="int" name="NKREDLFX">     1</i>
   <i type="int" name="NKREDLFY">     1</i>
   <i type="int" name="NKREDLFZ">     1</i>
   <i type="int" name="MAXMEM">  2800</i>
   <i type="int" name="TELESCOPE">     0</i>
   <i type="int" name="NTAUPAR">    -1</i>
   <i type="int" name="NOMEGAPAR">    -1</i>
   <i name="DAMP_NEWTON">      0.80000001</i>
   <i name="LAMBDA">      1.00000000</i>
  </separator>
  <separator name="External order field" >
   <i name="OFIELD_KAPPA">      0.00000000</i>
   <v name="OFIELD_K">      0.00000000      0.00000000      0.00000000</v>
   <i name="OFIELD_Q6_NEAR">      0.00000000</i>
   <i name="OFIELD_Q6_FAR">      0.00000000</i>
   <i name="OFIELD_A">      0.00000000</i>
  </separator>
  <separator name="optional k-points parameters" >
   <i type="int" name="KPOINTS_OPT_MODE">     1</i>
   <i type="logical" name="LKPOINTS_OPT"> F  </i>
  </separator>
 </parameters>
 <atominfo>
  <atoms>       8 </atoms>
  <types>       4 </types>
  <array name="atoms" >
   <dimension dim="1">ion</dimension>
   <field type="string">element</field>
   <field type="int">atomtype</field>
   <set>
    <rc><c>Zn</c><c>   1</c></rc>
    <rc><c>Cu</c><c>   2</c></rc>
    <rc><c>Cu</c><c>   2</c></rc>
    <rc><c>Sn</c><c>   3</c></rc>
    <rc><c>S </c><c>   4</c></rc>
    <rc><c>S </c><c>   4</c></rc>
    <rc><c>S </c><c>   4</c></rc>
    <rc><c>S </c><c>   4</c></rc>
   </set>
  </array>
  <array name="atomtypes" >
   <dimension dim="1">type</dimension>
   <field type="int">atomspertype</field>
   <field type="string">element</field>
   <field>mass</field>
   <field>valence</field>
   <field type="string">pseudopotential</field>
   <set>
    <rc><c>   1</c><c>Zn</c><c>     65.39000000</c><c>     12.00000000</c><c>  PAW_PBE Zn 06Sep2000                  </c></rc>
    <rc><c>   2</c><c>Cu</c><c>     63.54600000</c><c>     11.00000000</c><c>  PAW_PBE Cu 22Jun2005                  </c></rc>
    <rc><c>   1</c><c>Sn</c><c>    118.71000000</c><c>     14.00000000</c><c>  PAW_PBE Sn_d 06Sep2000                </c></rc>
    <rc><c>   4</c><c>S </c><c>     32.06600000</c><c>      6.00000000</c><c>  PAW_PBE S 06Sep2000                   </c></rc>
   </set>
  </array>
 </atominfo>
 <structure name="initialpos" >
  <crystal>
   <varray name="basis" >
    <v>       4.93901185       0.00000000      -4.41848219 </v>
    <v>      -0.98753537       4.83927803      -4.41848219 </v>
    <v>       0.00000000       0.00000000       6.62697690 </v>
   </varray>
   <i name="volume">    158.39304179 </i>
   <varray name="rec_basis" >
    <v>       0.20246965       0.04131731       0.00000000 </v>
    <v>       0.00000000       0.20664239       0.00000000 </v>
    <v>       0.13499497       0.16532509       0.15089837 </v>
   </varray>
  </crystal>
  <varray name="positions" >
   <v>       0.75000000       0.25000000       0.50000000 </v>
   <v>       0.00000000       0.00000000       0.00000000 </v>
   <v>       0.25000000       0.75000000       0.50000000 </v>
   <v>       0.50000000       0.50000000       0.00000000 </v>
   <v>       0.36432714       0.37124032       0.47758056 </v>
   <v>       0.89365977       0.88674759       0.52241944 </v>
   <v>       0.11325241       0.63567286       0.00691218 </v>
   <v>       0.62875968       0.10634023       0.99308782 </v>
  </varray>
 </structure>
 <calculation>
  <scstep>
   <time name="dav">    0.60    0.61</time>
   <time name="total">    1.06    1.07</time>
   <energy>
    <i name="alphaZ">    202.50320330 </i>
    <i name="ewald">  -5034.42253749 </i>
    <i name="hartreedc">  -2428.65725175 </i>
    <i name="XCdc">    258.99528253 </i>
    <i name="pawpsdc">   6346.23056612 </i>
    <i name="pawaedc">  -6760.05243346 </i>
    <i name="eentropy">      0.00000000 </i>
    <i name="bandstr">    593.99914715 </i>
    <i name="atom">   7525.42945373 </i>
    <i name="e_fr_energy">    704.02543014 </i>
    <i name="e_wo_entrp">    704.02543014 </i>
    <i name="e_0_energy">    704.02543014 </i>
   </energy>
  </scstep>
  <scstep>
   <time name="dav">    0.52    0.52</time>
   <time name="total">    0.53    0.54</time>
   <energy>
    <i name="e_fr_energy">     65.14983487 </i>
    <i name="e_wo_entrp">     65.14983487 </i>
    <i name="e_0_energy">     65.14983487 </i>
   </energy>
  </scstep>
  <scstep>
   <time name="dav">    0.60    0.62</time>
   <time name="total">    0.62    0.63</time>
   <energy>
    <i name="e_fr_energy">    -31.75703939 </i>
    <i name="e_wo_entrp">    -31.75703939 </i>
    <i name="e_0_energy">    -31.75703939 </i>
   </energy>
  </scstep>
  <scstep>
   <time name="dav">    0.57    0.58</time>
   <time name="total">    0.58    0.60</time>
   <energy>
    <i name="e_fr_energy">    -37.57852355 </i>
    <i name="e_wo_entrp">    -37.57852355 </i>
    <i name="e_0_energy">    -37.57852355 </i>
   </energy>
  </scstep>
  <scstep>
   <time name="dav">    0.68    0.69</time>
   <time name="total">    0.75    0.77</time>
   <energy>
    <i name="e_fr_energy">    -37.94135108 </i>
    <i name="e_wo_entrp">    -37.94135108 </i>
    <i name="e_0_energy">    -37.94135108 </i>
   </energy>
  </scstep>
  <scstep>
   <time name="diag">    0.18    0.18</time>
   <time name="diis">    0.25    0.25</time>
   <time name="orth">    0.02    0.02</time>
   <time name="total">    0.91    0.93</time>
   <energy>
    <i name="e_fr_energy">    -38.66874849 </i>
    <i name="e_wo_entrp">    -38.66874849 </i>
    <i name="e_0_energy">    -38.66874849 </i>
   </energy>
  </scstep>
  <scstep>
   <time name="diag">    0.19    0.19</time>
   <time name="diis">    0.24    0.24</time>
   <time name="orth">    0.02    0.02</time>
   <time name="total">    0.92    0.93</time>
   <energy>
    <i name="e_fr_energy">    -35.77417271 </i>
    <i name="e_wo_entrp">    -35.77417271 </i>
    <i name="e_0_energy">    -35.77417271 </i>
   </energy>
  </scstep>
  <scstep>
   <time name="diag">    0.17    0.17</time>
   <time name="diis">    0.28    0.28</time>
   <time name="orth">    0.02    0.02</time>
   <time name="total">    0.94    0.95</time>
   <energy>
    <i name="e_fr_energy">    -35.80512598 </i>
    <i name="e_wo_entrp">    -35.80512598 </i>
    <i name="e_0_energy">    -35.80512598 </i>
   </energy>
  </scstep>
  <scstep>
   <time name="diag">    0.17    0.17</time>
   <time name="diis">    0.31    0.31</time>
   <time name="orth">    0.02    0.02</time>
   <time name="total">    0.96    0.98</time>
   <energy>
    <i name="e_fr_energy">    -35.79372337 </i>
    <i name="e_wo_entrp">    -35.79372337 </i>
    <i name="e_0_energy">    -35.79372337 </i>
   </energy>
  </scstep>
  <scstep>
   <time name="diag">    0.17    0.17</time>
   <time name="diis">    0.33    0.33</time>
   <time name="orth">    0.02    0.02</time>
   <time name="total">    0.98    1.00</time>
   <energy>
    <i name="e_fr_energy">    -35.79883117 </i>
    <i name="e_wo_entrp">    -35.79883117 </i>
    <i name="e_0_energy">    -35.79883117 </i>
   </energy>
  </scstep>
  <scstep>
   <time name="diag">    0.17    0.17</time>
   <time name="diis">    0.37    0.37</time>
   <time name="orth">    0.02    0.02</time>
   <time name="total">    1.02    1.04</time>
   <energy>
    <i name="e_fr_energy">    -35.79970489 </i>
    <i name="e_wo_entrp">    -35.79970489 </i>
    <i name="e_0_energy">    -35.79970489 </i>
   </energy>
  </scstep>
  <scstep>
   <time name="diag">    0.19    0.20</time>
   <time name="diis">    0.35    0.35</time>
   <time name="orth">    0.02    0.02</time>
   <time name="total">    1.05    1.07</time>
   <energy>
    <i name="e_fr_energy">    -35.79987732 </i>
    <i name="e_wo_entrp">    -35.79987732 </i>
    <i name="e_0_energy">    -35.79987732 </i>
   </energy>
  </scstep>
  <scstep>
   <time name="diag">    0.18    0.18</time>
   <time name="diis">    0.33    0.33</time>
   <time name="orth">    0.02    0.02</time>
   <time name="total">    1.00    1.02</time>
   <energy>
    <i name="e_fr_energy">    -35.79985288 </i>
    <i name="e_wo_entrp">    -35.79985288 </i>
    <i name="e_0_energy">    -35.79985288 </i>
   </energy>
  </scstep>
  <scstep>
   <time name="diag">    0.19    0.19</time>
   <time name="diis">    0.38    0.38</time>
   <time name="orth">    0.02    0.02</time>
   <time name="total">    1.06    1.08</time>
   <energy>
    <i name="e_fr_energy">    -35.79994935 </i>
    <i name="e_wo_entrp">    -35.79994935 </i>
    <i name="e_0_energy">    -35.79994935 </i>
   </energy>
  </scstep>
  <scstep>
   <time name="diag">    0.20    0.20</time>
   <time name="diis">    0.32    0.32</time>
   <time name="orth">    0.02    0.02</time>
   <time name="total">    1.01    1.03</time>
   <energy>
    <i name="e_fr_energy">    -35.79995835 </i>
    <i name="e_wo_entrp">    -35.79995835 </i>
    <i name="e_0_energy">    -35.79995835 </i>
   </energy>
  </scstep>
  <scstep>
   <time name="diag">    0.19    0.19</time>
   <time name="diis">    0.25    0.25</time>
   <time name="orth">    0.02    0.02</time>
   <time name="total">    0.87    0.89</time>
   <energy>
    <i name="alphaZ">    202.50320330 </i>
    <i name="ewald">  -5034.42253749 </i>
    <i name="hartreedc">  -2381.52282282 </i>
    <i name="XCdc">    257.71596912 </i>
    <i name="pawpsdc">   8501.95490340 </i>
    <i name="pawaedc">  -8920.74636354 </i>
    <i name="eentropy">      0.00000000 </i>
    <i name="bandstr">   -186.71176861 </i>
    <i name="atom">   7525.42945373 </i>
    <i name="e_fr_energy">    -35.79996292 </i>
    <i name="e_wo_entrp">    -35.79996292 </i>
    <i name="e_0_energy">    -35.79996292 </i>
   </energy>
  </scstep>
  <structure>
   <crystal>
    <varray name="basis" >
     <v>       4.93901185       0.00000000      -4.41848219 </v>
     <v>      -0.98753537       4.83927803      -4.41848219 </v>
     <v>       0.00000000       0.00000000       6.62697690 </v>
    </varray>
    <i name="volume">    158.39304179 </i>
    <varray name="rec_basis" >
     <v>       0.20246965       0.04131731       0.00000000 </v>
     <v>       0.00000000       0.20664239       0.00000000 </v>
     <v>       0.13499497       0.16532509       0.15089837 </v>
    </varray>
   </crystal>
   <varray name="positions" >
    <v>       0.75000000       0.25000000       0.50000000 </v>
    <v>       0.00000000       0.00000000       0.00000000 </v>
    <v>       0.25000000       0.75000000       0.50000000 </v>
    <v>       0.50000000       0.50000000       0.00000000 </v>
    <v>       0.36432714       0.37124032       0.47758056 </v>
    <v>       0.89365977       0.88674759       0.52241944 </v>
    <v>       0.11325241       0.63567286       0.00691218 </v>
    <v>       0.62875968       0.10634023       0.99308782 </v>
   </varray>
  </structure>
  <varray name="forces" >
   <v>      -0.00000000       0.00000000       0.00000000 </v>
   <v>      -0.00000000       0.00000000       0.00000000 </v>
   <v>      -0.00000000       0.00000000       0.00000000 </v>
   <v>      -0.00000000       0.00000000       0.00000000 </v>
   <v>      -0.09031457      -0.01954256      -0.15299822 </v>
   <v>       0.15108173       0.09396264       0.01710035 </v>
   <v>      -0.11475455       0.09239830       0.10119801 </v>
   <v>       0.05398739      -0.16681837       0.03469986 </v>
  </varray>
  <varray name="stress" >
   <v>     -11.43218260      -0.05811871       0.10613006 </v>
   <v>      -0.05811870     -11.45590278       0.12997494 </v>
   <v>       0.10613007       0.12997493     -11.62207233 </v>
  </varray>
  <energy>
   <i name="e_fr_energy">    -35.79996292 </i>
   <i name="e_wo_entrp">    -35.79996292 </i>
   <i name="e_0_energy">    -35.79996292 </i>
  </energy>
  <time name="totalsc">   18.18   18.47</time>
  <eigenvalues>
   <array>
    <dimension dim="1">band</dimension>
    <dimension dim="2">kpoint</dimension>
    <dimension dim="3">spin</dimension>
    <field>eigene</field>
    <field>occ</field>
    <set>
     <set comment="spin 1">
      <set comment="kpoint 1">
       <r>  -17.2910    1.0000 </r>
       <r>  -17.2870    1.0000 </r>
       <r>  -17.2870    1.0000 </r>
       <r>  -17.2064    1.0000 </r>
       <r>  -17.2014    1.0000 </r>
       <r>   -9.6913    1.0000 </r>
       <r>   -8.1372    1.0000 </r>
       <r>   -8.1199    1.0000 </r>
       <r>   -8.1199    1.0000 </r>
       <r>   -3.2324    1.0000 </r>
       <r>   -2.2874    1.0000 </r>
       <r>   -2.2180    1.0000 </r>
       <r>   -2.2083    1.0000 </r>
       <r>   -2.2083    1.0000 </r>
       <r>   -2.1078    1.0000 </r>
       <r>   -0.8969    1.0000 </r>
       <r>   -0.2807    1.0000 </r>
       <r>   -0.1247    1.0000 </r>
       <r>    0.3460    1.0000 </r>
       <r>    0.3791    1.0000 </r>
       <r>    0.3791    1.0000 </r>
       <r>    1.0353    1.0000 </r>
       <r>    1.0353    1.0000 </r>
       <r>    1.5175    1.0000 </r>
       <r>    1.5175    1.0000 </r>
       <r>    1.5394    1.0000 </r>
       <r>    2.6410    1.0000 </r>
       <r>    2.7094    1.0000 </r>
       <r>    2.9153    1.0000 </r>
       <r>    3.1752    1.0000 </r>
       <r>    3.1868    1.0000 </r>
       <r>    3.1869    1.0000 </r>
       <r>    3.3602    1.0000 </r>
       <r>    4.8301    1.0000 </r>
       <r>    4.8301    1.0000 </r>
       <r>    4.8940    1.0000 </r>
       <r>    5.0454    0.0000 </r>
       <r>    6.7468    0.0000 </r>
       <r>    7.6012    0.0000 </r>
       <r>    8.5483    0.0000 </r>
       <r>    8.5483    0.0000 </r>
       <r>    9.6868    0.0000 </r>
       <r>    9.9266    0.0000 </r>
       <r>   10.0949    0.0000 </r>
       <r>   10.0961    0.0000 </r>
       <r>   10.5937    0.0000 </r>
       <r>   11.6337    0.0000 </r>
       <r>   11.7319    0.0000 </r>
      </set>
      <set comment="kpoint 2">
       <r>  -17.2913    1.0000 </r>
       <r>  -17.2873    1.0000 </r>
       <r>  -17.2870    1.0000 </r>
       <r>  -17.2061    1.0000 </r>
       <r>  -17.2012    1.0000 </r>
       <r>   -9.4811    1.0000 </r>
       <r>   -8.3146    1.0000 </r>
       <r>   -8.2079    1.0000 </r>
       <r>   -8.1719    1.0000 </r>
       <r>   -3.1390    1.0000 </r>
       <r>   -2.2671    1.0000 </r>
       <r>   -2.2441    1.0000 </r>
       <r>   -2.2163    1.0000 </r>
       <r>   -2.1967    1.0000 </r>
       <r>   -2.0778    1.0000 </r>
       <r>   -0.9447    1.0000 </r>
       <r>   -0.4519    1.0000 </r>
       <r>   -0.1502    1.0000 </r>
       <r>    0.2428    1.0000 </r>
       <r>    0.5329    1.0000 </r>
       <r>    0.6796    1.0000 </r>
       <r>    0.8921    1.0000 </r>
       <r>    1.0415    1.0000 </r>
       <r>    1.4072    1.0000 </r>
       <r>    1.4843    1.0000 </r>
       <r>    1.7106    1.0000 </r>
       <r>    2.7805    1.0000 </r>
       <r>    2.8555    1.0000 </r>
       <r>    2.9446    1.0000 </r>
       <r>    3.0416    1.0000 </r>
       <r>    3.1323    1.0000 </r>
       <r>    3.3643    1.0000 </r>
       <r>    3.4940    1.0000 </r>
       <r>    3.9603    1.0000 </r>
       <r>    4.3595    1.0000 </r>
       <r>    4.6644    1.0000 </r>
       <r>    6.1000    0.0000 </r>
       <r>    7.6228    0.0000 </r>
       <r>    7.8144    0.0000 </r>
       <r>    8.1812    0.0000 </r>
       <r>    8.4700    0.0000 </r>
       <r>    9.5350    0.0000 </r>
       <r>    9.9872    0.0000 </r>
       <r>   10.0925    0.0000 </r>
       <r>   10.3312    0.0000 </r>
       <r>   10.6789    0.0000 </r>
       <r>   11.2150    0.0000 </r>
       <r>   12.0538    0.0000 </r>
      </set>
      <set comment="kpoint 3">
       <r>  -17.2916    1.0000 </r>
       <r>  -17.2876    1.0000 </r>
       <r>  -17.2870    1.0000 </r>
       <r>  -17.2058    1.0000 </r>
       <r>  -17.2011    1.0000 </r>
       <r>   -9.0812    1.0000 </r>
       <r>   -8.7207    1.0000 </r>
       <r>   -8.2748    1.0000 </r>
       <r>   -8.2121    1.0000 </r>
       <r>   -3.0441    1.0000 </r>
       <r>   -2.2980    1.0000 </r>
       <r>   -2.2600    1.0000 </r>
       <r>   -2.1900    1.0000 </r>
       <r>   -2.1696    1.0000 </r>
       <r>   -2.0444    1.0000 </r>
       <r>   -0.8600    1.0000 </r>
       <r>   -0.4929    1.0000 </r>
       <r>   -0.1437    1.0000 </r>
       <r>    0.1440    1.0000 </r>
       <r>    0.4599    1.0000 </r>
       <r>    0.5645    1.0000 </r>
       <r>    0.9723    1.0000 </r>
       <r>    1.1366    1.0000 </r>
       <r>    1.3110    1.0000 </r>
       <r>    1.5081    1.0000 </r>
       <r>    1.7478    1.0000 </r>
       <r>    2.8596    1.0000 </r>
       <r>    2.8844    1.0000 </r>
       <r>    2.9841    1.0000 </r>
       <r>    3.1035    1.0000 </r>
       <r>    3.2090    1.0000 </r>
       <r>    3.5454    1.0000 </r>
       <r>    3.6660    1.0000 </r>
       <r>    3.7126    1.0000 </r>
       <r>    3.8061    1.0000 </r>
       <r>    4.3558    1.0000 </r>
       <r>    6.5132    0.0000 </r>
       <r>    7.9253    0.0000 </r>
       <r>    8.1339    0.0000 </r>
       <r>    8.9617    0.0000 </r>
       <r>    9.0899    0.0000 </r>
       <r>    9.4283    0.0000 </r>
       <r>    9.8881    0.0000 </r>
       <r>   10.2249    0.0000 </r>
       <r>   10.4273    0.0000 </r>
       <r>   11.0047    0.0000 </r>
       <r>   11.2696    0.0000 </r>
       <r>   11.4434    0.0000 </r>
      </set>
      <set comment="kpoint 4">
       <r>  -17.2916    1.0000 </r>
       <r>  -17.2873    1.0000 </r>
       <r>  -17.2872    1.0000 </r>
       <r>  -17.2058    1.0000 </r>
       <r>  -17.2011    1.0000 </r>
       <r>   -9.2312    1.0000 </r>
       <r>   -8.4292    1.0000 </r>
       <r>   -8.2982    1.0000 </r>
       <r>   -8.2899    1.0000 </r>
       <r>   -3.1684    1.0000 </r>
       <r>   -2.3046    1.0000 </r>
       <r>   -2.2748    1.0000 </r>
       <r>   -2.1725    1.0000 </r>
       <r>   -2.1585    1.0000 </r>
       <r>   -2.0424    1.0000 </r>
       <r>   -1.1002    1.0000 </r>
       <r>   -0.7280    1.0000 </r>
       <r>   -0.0663    1.0000 </r>
       <r>    0.3735    1.0000 </r>
       <r>    0.5749    1.0000 </r>
       <r>    0.6706    1.0000 </r>
       <r>    1.0344    1.0000 </r>
       <r>    1.1334    1.0000 </r>
       <r>    1.4015    1.0000 </r>
       <r>    1.6578    1.0000 </r>
       <r>    1.6819    1.0000 </r>
       <r>    2.7867    1.0000 </r>
       <r>    2.8976    1.0000 </r>
       <r>    3.0159    1.0000 </r>
       <r>    3.0701    1.0000 </r>
       <r>    3.2551    1.0000 </r>
       <r>    3.4390    1.0000 </r>
       <r>    3.5526    1.0000 </r>
       <r>    3.8157    1.0000 </r>
       <r>    4.4639    1.0000 </r>
       <r>    4.4905    1.0000 </r>
       <r>    5.9206    0.0000 </r>
       <r>    7.4953    0.0000 </r>
       <r>    7.7953    0.0000 </r>
       <r>    7.9696    0.0000 </r>
       <r>    8.7238    0.0000 </r>
       <r>    9.7423    0.0000 </r>
       <r>   10.2585    0.0000 </r>
       <r>   10.4108    0.0000 </r>
       <r>   10.5035    0.0000 </r>
       <r>   10.7754    0.0000 </r>
       <r>   11.7602    0.0000 </r>
       <r>   11.9678    0.0000 </r>
      </set>
      <set comment="kpoint 5">
       <r>  -17.2919    1.0000 </r>
       <r>  -17.2876    1.0000 </r>
       <r>  -17.2872    1.0000 </r>
       <r>  -17.2055    1.0000 </r>
       <r>  -17.2010    1.0000 </r>
       <r>   -9.0060    1.0000 </r>
       <r>   -8.6057    1.0000 </r>
       <r>   -8.3969    1.0000 </r>
       <r>   -8.2489    1.0000 </r>
       <r>   -3.1608    1.0000 </r>
       <r>   -2.3311    1.0000 </r>
       <r>   -2.2568    1.0000 </r>
       <r>   -2.1711    1.0000 </r>
       <r>   -2.1432    1.0000 </r>
       <r>   -2.0798    1.0000 </r>
       <r>   -1.2427    1.0000 </r>
       <r>   -0.8074    1.0000 </r>
       <r>   -0.3874    1.0000 </r>
       <r>    0.2538    1.0000 </r>
       <r>    0.6757    1.0000 </r>
       <r>    1.0124    1.0000 </r>
       <r>    1.0250    1.0000 </r>
       <r>    1.1539    1.0000 </r>
       <r>    1.4693    1.0000 </r>
       <r>    1.6477    1.0000 </r>
       <r>    1.7387    1.0000 </r>
       <r>    2.8196    1.0000 </r>
       <r>    2.8843    1.0000 </r>
       <r>    2.9406    1.0000 </r>
       <r>    3.1274    1.0000 </r>
       <r>    3.4212    1.0000 </r>
       <r>    3.5419    1.0000 </r>
       <r>    3.6887    1.0000 </r>
       <r>    3.9598    1.0000 </r>
       <r>    4.1789    1.0000 </r>
       <r>    4.2810    1.0000 </r>
       <r>    6.0956    0.0000 </r>
       <r>    7.7306    0.0000 </r>
       <r>    8.1615    0.0000 </r>
       <r>    8.5531    0.0000 </r>
       <r>    9.0223    0.0000 </r>
       <r>    9.5221    0.0000 </r>
       <r>    9.9197    0.0000 </r>
       <r>   10.2522    0.0000 </r>
       <r>   10.6566    0.0000 </r>
       <r>   11.0653    0.0000 </r>
       <r>   11.3483    0.0000 </r>
       <r>   11.5128    0.0000 </r>
      </set>
      <set comment="kpoint 6">
       <r>  -17.2919    1.0000 </r>
       <r>  -17.2876    1.0000 </r>
       <r>  -17.2872    1.0000 </r>
       <r>  -17.2055    1.0000 </r>
       <r>  -17.2010    1.0000 </r>
       <r>   -9.0061    1.0000 </r>
       <r>   -8.6056    1.0000 </r>
       <r>   -8.3973    1.0000 </r>
       <r>   -8.2484    1.0000 </r>
       <r>   -3.1700    1.0000 </r>
       <r>   -2.2901    1.0000 </r>
       <r>   -2.2614    1.0000 </r>
       <r>   -2.1815    1.0000 </r>
       <r>   -2.1418    1.0000 </r>
       <r>   -2.0976    1.0000 </r>
       <r>   -1.2221    1.0000 </r>
       <r>   -0.8325    1.0000 </r>
       <r>   -0.3458    1.0000 </r>
       <r>    0.1367    1.0000 </r>
       <r>    0.8289    1.0000 </r>
       <r>    0.9451    1.0000 </r>
       <r>    1.0008    1.0000 </r>
       <r>    1.1454    1.0000 </r>
       <r>    1.4933    1.0000 </r>
       <r>    1.5978    1.0000 </r>
       <r>    1.8035    1.0000 </r>
       <r>    2.8400    1.0000 </r>
       <r>    2.8768    1.0000 </r>
       <r>    2.9713    1.0000 </r>
       <r>    3.0360    1.0000 </r>
       <r>    3.4068    1.0000 </r>
       <r>    3.6053    1.0000 </r>
       <r>    3.7816    1.0000 </r>
       <r>    3.8751    1.0000 </r>
       <r>    4.1576    1.0000 </r>
       <r>    4.2803    1.0000 </r>
       <r>    6.0857    0.0000 </r>
       <r>    7.7238    0.0000 </r>
       <r>    8.1556    0.0000 </r>
       <r>    8.5932    0.0000 </r>
       <r>    9.0608    0.0000 </r>
       <r>    9.4461    0.0000 </r>
       <r>    9.8930    0.0000 </r>
       <r>   10.2693    0.0000 </r>
       <r>   10.7014    0.0000 </r>
       <r>   11.0713    0.0000 </r>
       <r>   11.3255    0.0000 </r>
       <r>   11.5512    0.0000 </r>
      </set>
      <set comment="kpoint 7">
       <r>  -17.2916    1.0000 </r>
       <r>  -17.2874    1.0000 </r>
       <r>  -17.2872    1.0000 </r>
       <r>  -17.2058    1.0000 </r>
       <r>  -17.2011    1.0000 </r>
       <r>   -9.3672    1.0000 </r>
       <r>   -8.3781    1.0000 </r>
       <r>   -8.2787    1.0000 </r>
       <r>   -8.1537    1.0000 </r>
       <r>   -3.1469    1.0000 </r>
       <r>   -2.2807    1.0000 </r>
       <r>   -2.2348    1.0000 </r>
       <r>   -2.2258    1.0000 </r>
       <r>   -2.1658    1.0000 </r>
       <r>   -2.1065    1.0000 </r>
       <r>   -1.2233    1.0000 </r>
       <r>   -0.6643    1.0000 </r>
       <r>   -0.1658    1.0000 </r>
       <r>    0.0719    1.0000 </r>
       <r>    0.5794    1.0000 </r>
       <r>    0.9437    1.0000 </r>
       <r>    1.0262    1.0000 </r>
       <r>    1.1311    1.0000 </r>
       <r>    1.3022    1.0000 </r>
       <r>    1.6492    1.0000 </r>
       <r>    1.7732    1.0000 </r>
       <r>    2.8005    1.0000 </r>
       <r>    2.9036    1.0000 </r>
       <r>    2.9347    1.0000 </r>
       <r>    3.0637    1.0000 </r>
       <r>    3.2096    1.0000 </r>
       <r>    3.4960    1.0000 </r>
       <r>    3.6036    1.0000 </r>
       <r>    3.7706    1.0000 </r>
       <r>    4.2853    1.0000 </r>
       <r>    4.6867    1.0000 </r>
       <r>    6.0877    0.0000 </r>
       <r>    7.6993    0.0000 </r>
       <r>    8.0626    0.0000 </r>
       <r>    8.3921    0.0000 </r>
       <r>    8.7663    0.0000 </r>
       <r>    9.4767    0.0000 </r>
       <r>    9.9157    0.0000 </r>
       <r>   10.2307    0.0000 </r>
       <r>   10.4223    0.0000 </r>
       <r>   10.6601    0.0000 </r>
       <r>   11.6550    0.0000 </r>
       <r>   12.0671    0.0000 </r>
      </set>
      <set comment="kpoint 8">
       <r>  -17.2923    1.0000 </r>
       <r>  -17.2878    1.0000 </r>
       <r>  -17.2873    1.0000 </r>
       <r>  -17.2051    1.0000 </r>
       <r>  -17.2008    1.0000 </r>
       <r>   -8.8890    1.0000 </r>
       <r>   -8.4713    1.0000 </r>
       <r>   -8.4434    1.0000 </r>
       <r>   -8.4219    1.0000 </r>
       <r>   -3.2870    1.0000 </r>
       <r>   -2.3075    1.0000 </r>
       <r>   -2.2250    1.0000 </r>
       <r>   -2.1835    1.0000 </r>
       <r>   -2.1351    1.0000 </r>
       <r>   -2.1291    1.0000 </r>
       <r>   -1.5749    1.0000 </r>
       <r>   -0.9117    1.0000 </r>
       <r>   -0.5350    1.0000 </r>
       <r>    0.4240    1.0000 </r>
       <r>    0.4830    1.0000 </r>
       <r>    1.1191    1.0000 </r>
       <r>    1.1685    1.0000 </r>
       <r>    1.4089    1.0000 </r>
       <r>    1.5444    1.0000 </r>
       <r>    1.6293    1.0000 </r>
       <r>    1.8243    1.0000 </r>
       <r>    2.8558    1.0000 </r>
       <r>    2.8976    1.0000 </r>
       <r>    2.9954    1.0000 </r>
       <r>    3.1249    1.0000 </r>
       <r>    3.5035    1.0000 </r>
       <r>    3.5855    1.0000 </r>
       <r>    4.0458    1.0000 </r>
       <r>    4.1573    1.0000 </r>
       <r>    4.3599    1.0000 </r>
       <r>    4.4612    1.0000 </r>
       <r>    5.5027    0.0000 </r>
       <r>    7.1213    0.0000 </r>
       <r>    7.9553    0.0000 </r>
       <r>    8.9202    0.0000 </r>
       <r>    9.1593    0.0000 </r>
       <r>    9.7545    0.0000 </r>
       <r>    9.9332    0.0000 </r>
       <r>   10.5714    0.0000 </r>
       <r>   10.6627    0.0000 </r>
       <r>   10.8892    0.0000 </r>
       <r>   11.3339    0.0000 </r>
       <r>   11.4725    0.0000 </r>
      </set>
      <set comment="kpoint 9">
       <r>  -17.2923    1.0000 </r>
       <r>  -17.2876    1.0000 </r>
       <r>  -17.2876    1.0000 </r>
       <r>  -17.2051    1.0000 </r>
       <r>  -17.2008    1.0000 </r>
       <r>   -8.8884    1.0000 </r>
       <r>   -8.4597    1.0000 </r>
       <r>   -8.4445    1.0000 </r>
       <r>   -8.4339    1.0000 </r>
       <r>   -3.2807    1.0000 </r>
       <r>   -2.3062    1.0000 </r>
       <r>   -2.2696    1.0000 </r>
       <r>   -2.1479    1.0000 </r>
       <r>   -2.1312    1.0000 </r>
       <r>   -2.0970    1.0000 </r>
       <r>   -1.3819    1.0000 </r>
       <r>   -1.0725    1.0000 </r>
       <r>   -0.9217    1.0000 </r>
       <r>    0.7952    1.0000 </r>
       <r>    0.8847    1.0000 </r>
       <r>    0.9392    1.0000 </r>
       <r>    1.1588    1.0000 </r>
       <r>    1.2014    1.0000 </r>
       <r>    1.5639    1.0000 </r>
       <r>    1.6064    1.0000 </r>
       <r>    1.8909    1.0000 </r>
       <r>    2.8227    1.0000 </r>
       <r>    2.8421    1.0000 </r>
       <r>    3.0293    1.0000 </r>
       <r>    3.1370    1.0000 </r>
       <r>    3.5192    1.0000 </r>
       <r>    3.5289    1.0000 </r>
       <r>    4.0790    1.0000 </r>
       <r>    4.0835    1.0000 </r>
       <r>    4.2683    1.0000 </r>
       <r>    4.2974    1.0000 </r>
       <r>    5.7607    0.0000 </r>
       <r>    7.6523    0.0000 </r>
       <r>    7.8708    0.0000 </r>
       <r>    8.3309    0.0000 </r>
       <r>    9.3777    0.0000 </r>
       <r>    9.3991    0.0000 </r>
       <r>    9.6438    0.0000 </r>
       <r>   10.3260    0.0000 </r>
       <r>   10.9673    0.0000 </r>
       <r>   11.0548    0.0000 </r>
       <r>   11.1289    0.0000 </r>
       <r>   11.4220    0.0000 </r>
      </set>
      <set comment="kpoint 10">
       <r>  -17.2916    1.0000 </r>
       <r>  -17.2876    1.0000 </r>
       <r>  -17.2870    1.0000 </r>
       <r>  -17.2058    1.0000 </r>
       <r>  -17.2011    1.0000 </r>
       <r>   -9.1056    1.0000 </r>
       <r>   -8.5845    1.0000 </r>
       <r>   -8.4785    1.0000 </r>
       <r>   -8.1209    1.0000 </r>
       <r>   -3.0430    1.0000 </r>
       <r>   -2.3450    1.0000 </r>
       <r>   -2.2387    1.0000 </r>
       <r>   -2.1877    1.0000 </r>
       <r>   -2.1527    1.0000 </r>
       <r>   -2.0225    1.0000 </r>
       <r>   -0.9217    1.0000 </r>
       <r>   -0.4011    1.0000 </r>
       <r>   -0.1179    1.0000 </r>
       <r>    0.2081    1.0000 </r>
       <r>    0.3596    1.0000 </r>
       <r>    0.6301    1.0000 </r>
       <r>    0.7353    1.0000 </r>
       <r>    1.0610    1.0000 </r>
       <r>    1.4652    1.0000 </r>
       <r>    1.5122    1.0000 </r>
       <r>    1.7905    1.0000 </r>
       <r>    2.8472    1.0000 </r>
       <r>    2.8952    1.0000 </r>
       <r>    2.9635    1.0000 </r>
       <r>    3.1323    1.0000 </r>
       <r>    3.2531    1.0000 </r>
       <r>    3.3243    1.0000 </r>
       <r>    3.5218    1.0000 </r>
       <r>    3.8832    1.0000 </r>
       <r>    4.1113    1.0000 </r>
       <r>    4.3195    1.0000 </r>
       <r>    6.4822    0.0000 </r>
       <r>    7.5297    0.0000 </r>
       <r>    8.0503    0.0000 </r>
       <r>    8.8417    0.0000 </r>
       <r>    9.1184    0.0000 </r>
       <r>    9.7480    0.0000 </r>
       <r>   10.1370    0.0000 </r>
       <r>   10.5052    0.0000 </r>
       <r>   10.8190    0.0000 </r>
       <r>   11.1537    0.0000 </r>
       <r>   11.4153    0.0000 </r>
       <r>   11.4347    0.0000 </r>
      </set>
      <set comment="kpoint 11">
       <r>  -17.2917    1.0000 </r>
       <r>  -17.2873    1.0000 </r>
       <r>  -17.2870    1.0000 </r>
       <r>  -17.2058    1.0000 </r>
       <r>  -17.2011    1.0000 </r>
       <r>   -8.9926    1.0000 </r>
       <r>   -8.6515    1.0000 </r>
       <r>   -8.3661    1.0000 </r>
       <r>   -8.3084    1.0000 </r>
       <r>   -3.1829    1.0000 </r>
       <r>   -2.3268    1.0000 </r>
       <r>   -2.3186    1.0000 </r>
       <r>   -2.1761    1.0000 </r>
       <r>   -2.1274    1.0000 </r>
       <r>   -1.9315    1.0000 </r>
       <r>   -1.0522    1.0000 </r>
       <r>   -0.4803    1.0000 </r>
       <r>   -0.3426    1.0000 </r>
       <r>    0.5239    1.0000 </r>
       <r>    0.7327    1.0000 </r>
       <r>    0.7493    1.0000 </r>
       <r>    1.0015    1.0000 </r>
       <r>    1.1410    1.0000 </r>
       <r>    1.3677    1.0000 </r>
       <r>    1.5763    1.0000 </r>
       <r>    1.6634    1.0000 </r>
       <r>    2.8278    1.0000 </r>
       <r>    2.8884    1.0000 </r>
       <r>    2.9316    1.0000 </r>
       <r>    2.9937    1.0000 </r>
       <r>    3.3445    1.0000 </r>
       <r>    3.4322    1.0000 </r>
       <r>    3.9439    1.0000 </r>
       <r>    3.9582    1.0000 </r>
       <r>    4.0315    1.0000 </r>
       <r>    4.0598    1.0000 </r>
       <r>    6.1297    0.0000 </r>
       <r>    7.5331    0.0000 </r>
       <r>    7.8186    0.0000 </r>
       <r>    8.1555    0.0000 </r>
       <r>    8.3916    0.0000 </r>
       <r>    9.3130    0.0000 </r>
       <r>    9.6148    0.0000 </r>
       <r>   10.3450    0.0000 </r>
       <r>   10.7874    0.0000 </r>
       <r>   10.9181    0.0000 </r>
       <r>   11.2087    0.0000 </r>
       <r>   11.7254    0.0000 </r>
      </set>
      <set comment="kpoint 12">
       <r>  -17.2914    1.0000 </r>
       <r>  -17.2872    1.0000 </r>
       <r>  -17.2869    1.0000 </r>
       <r>  -17.2061    1.0000 </r>
       <r>  -17.2012    1.0000 </r>
       <r>   -9.1972    1.0000 </r>
       <r>   -8.5983    1.0000 </r>
       <r>   -8.3711    1.0000 </r>
       <r>   -8.1349    1.0000 </r>
       <r>   -3.1905    1.0000 </r>
       <r>   -2.3324    1.0000 </r>
       <r>   -2.2456    1.0000 </r>
       <r>   -2.2367    1.0000 </r>
       <r>   -2.1358    1.0000 </r>
       <r>   -1.9298    1.0000 </r>
       <r>   -0.9783    1.0000 </r>
       <r>   -0.2461    1.0000 </r>
       <r>    0.0845    1.0000 </r>
       <r>    0.2817    1.0000 </r>
       <r>    0.5803    1.0000 </r>
       <r>    0.7923    1.0000 </r>
       <r>    0.9548    1.0000 </r>
       <r>    1.0579    1.0000 </r>
       <r>    1.4258    1.0000 </r>
       <r>    1.5232    1.0000 </r>
       <r>    1.6136    1.0000 </r>
       <r>    2.7622    1.0000 </r>
       <r>    2.8470    1.0000 </r>
       <r>    2.9649    1.0000 </r>
       <r>    3.0458    1.0000 </r>
       <r>    3.2799    1.0000 </r>
       <r>    3.3763    1.0000 </r>
       <r>    3.6372    1.0000 </r>
       <r>    3.8039    1.0000 </r>
       <r>    3.8930    1.0000 </r>
       <r>    4.4704    1.0000 </r>
       <r>    6.2625    0.0000 </r>
       <r>    7.2069    0.0000 </r>
       <r>    7.4632    0.0000 </r>
       <r>    7.9656    0.0000 </r>
       <r>    8.3808    0.0000 </r>
       <r>    9.0791    0.0000 </r>
       <r>    9.5783    0.0000 </r>
       <r>    9.8613    0.0000 </r>
       <r>   10.4970    0.0000 </r>
       <r>   10.8268    0.0000 </r>
       <r>   11.1563    0.0000 </r>
       <r>   12.8973    0.0000 </r>
      </set>
      <set comment="kpoint 13">
       <r>  -17.2911    1.0000 </r>
       <r>  -17.2869    1.0000 </r>
       <r>  -17.2869    1.0000 </r>
       <r>  -17.2065    1.0000 </r>
       <r>  -17.2014    1.0000 </r>
       <r>   -9.5202    1.0000 </r>
       <r>   -8.4109    1.0000 </r>
       <r>   -8.1277    1.0000 </r>
       <r>   -8.1277    1.0000 </r>
       <r>   -3.2825    1.0000 </r>
       <r>   -2.2800    1.0000 </r>
       <r>   -2.2290    1.0000 </r>
       <r>   -2.2290    1.0000 </r>
       <r>   -2.1718    1.0000 </r>
       <r>   -2.0170    1.0000 </r>
       <r>   -1.0521    1.0000 </r>
       <r>   -0.2788    1.0000 </r>
       <r>    0.2273    1.0000 </r>
       <r>    0.5369    1.0000 </r>
       <r>    0.5369    1.0000 </r>
       <r>    0.6591    1.0000 </r>
       <r>    1.0458    1.0000 </r>
       <r>    1.0458    1.0000 </r>
       <r>    1.3613    1.0000 </r>
       <r>    1.5412    1.0000 </r>
       <r>    1.5412    1.0000 </r>
       <r>    2.5586    1.0000 </r>
       <r>    2.8422    1.0000 </r>
       <r>    2.9901    1.0000 </r>
       <r>    3.0091    1.0000 </r>
       <r>    3.3412    1.0000 </r>
       <r>    3.3727    1.0000 </r>
       <r>    3.3727    1.0000 </r>
       <r>    4.1171    1.0000 </r>
       <r>    4.4547    1.0000 </r>
       <r>    4.4547    1.0000 </r>
       <r>    5.9974    0.0000 </r>
       <r>    6.9311    0.0000 </r>
       <r>    7.5683    0.0000 </r>
       <r>    7.5683    0.0000 </r>
       <r>    7.7862    0.0000 </r>
       <r>    8.7614    0.0000 </r>
       <r>    9.2876    0.0000 </r>
       <r>    9.5597    0.0000 </r>
       <r>   10.4612    0.0000 </r>
       <r>   10.4612    0.0000 </r>
       <r>   13.1246    0.0000 </r>
       <r>   13.2430    0.0000 </r>
      </set>
      <set comment="kpoint 14">
       <r>  -17.2912    1.0000 </r>
       <r>  -17.2868    1.0000 </r>
       <r>  -17.2868    1.0000 </r>
       <r>  -17.2065    1.0000 </r>
       <r>  -17.2013    1.0000 </r>
       <r>   -9.1830    1.0000 </r>
       <r>   -8.8443    1.0000 </r>
       <r>   -8.1355    1.0000 </r>
       <r>   -8.1355    1.0000 </r>
       <r>   -3.3242    1.0000 </r>
       <r>   -2.3211    1.0000 </r>
       <r>   -2.2485    1.0000 </r>
       <r>   -2.2485    1.0000 </r>
       <r>   -2.1633    1.0000 </r>
       <r>   -1.8727    1.0000 </r>
       <r>   -1.1724    1.0000 </r>
       <r>    0.2210    1.0000 </r>
       <r>    0.2368    1.0000 </r>
       <r>    0.5934    1.0000 </r>
       <r>    0.6937    1.0000 </r>
       <r>    0.6937    1.0000 </r>
       <r>    1.0671    1.0000 </r>
       <r>    1.0671    1.0000 </r>
       <r>    1.4578    1.0000 </r>
       <r>    1.5787    1.0000 </r>
       <r>    1.5787    1.0000 </r>
       <r>    2.5332    1.0000 </r>
       <r>    2.8278    1.0000 </r>
       <r>    2.8696    1.0000 </r>
       <r>    2.9621    1.0000 </r>
       <r>    3.5993    1.0000 </r>
       <r>    3.6944    1.0000 </r>
       <r>    3.6944    1.0000 </r>
       <r>    3.7170    1.0000 </r>
       <r>    3.9853    1.0000 </r>
       <r>    3.9853    1.0000 </r>
       <r>    6.1755    0.0000 </r>
       <r>    6.7878    0.0000 </r>
       <r>    6.7878    0.0000 </r>
       <r>    7.1420    0.0000 </r>
       <r>    8.0588    0.0000 </r>
       <r>    8.2633    0.0000 </r>
       <r>    9.0576    0.0000 </r>
       <r>    9.0875    0.0000 </r>
       <r>   11.4291    0.0000 </r>
       <r>   11.4341    0.0000 </r>
       <r>   12.1959    0.0000 </r>
       <r>   12.6596    0.0000 </r>
      </set>
     </set>
     <set comment="spin 2">
      <set comment="kpoint 1">
       <r>  -17.2912    1.0000 </r>
       <r>  -17.2872    1.0000 </r>
       <r>  -17.2872    1.0000 </r>
       <r>  -17.2067    1.0000 </r>
       <r>  -17.2016    1.0000 </r>
       <r>   -9.6913    1.0000 </r>
       <r>   -8.1372    1.0000 </r>
       <r>   -8.1199    1.0000 </r>
       <r>   -8.1199    1.0000 </r>
       <r>   -3.2324    1.0000 </r>
       <r>   -2.2876    1.0000 </r>
       <r>   -2.2183    1.0000 </r>
       <r>   -2.2085    1.0000 </r>
       <r>   -2.2085    1.0000 </r>
       <r>   -2.1080    1.0000 </r>
       <r>   -0.8969    1.0000 </r>
       <r>   -0.2807    1.0000 </r>
       <r>   -0.1247    1.0000 </r>
       <r>    0.3460    1.0000 </r>
       <r>    0.3791    1.0000 </r>
       <r>    0.3792    1.0000 </r>
       <r>    1.0353    1.0000 </r>
       <r>    1.0353    1.0000 </r>
       <r>    1.5174    1.0000 </r>
       <r>    1.5174    1.0000 </r>
       <r>    1.5394    1.0000 </r>
       <r>    2.6409    1.0000 </r>
       <r>    2.7093    1.0000 </r>
       <r>    2.9152    1.0000 </r>
       <r>    3.1751    1.0000 </r>
       <r>    3.1868    1.0000 </r>
       <r>    3.1868    1.0000 </r>
       <r>    3.3601    1.0000 </r>
       <r>    4.8301    1.0000 </r>
       <r>    4.8301    1.0000 </r>
       <r>    4.8940    1.0000 </r>
       <r>    5.0455    0.0000 </r>
       <r>    6.7469    0.0000 </r>
       <r>    7.6013    0.0000 </r>
       <r>    8.5484    0.0000 </r>
       <r>    8.5484    0.0000 </r>
       <r>    9.6869    0.0000 </r>
       <r>    9.9270    0.0000 </r>
       <r>   10.0954    0.0000 </r>
       <r>   10.0965    0.0000 </r>
       <r>   10.5894    0.0000 </r>
       <r>   11.6332    0.0000 </r>
       <r>   11.6877    0.0000 </r>
      </set>
      <set comment="kpoint 2">
       <r>  -17.2915    1.0000 </r>
       <r>  -17.2875    1.0000 </r>
       <r>  -17.2872    1.0000 </r>
       <r>  -17.2063    1.0000 </r>
       <r>  -17.2015    1.0000 </r>
       <r>   -9.4810    1.0000 </r>
       <r>   -8.3146    1.0000 </r>
       <r>   -8.2079    1.0000 </r>
       <r>   -8.1719    1.0000 </r>
       <r>   -3.1390    1.0000 </r>
       <r>   -2.2674    1.0000 </r>
       <r>   -2.2443    1.0000 </r>
       <r>   -2.2165    1.0000 </r>
       <r>   -2.1970    1.0000 </r>
       <r>   -2.0780    1.0000 </r>
       <r>   -0.9447    1.0000 </r>
       <r>   -0.4519    1.0000 </r>
       <r>   -0.1501    1.0000 </r>
       <r>    0.2428    1.0000 </r>
       <r>    0.5329    1.0000 </r>
       <r>    0.6796    1.0000 </r>
       <r>    0.8921    1.0000 </r>
       <r>    1.0415    1.0000 </r>
       <r>    1.4072    1.0000 </r>
       <r>    1.4842    1.0000 </r>
       <r>    1.7106    1.0000 </r>
       <r>    2.7804    1.0000 </r>
       <r>    2.8554    1.0000 </r>
       <r>    2.9445    1.0000 </r>
       <r>    3.0414    1.0000 </r>
       <r>    3.1322    1.0000 </r>
       <r>    3.3642    1.0000 </r>
       <r>    3.4939    1.0000 </r>
       <r>    3.9603    1.0000 </r>
       <r>    4.3594    1.0000 </r>
       <r>    4.6643    1.0000 </r>
       <r>    6.1000    0.0000 </r>
       <r>    7.6229    0.0000 </r>
       <r>    7.8144    0.0000 </r>
       <r>    8.1813    0.0000 </r>
       <r>    8.4701    0.0000 </r>
       <r>    9.5352    0.0000 </r>
       <r>    9.9873    0.0000 </r>
       <r>   10.0926    0.0000 </r>
       <r>   10.3313    0.0000 </r>
       <r>   10.6792    0.0000 </r>
       <r>   11.2154    0.0000 </r>
       <r>   12.0438    0.0000 </r>
      </set>
      <set comment="kpoint 3">
       <r>  -17.2917    1.0000 </r>
       <r>  -17.2877    1.0000 </r>
       <r>  -17.2872    1.0000 </r>
       <r>  -17.2060    1.0000 </r>
       <r>  -17.2013    1.0000 </r>
       <r>   -9.0812    1.0000 </r>
       <r>   -8.7206    1.0000 </r>
       <r>   -8.2748    1.0000 </r>
       <r>   -8.2121    1.0000 </r>
       <r>   -3.0442    1.0000 </r>
       <r>   -2.2982    1.0000 </r>
       <r>   -2.2602    1.0000 </r>
       <r>   -2.1902    1.0000 </r>
       <r>   -2.1698    1.0000 </r>
       <r>   -2.0446    1.0000 </r>
       <r>   -0.8600    1.0000 </r>
       <r>   -0.4928    1.0000 </r>
       <r>   -0.1436    1.0000 </r>
       <r>    0.1440    1.0000 </r>
       <r>    0.4599    1.0000 </r>
       <r>    0.5645    1.0000 </r>
       <r>    0.9723    1.0000 </r>
       <r>    1.1366    1.0000 </r>
       <r>    1.3110    1.0000 </r>
       <r>    1.5081    1.0000 </r>
       <r>    1.7478    1.0000 </r>
       <r>    2.8595    1.0000 </r>
       <r>    2.8843    1.0000 </r>
       <r>    2.9839    1.0000 </r>
       <r>    3.1034    1.0000 </r>
       <r>    3.2089    1.0000 </r>
       <r>    3.5453    1.0000 </r>
       <r>    3.6659    1.0000 </r>
       <r>    3.7126    1.0000 </r>
       <r>    3.8060    1.0000 </r>
       <r>    4.3557    1.0000 </r>
       <r>    6.5132    0.0000 </r>
       <r>    7.9254    0.0000 </r>
       <r>    8.1340    0.0000 </r>
       <r>    8.9618    0.0000 </r>
       <r>    9.0900    0.0000 </r>
       <r>    9.4284    0.0000 </r>
       <r>    9.8882    0.0000 </r>
       <r>   10.2249    0.0000 </r>
       <r>   10.4272    0.0000 </r>
       <r>   10.9796    0.0000 </r>
       <r>   11.2699    0.0000 </r>
       <r>   11.3889    0.0000 </r>
      </set>
      <set comment="kpoint 4">
       <r>  -17.2918    1.0000 </r>
       <r>  -17.2875    1.0000 </r>
       <r>  -17.2874    1.0000 </r>
       <r>  -17.2060    1.0000 </r>
       <r>  -17.2013    1.0000 </r>
       <r>   -9.2312    1.0000 </r>
       <r>   -8.4292    1.0000 </r>
       <r>   -8.2982    1.0000 </r>
       <r>   -8.2899    1.0000 </r>
       <r>   -3.1684    1.0000 </r>
       <r>   -2.3048    1.0000 </r>
       <r>   -2.2750    1.0000 </r>
       <r>   -2.1727    1.0000 </r>
       <r>   -2.1587    1.0000 </r>
       <r>   -2.0426    1.0000 </r>
       <r>   -1.1002    1.0000 </r>
       <r>   -0.7279    1.0000 </r>
       <r>   -0.0663    1.0000 </r>
       <r>    0.3735    1.0000 </r>
       <r>    0.5749    1.0000 </r>
       <r>    0.6706    1.0000 </r>
       <r>    1.0344    1.0000 </r>
       <r>    1.1334    1.0000 </r>
       <r>    1.4015    1.0000 </r>
       <r>    1.6578    1.0000 </r>
       <r>    1.6819    1.0000 </r>
       <r>    2.7866    1.0000 </r>
       <r>    2.8975    1.0000 </r>
       <r>    3.0158    1.0000 </r>
       <r>    3.0700    1.0000 </r>
       <r>    3.2550    1.0000 </r>
       <r>    3.4389    1.0000 </r>
       <r>    3.5525    1.0000 </r>
       <r>    3.8156    1.0000 </r>
       <r>    4.4638    1.0000 </r>
       <r>    4.4905    1.0000 </r>
       <r>    5.9206    0.0000 </r>
       <r>    7.4954    0.0000 </r>
       <r>    7.7954    0.0000 </r>
       <r>    7.9697    0.0000 </r>
       <r>    8.7239    0.0000 </r>
       <r>    9.7423    0.0000 </r>
       <r>   10.2580    0.0000 </r>
       <r>   10.4110    0.0000 </r>
       <r>   10.5033    0.0000 </r>
       <r>   10.7758    0.0000 </r>
       <r>   11.6947    0.0000 </r>
       <r>   11.9571    0.0000 </r>
      </set>
      <set comment="kpoint 5">
       <r>  -17.2921    1.0000 </r>
       <r>  -17.2878    1.0000 </r>
       <r>  -17.2874    1.0000 </r>
       <r>  -17.2057    1.0000 </r>
       <r>  -17.2012    1.0000 </r>
       <r>   -9.0060    1.0000 </r>
       <r>   -8.6056    1.0000 </r>
       <r>   -8.3969    1.0000 </r>
       <r>   -8.2489    1.0000 </r>
       <r>   -3.1608    1.0000 </r>
       <r>   -2.3313    1.0000 </r>
       <r>   -2.2570    1.0000 </r>
       <r>   -2.1713    1.0000 </r>
       <r>   -2.1434    1.0000 </r>
       <r>   -2.0800    1.0000 </r>
       <r>   -1.2426    1.0000 </r>
       <r>   -0.8073    1.0000 </r>
       <r>   -0.3874    1.0000 </r>
       <r>    0.2538    1.0000 </r>
       <r>    0.6757    1.0000 </r>
       <r>    1.0124    1.0000 </r>
       <r>    1.0250    1.0000 </r>
       <r>    1.1539    1.0000 </r>
       <r>    1.4693    1.0000 </r>
       <r>    1.6477    1.0000 </r>
       <r>    1.7387    1.0000 </r>
       <r>    2.8195    1.0000 </r>
       <r>    2.8842    1.0000 </r>
       <r>    2.9404    1.0000 </r>
       <r>    3.1273    1.0000 </r>
       <r>    3.4211    1.0000 </r>
       <r>    3.5418    1.0000 </r>
       <r>    3.6887    1.0000 </r>
       <r>    3.9597    1.0000 </r>
       <r>    4.1789    1.0000 </r>
       <r>    4.2810    1.0000 </r>
       <r>    6.0956    0.0000 </r>
       <r>    7.7307    0.0000 </r>
       <r>    8.1616    0.0000 </r>
       <r>    8.5532    0.0000 </r>
       <r>    9.0224    0.0000 </r>
       <r>    9.5222    0.0000 </r>
       <r>    9.9198    0.0000 </r>
       <r>   10.2522    0.0000 </r>
       <r>   10.6565    0.0000 </r>
       <r>   11.0517    0.0000 </r>
       <r>   11.3093    0.0000 </r>
       <r>   11.5462    0.0000 </r>
      </set>
      <set comment="kpoint 6">
       <r>  -17.2921    1.0000 </r>
       <r>  -17.2878    1.0000 </r>
       <r>  -17.2874    1.0000 </r>
       <r>  -17.2057    1.0000 </r>
       <r>  -17.2012    1.0000 </r>
       <r>   -9.0061    1.0000 </r>
       <r>   -8.6055    1.0000 </r>
       <r>   -8.3973    1.0000 </r>
       <r>   -8.2484    1.0000 </r>
       <r>   -3.1700    1.0000 </r>
       <r>   -2.2904    1.0000 </r>
       <r>   -2.2616    1.0000 </r>
       <r>   -2.1817    1.0000 </r>
       <r>   -2.1420    1.0000 </r>
       <r>   -2.0978    1.0000 </r>
       <r>   -1.2220    1.0000 </r>
       <r>   -0.8325    1.0000 </r>
       <r>   -0.3458    1.0000 </r>
       <r>    0.1367    1.0000 </r>
       <r>    0.8289    1.0000 </r>
       <r>    0.9451    1.0000 </r>
       <r>    1.0008    1.0000 </r>
       <r>    1.1454    1.0000 </r>
       <r>    1.4933    1.0000 </r>
       <r>    1.5978    1.0000 </r>
       <r>    1.8035    1.0000 </r>
       <r>    2.8399    1.0000 </r>
       <r>    2.8767    1.0000 </r>
       <r>    2.9712    1.0000 </r>
       <r>    3.0359    1.0000 </r>
       <r>    3.4067    1.0000 </r>
       <r>    3.6052    1.0000 </r>
       <r>    3.7815    1.0000 </r>
       <r>    3.8750    1.0000 </r>
       <r>    4.1575    1.0000 </r>
       <r>    4.2802    1.0000 </r>
       <r>    6.0857    0.0000 </r>
       <r>    7.7239    0.0000 </r>
       <r>    8.1556    0.0000 </r>
       <r>    8.5933    0.0000 </r>
       <r>    9.0608    0.0000 </r>
       <r>    9.4462    0.0000 </r>
       <r>    9.8930    0.0000 </r>
       <r>   10.2693    0.0000 </r>
       <r>   10.6992    0.0000 </r>
       <r>   11.0594    0.0000 </r>
       <r>   11.3343    0.0000 </r>
       <r>   11.4655    0.0000 </r>
      </set>
      <set comment="kpoint 7">
       <r>  -17.2918    1.0000 </r>
       <r>  -17.2876    1.0000 </r>
       <r>  -17.2874    1.0000 </r>
       <r>  -17.2060    1.0000 </r>
       <r>  -17.2013    1.0000 </r>
       <r>   -9.3672    1.0000 </r>
       <r>   -8.3780    1.0000 </r>
       <r>   -8.2787    1.0000 </r>
       <r>   -8.1537    1.0000 </r>
       <r>   -3.1469    1.0000 </r>
       <r>   -2.2810    1.0000 </r>
       <r>   -2.2350    1.0000 </r>
       <r>   -2.2260    1.0000 </r>
       <r>   -2.1660    1.0000 </r>
       <r>   -2.1068    1.0000 </r>
       <r>   -1.2232    1.0000 </r>
       <r>   -0.6642    1.0000 </r>
       <r>   -0.1657    1.0000 </r>
       <r>    0.0719    1.0000 </r>
       <r>    0.5794    1.0000 </r>
       <r>    0.9437    1.0000 </r>
       <r>    1.0262    1.0000 </r>
       <r>    1.1310    1.0000 </r>
       <r>    1.3022    1.0000 </r>
       <r>    1.6492    1.0000 </r>
       <r>    1.7732    1.0000 </r>
       <r>    2.8004    1.0000 </r>
       <r>    2.9035    1.0000 </r>
       <r>    2.9345    1.0000 </r>
       <r>    3.0636    1.0000 </r>
       <r>    3.2095    1.0000 </r>
       <r>    3.4959    1.0000 </r>
       <r>    3.6035    1.0000 </r>
       <r>    3.7706    1.0000 </r>
       <r>    4.2852    1.0000 </r>
       <r>    4.6867    1.0000 </r>
       <r>    6.0877    0.0000 </r>
       <r>    7.6994    0.0000 </r>
       <r>    8.0626    0.0000 </r>
       <r>    8.3922    0.0000 </r>
       <r>    8.7664    0.0000 </r>
       <r>    9.4768    0.0000 </r>
       <r>    9.9157    0.0000 </r>
       <r>   10.2307    0.0000 </r>
       <r>   10.4217    0.0000 </r>
       <r>   10.6602    0.0000 </r>
       <r>   11.6459    0.0000 </r>
       <r>   11.9202    0.0000 </r>
      </set>
      <set comment="kpoint 8">
       <r>  -17.2925    1.0000 </r>
       <r>  -17.2880    1.0000 </r>
       <r>  -17.2875    1.0000 </r>
       <r>  -17.2053    1.0000 </r>
       <r>  -17.2011    1.0000 </r>
       <r>   -8.8890    1.0000 </r>
       <r>   -8.4713    1.0000 </r>
       <r>   -8.4434    1.0000 </r>
       <r>   -8.4219    1.0000 </r>
       <r>   -3.2870    1.0000 </r>
       <r>   -2.3077    1.0000 </r>
       <r>   -2.2253    1.0000 </r>
       <r>   -2.1837    1.0000 </r>
       <r>   -2.1353    1.0000 </r>
       <r>   -2.1294    1.0000 </r>
       <r>   -1.5749    1.0000 </r>
       <r>   -0.9117    1.0000 </r>
       <r>   -0.5349    1.0000 </r>
       <r>    0.4240    1.0000 </r>
       <r>    0.4830    1.0000 </r>
       <r>    1.1190    1.0000 </r>
       <r>    1.1685    1.0000 </r>
       <r>    1.4088    1.0000 </r>
       <r>    1.5444    1.0000 </r>
       <r>    1.6293    1.0000 </r>
       <r>    1.8242    1.0000 </r>
       <r>    2.8557    1.0000 </r>
       <r>    2.8975    1.0000 </r>
       <r>    2.9953    1.0000 </r>
       <r>    3.1248    1.0000 </r>
       <r>    3.5034    1.0000 </r>
       <r>    3.5855    1.0000 </r>
       <r>    4.0457    1.0000 </r>
       <r>    4.1572    1.0000 </r>
       <r>    4.3598    1.0000 </r>
       <r>    4.4611    1.0000 </r>
       <r>    5.5028    0.0000 </r>
       <r>    7.1214    0.0000 </r>
       <r>    7.9554    0.0000 </r>
       <r>    8.9203    0.0000 </r>
       <r>    9.1596    0.0000 </r>
       <r>    9.7543    0.0000 </r>
       <r>    9.9324    0.0000 </r>
       <r>   10.5696    0.0000 </r>
       <r>   10.6631    0.0000 </r>
       <r>   10.8576    0.0000 </r>
       <r>   11.3458    0.0000 </r>
       <r>   11.5103    0.0000 </r>
      </set>
      <set comment="kpoint 9">
       <r>  -17.2925    1.0000 </r>
       <r>  -17.2877    1.0000 </r>
       <r>  -17.2877    1.0000 </r>
       <r>  -17.2053    1.0000 </r>
       <r>  -17.2011    1.0000 </r>
       <r>   -8.8884    1.0000 </r>
       <r>   -8.4597    1.0000 </r>
       <r>   -8.4445    1.0000 </r>
       <r>   -8.4339    1.0000 </r>
       <r>   -3.2807    1.0000 </r>
       <r>   -2.3064    1.0000 </r>
       <r>   -2.2698    1.0000 </r>
       <r>   -2.1482    1.0000 </r>
       <r>   -2.1314    1.0000 </r>
       <r>   -2.0972    1.0000 </r>
       <r>   -1.3818    1.0000 </r>
       <r>   -1.0724    1.0000 </r>
       <r>   -0.9217    1.0000 </r>
       <r>    0.7952    1.0000 </r>
       <r>    0.8847    1.0000 </r>
       <r>    0.9392    1.0000 </r>
       <r>    1.1588    1.0000 </r>
       <r>    1.2014    1.0000 </r>
       <r>    1.5639    1.0000 </r>
       <r>    1.6063    1.0000 </r>
       <r>    1.8908    1.0000 </r>
       <r>    2.8226    1.0000 </r>
       <r>    2.8420    1.0000 </r>
       <r>    3.0292    1.0000 </r>
       <r>    3.1369    1.0000 </r>
       <r>    3.5191    1.0000 </r>
       <r>    3.5289    1.0000 </r>
       <r>    4.0789    1.0000 </r>
       <r>    4.0835    1.0000 </r>
       <r>    4.2682    1.0000 </r>
       <r>    4.2973    1.0000 </r>
       <r>    5.7607    0.0000 </r>
       <r>    7.6524    0.0000 </r>
       <r>    7.8709    0.0000 </r>
       <r>    8.3310    0.0000 </r>
       <r>    9.3778    0.0000 </r>
       <r>    9.3992    0.0000 </r>
       <r>    9.6440    0.0000 </r>
       <r>   10.3270    0.0000 </r>
       <r>   10.9681    0.0000 </r>
       <r>   11.0559    0.0000 </r>
       <r>   11.1278    0.0000 </r>
       <r>   11.4107    0.0000 </r>
      </set>
      <set comment="kpoint 10">
       <r>  -17.2917    1.0000 </r>
       <r>  -17.2877    1.0000 </r>
       <r>  -17.2872    1.0000 </r>
       <r>  -17.2060    1.0000 </r>
       <r>  -17.2013    1.0000 </r>
       <r>   -9.1056    1.0000 </r>
       <r>   -8.5844    1.0000 </r>
       <r>   -8.4784    1.0000 </r>
       <r>   -8.1209    1.0000 </r>
       <r>   -3.0430    1.0000 </r>
       <r>   -2.3452    1.0000 </r>
       <r>   -2.2390    1.0000 </r>
       <r>   -2.1879    1.0000 </r>
       <r>   -2.1529    1.0000 </r>
       <r>   -2.0227    1.0000 </r>
       <r>   -0.9216    1.0000 </r>
       <r>   -0.4011    1.0000 </r>
       <r>   -0.1178    1.0000 </r>
       <r>    0.2081    1.0000 </r>
       <r>    0.3596    1.0000 </r>
       <r>    0.6301    1.0000 </r>
       <r>    0.7353    1.0000 </r>
       <r>    1.0609    1.0000 </r>
       <r>    1.4651    1.0000 </r>
       <r>    1.5121    1.0000 </r>
       <r>    1.7905    1.0000 </r>
       <r>    2.8471    1.0000 </r>
       <r>    2.8951    1.0000 </r>
       <r>    2.9633    1.0000 </r>
       <r>    3.1322    1.0000 </r>
       <r>    3.2530    1.0000 </r>
       <r>    3.3242    1.0000 </r>
       <r>    3.5217    1.0000 </r>
       <r>    3.8832    1.0000 </r>
       <r>    4.1112    1.0000 </r>
[...]
        <r>  0.0000  0.0049  0.0165  0.0033  0.0274  0.0007  0.0027  0.0105  0.0032 </r>
        <r>  0.0079  0.0000  0.0000  0.0000  0.0001  0.0004  0.0003  0.0003  0.0000 </r>
        <r>  0.0022  0.0159  0.0013  0.0803  0.0000  0.0000  0.0000  0.0000  0.0000 </r>
        <r>  0.0022  0.0377  0.0079  0.0519  0.0000  0.0000  0.0000  0.0000  0.0000 </r>
        <r>  0.0022  0.0638  0.0122  0.0215  0.0000  0.0000  0.0000  0.0000  0.0000 </r>
        <r>  0.0022  0.0340  0.0552  0.0083  0.0000  0.0000  0.0000  0.0000  0.0000 </r>
       </set>
       <set comment="band 25">
        <r>  0.0000  0.0357  0.0071  0.0018  0.0098  0.0014  0.0203  0.0188  0.0054 </r>
        <r>  0.0000  0.0010  0.0007  0.0099  0.0007  0.0000  0.0016  0.0011  0.0003 </r>
        <r>  0.0000  0.0004  0.0001  0.0025  0.0191  0.0272  0.0254  0.0929  0.0473 </r>
        <r>  0.0000  0.0066  0.0036  0.0012  0.0001  0.0006  0.0000  0.0012  0.0008 </r>
        <r>  0.0006  0.0367  0.0074  0.0405  0.0000  0.0000  0.0000  0.0000  0.0000 </r>
        <r>  0.0006  0.0593  0.0001  0.0253  0.0000  0.0000  0.0000  0.0000  0.0000 </r>
        <r>  0.0002  0.0500  0.0030  0.0299  0.0000  0.0000  0.0000  0.0000  0.0000 </r>
        <r>  0.0002  0.0014  0.0810  0.0005  0.0000  0.0000  0.0000  0.0000  0.0000 </r>
       </set>
       <set comment="band 26">
        <r>  0.0000  0.0000  0.0077  0.0369  0.0028  0.0172  0.0168  0.0059  0.0129 </r>
        <r>  0.0000  0.0083  0.0031  0.0002  0.0001  0.0012  0.0009  0.0005  0.0010 </r>
        <r>  0.0000  0.0020  0.0009  0.0001  0.0289  0.0434  0.1158  0.0013  0.0224 </r>
        <r>  0.0000  0.0025  0.0002  0.0087  0.0005  0.0003  0.0017  0.0000  0.0001 </r>
        <r>  0.0002  0.0008  0.0273  0.0548  0.0000  0.0000  0.0000  0.0000  0.0000 </r>
        <r>  0.0002  0.0458  0.0302  0.0068  0.0000  0.0000  0.0000  0.0000  0.0000 </r>
        <r>  0.0006  0.0253  0.0127  0.0467  0.0000  0.0000  0.0000  0.0000  0.0000 </r>
        <r>  0.0006  0.0115  0.0430  0.0302  0.0000  0.0000  0.0000  0.0000  0.0000 </r>
       </set>
       <set comment="band 27">
        <r>  0.0000  0.0000  0.0000  0.0000  0.0001  0.0002  0.0000  0.0003  0.0008 </r>
        <r>  0.0029  0.0000  0.0000  0.0000  0.0455  0.2276  0.1423  0.1517  0.0019 </r>
        <r>  0.0000  0.0000  0.0000  0.0000  0.0040  0.0327  0.0000  0.0433  0.1482 </r>
        <r>  0.0553  0.0000  0.0000  0.0000  0.0000  0.0001  0.0000  0.0000  0.0000 </r>
        <r>  0.0009  0.0000  0.0042  0.0000  0.0000  0.0000  0.0000  0.0000  0.0000 </r>
        <r>  0.0009  0.0023  0.0006  0.0013  0.0000  0.0000  0.0000  0.0000  0.0000 </r>
        <r>  0.0009  0.0000  0.0018  0.0023  0.0000  0.0000  0.0000  0.0000  0.0000 </r>
        <r>  0.0009  0.0021  0.0021  0.0001  0.0000  0.0000  0.0000  0.0000  0.0000 </r>
       </set>
       <set comment="band 28">
        <r>  0.0222  0.0000  0.0000  0.0000  0.0000  0.0002  0.0001  0.0001  0.0000 </r>
        <r>  0.0000  0.0001  0.0004  0.0001  0.0693  0.0000  0.0059  0.0415  0.0315 </r>
        <r>  0.0022  0.0000  0.0000  0.0000  0.0577  0.2887  0.1806  0.1925  0.0024 </r>
        <r>  0.0000  0.0003  0.0009  0.0002  0.0003  0.0001  0.0000  0.0000  0.0001 </r>
        <r>  0.0000  0.0012  0.0001  0.0000  0.0000  0.0000  0.0000  0.0000  0.0000 </r>
        <r>  0.0000  0.0008  0.0005  0.0000  0.0000  0.0000  0.0000  0.0000  0.0000 </r>
        <r>  0.0000  0.0001  0.0003  0.0010  0.0000  0.0000  0.0000  0.0000  0.0000 </r>
        <r>  0.0000  0.0000  0.0001  0.0012  0.0000  0.0000  0.0000  0.0000  0.0000 </r>
       </set>
       <set comment="band 29">
        <r>  0.0000  0.0003  0.0012  0.0002  0.0011  0.0003  0.0001  0.0001  0.0002 </r>
        <r>  0.0046  0.0000  0.0000  0.0000  0.0215  0.1073  0.0671  0.0716  0.0009 </r>
        <r>  0.0000  0.0003  0.0010  0.0002  0.0828  0.0431  0.0033  0.1620  0.3376 </r>
        <r>  0.0022  0.0000  0.0000  0.0000  0.0000  0.0001  0.0000  0.0001  0.0000 </r>
        <r>  0.0000  0.0003  0.0002  0.0024  0.0000  0.0000  0.0000  0.0000  0.0000 </r>
        <r>  0.0000  0.0014  0.0004  0.0011  0.0000  0.0000  0.0000  0.0000  0.0000 </r>
        <r>  0.0000  0.0020  0.0001  0.0008  0.0000  0.0000  0.0000  0.0000  0.0000 </r>
        <r>  0.0000  0.0007  0.0021  0.0002  0.0000  0.0000  0.0000  0.0000  0.0000 </r>
       </set>
       <set comment="band 30">
        <r>  0.0086  0.0000  0.0000  0.0000  0.0000  0.0001  0.0000  0.0000  0.0000 </r>
        <r>  0.0000  0.0001  0.0002  0.0000  0.0006  0.1470  0.0019  0.1280  0.5553 </r>
        <r>  0.0079  0.0000  0.0000  0.0000  0.0061  0.0306  0.0192  0.0204  0.0003 </r>
        <r>  0.0000  0.0001  0.0002  0.0000  0.0001  0.0000  0.0000  0.0000  0.0000 </r>
        <r>  0.0001  0.0001  0.0002  0.0007  0.0000  0.0000  0.0000  0.0000  0.0000 </r>
        <r>  0.0001  0.0000  0.0000  0.0009  0.0000  0.0000  0.0000  0.0000  0.0000 </r>
        <r>  0.0001  0.0006  0.0004  0.0000  0.0000  0.0000  0.0000  0.0000  0.0000 </r>
        <r>  0.0001  0.0008  0.0001  0.0000  0.0000  0.0000  0.0000  0.0000  0.0000 </r>
       </set>
       <set comment="band 31">
        <r>  0.0000  0.0001  0.0004  0.0001  0.0010  0.0000  0.0001  0.0005  0.0003 </r>
        <r>  0.0192  0.0000  0.0000  0.0000  0.0008  0.0042  0.0026  0.0028  0.0000 </r>
        <r>  0.0000  0.0028  0.0094  0.0019  0.4167  0.1422  0.0575  0.0248  0.0899 </r>
        <r>  0.0227  0.0000  0.0000  0.0000  0.0001  0.0006  0.0004  0.0004  0.0000 </r>
        <r>  0.0064  0.0141  0.0001  0.0001  0.0000  0.0000  0.0000  0.0000  0.0000 </r>
        <r>  0.0064  0.0048  0.0068  0.0027  0.0000  0.0000  0.0000  0.0000  0.0000 </r>
        <r>  0.0064  0.0002  0.0088  0.0054  0.0000  0.0000  0.0000  0.0000  0.0000 </r>
        <r>  0.0064  0.0014  0.0000  0.0129  0.0000  0.0000  0.0000  0.0000  0.0000 </r>
       </set>
       <set comment="band 32">
        <r>  0.0000  0.0074  0.0011  0.0010  0.0001  0.0042  0.0015  0.0029  0.0038 </r>
        <r>  0.0000  0.0080  0.0049  0.0023  0.0362  0.0548  0.1454  0.0017  0.0284 </r>
        <r>  0.0000  0.0063  0.0000  0.0069  0.0024  0.0894  0.0333  0.0617  0.0815 </r>
        <r>  0.0000  0.0097  0.0009  0.0028  0.0006  0.0019  0.0027  0.0004  0.0013 </r>
        <r>  0.0012  0.0000  0.0071  0.0705  0.0000  0.0000  0.0000  0.0000  0.0000 </r>
        <r>  0.0012  0.0007  0.0167  0.0601  0.0000  0.0000  0.0000  0.0000  0.0000 </r>
        <r>  0.0000  0.0015  0.0010  0.0006  0.0000  0.0000  0.0000  0.0000  0.0000 </r>
        <r>  0.0000  0.0030  0.0000  0.0001  0.0000  0.0000  0.0000  0.0000  0.0000 </r>
       </set>
       <set comment="band 33">
        <r>  0.0000  0.0002  0.0021  0.0073  0.0027  0.0000  0.0068  0.0026  0.0003 </r>
        <r>  0.0000  0.0042  0.0001  0.0109  0.0242  0.0340  0.0322  0.1167  0.0592 </r>
        <r>  0.0000  0.0043  0.0043  0.0046  0.0584  0.0000  0.1456  0.0576  0.0068 </r>
        <r>  0.0000  0.0011  0.0036  0.0088  0.0010  0.0004  0.0018  0.0027  0.0010 </r>
        <r>  0.0000  0.0000  0.0016  0.0015  0.0000  0.0000  0.0000  0.0000  0.0000 </r>
        <r>  0.0000  0.0003  0.0001  0.0027  0.0000  0.0000  0.0000  0.0000  0.0000 </r>
        <r>  0.0012  0.0675  0.0093  0.0007  0.0000  0.0000  0.0000  0.0000  0.0000 </r>
        <r>  0.0012  0.0553  0.0201  0.0022  0.0000  0.0000  0.0000  0.0000  0.0000 </r>
       </set>
       <set comment="band 34">
        <r>  0.0234  0.0000  0.0000  0.0000  0.0002  0.0009  0.0006  0.0006  0.0000 </r>
        <r>  0.0000  0.0026  0.0088  0.0018  0.4592  0.0740  0.0554  0.0756  0.0063 </r>
        <r>  0.0146  0.0000  0.0000  0.0000  0.0067  0.0334  0.0209  0.0223  0.0003 </r>
        <r>  0.0000  0.0000  0.0001  0.0000  0.0013  0.0004  0.0002  0.0001  0.0002 </r>
        <r>  0.0056  0.0094  0.0022  0.0032  0.0000  0.0000  0.0000  0.0000  0.0000 </r>
        <r>  0.0056  0.0000  0.0145  0.0003  0.0000  0.0000  0.0000  0.0000  0.0000 </r>
        <r>  0.0056  0.0056  0.0088  0.0004  0.0000  0.0000  0.0000  0.0000  0.0000 </r>
        <r>  0.0056  0.0003  0.0055  0.0091  0.0000  0.0000  0.0000  0.0000  0.0000 </r>
       </set>
       <set comment="band 35">
        <r>  0.0000  0.0014  0.0012  0.0009  0.0000  0.0009  0.0000  0.0012  0.0010 </r>
        <r>  0.0000  0.0000  0.0028  0.0136  0.0535  0.0461  0.1927  0.0004  0.0179 </r>
        <r>  0.0000  0.0000  0.0028  0.0140  0.0000  0.0920  0.0094  0.0954  0.0960 </r>
        <r>  0.0000  0.0046  0.0000  0.0055  0.0005  0.0001  0.0015  0.0002  0.0000 </r>
        <r>  0.0000  0.0611  0.0001  0.0000  0.0000  0.0000  0.0000  0.0000  0.0000 </r>
        <r>  0.0000  0.0240  0.0319  0.0053  0.0000  0.0000  0.0000  0.0000  0.0000 </r>
        <r>  0.0001  0.0005  0.0103  0.0066  0.0000  0.0000  0.0000  0.0000  0.0000 </r>
        <r>  0.0001  0.0012  0.0000  0.0161  0.0000  0.0000  0.0000  0.0000  0.0000 </r>
       </set>
       <set comment="band 36">
        <r>  0.0000  0.0014  0.0000  0.0021  0.0007  0.0002  0.0021  0.0002  0.0000 </r>
        <r>  0.0000  0.0131  0.0027  0.0006  0.0169  0.0575  0.0144  0.1377  0.0843 </r>
        <r>  0.0000  0.0135  0.0028  0.0006  0.0663  0.0056  0.1858  0.0347  0.0003 </r>
        <r>  0.0000  0.0035  0.0034  0.0033  0.0000  0.0007  0.0000  0.0008  0.0007 </r>
        <r>  0.0001  0.0173  0.0001  0.0000  0.0000  0.0000  0.0000  0.0000  0.0000 </r>
        <r>  0.0001  0.0056  0.0091  0.0026  0.0000  0.0000  0.0000  0.0000  0.0000 </r>
        <r>  0.0000  0.0027  0.0301  0.0285  0.0000  0.0000  0.0000  0.0000  0.0000 </r>
        <r>  0.0000  0.0016  0.0000  0.0596  0.0000  0.0000  0.0000  0.0000  0.0000 </r>
       </set>
       <set comment="band 37">
        <r>  0.0000  0.0000  0.0000  0.0000  0.0006  0.0035  0.0002  0.0012  0.0095 </r>
        <r>  0.0006  0.0000  0.0000  0.0000  0.0074  0.0371  0.0232  0.0247  0.0003 </r>
        <r>  0.0000  0.0001  0.0002  0.0000  0.0211  0.0018  0.0014  0.0219  0.0303 </r>
        <r>  0.1906  0.0000  0.0000  0.0000  0.0000  0.0001  0.0000  0.0001  0.0000 </r>
        <r>  0.0026  0.0002  0.0747  0.0004  0.0000  0.0000  0.0000  0.0000  0.0000 </r>
        <r>  0.0026  0.0404  0.0049  0.0300  0.0000  0.0000  0.0000  0.0000  0.0000 </r>
        <r>  0.0026  0.0005  0.0309  0.0439  0.0000  0.0000  0.0000  0.0000  0.0000 </r>
        <r>  0.0026  0.0441  0.0281  0.0032  0.0000  0.0000  0.0000  0.0000  0.0000 </r>
       </set>
       <set comment="band 38">
        <r>  0.0000  0.0156  0.0002  0.0143  0.0000  0.0044  0.0003  0.0051  0.0048 </r>
        <r>  0.0000  0.0042  0.0040  0.0038  0.0119  0.0027  0.0361  0.0034  0.0002 </r>
        <r>  0.0000  0.0047  0.0001  0.0112  0.0029  0.0108  0.0024  0.0252  0.0157 </r>
        <r>  0.0000  0.0478  0.0336  0.0202  0.0060  0.0016  0.0184  0.0015  0.0002 </r>
        <r>  0.0275  0.0001  0.0077  0.0003  0.0000  0.0000  0.0000  0.0000  0.0000 </r>
        <r>  0.0275  0.0042  0.0001  0.0038  0.0000  0.0000  0.0000  0.0000  0.0000 </r>
        <r>  0.0001  0.0031  0.0017  0.0010  0.0000  0.0000  0.0000  0.0000  0.0000 </r>
        <r>  0.0001  0.0028  0.0021  0.0008  0.0000  0.0000  0.0000  0.0000  0.0000 </r>
       </set>
       <set comment="band 39">
        <r>  0.0000  0.0085  0.0098  0.0119  0.0033  0.0004  0.0095  0.0014  0.0000 </r>
        <r>  0.0000  0.0054  0.0000  0.0066  0.0004  0.0154  0.0002  0.0207  0.0177 </r>
        <r>  0.0000  0.0081  0.0052  0.0026  0.0100  0.0082  0.0356  0.0001  0.0031 </r>
        <r>  0.0000  0.0334  0.0003  0.0678  0.0003  0.0076  0.0000  0.0109  0.0089 </r>
        <r>  0.0001  0.0015  0.0000  0.0042  0.0000  0.0000  0.0000  0.0000  0.0000 </r>
        <r>  0.0001  0.0017  0.0001  0.0039  0.0000  0.0000  0.0000  0.0000  0.0000 </r>
        <r>  0.0275  0.0004  0.0028  0.0050  0.0000  0.0000  0.0000  0.0000  0.0000 </r>
        <r>  0.0275  0.0054  0.0020  0.0007  0.0000  0.0000  0.0000  0.0000  0.0000 </r>
       </set>
       <set comment="band 40">
        <r>  0.0065  0.0000  0.0000  0.0000  0.0000  0.0001  0.0000  0.0000  0.0000 </r>
        <r>  0.0000  0.0114  0.0379  0.0076  0.0067  0.0017  0.0009  0.0006  0.0007 </r>
        <r>  0.0021  0.0000  0.0000  0.0000  0.0000  0.0000  0.0000  0.0000  0.0000 </r>
        <r>  0.0000  0.0437  0.1457  0.0291  0.0114  0.0018  0.0014  0.0019  0.0002 </r>
        <r>  0.0144  0.0082  0.0004  0.0047  0.0000  0.0000  0.0000  0.0000  0.0000 </r>
        <r>  0.0144  0.0022  0.0101  0.0011  0.0000  0.0000  0.0000  0.0000  0.0000 </r>
        <r>  0.0144  0.0073  0.0018  0.0043  0.0000  0.0000  0.0000  0.0000  0.0000 </r>
        <r>  0.0144  0.0018  0.0014  0.0102  0.0000  0.0000  0.0000  0.0000  0.0000 </r>
       </set>
       <set comment="band 41">
        <r>  0.2381  0.0000  0.0000  0.0000  0.0000  0.0001  0.0000  0.0000  0.0000 </r>
        <r>  0.0000  0.0000  0.0001  0.0000  0.0001  0.0065  0.0001  0.0064  0.0257 </r>
        <r>  0.0082  0.0000  0.0000  0.0000  0.0037  0.0187  0.0117  0.0125  0.0002 </r>
        <r>  0.0000  0.0000  0.0000  0.0000  0.0010  0.0031  0.0000  0.0055  0.0163 </r>
        <r>  0.0049  0.0000  0.0103  0.0178  0.0000  0.0000  0.0000  0.0000  0.0000 </r>
        <r>  0.0049  0.0147  0.0119  0.0015  0.0000  0.0000  0.0000  0.0000  0.0000 </r>
        <r>  0.0049  0.0168  0.0019  0.0095  0.0000  0.0000  0.0000  0.0000  0.0000 </r>
        <r>  0.0049  0.0002  0.0279  0.0000  0.0000  0.0000  0.0000  0.0000  0.0000 </r>
       </set>
       <set comment="band 42">
        <r>  0.0000  0.0186  0.0621  0.0124  0.0031  0.0017  0.0005  0.0000  0.0019 </r>
        <r>  0.0041  0.0000  0.0000  0.0000  0.0000  0.0000  0.0000  0.0000  0.0000 </r>
        <r>  0.0000  0.0122  0.0406  0.0081  0.0070  0.0002  0.0007  0.0026  0.0007 </r>
        <r>  0.0060  0.0000  0.0000  0.0000  0.0003  0.0014  0.0009  0.0009  0.0000 </r>
        <r>  0.0159  0.0043  0.0065  0.0004  0.0000  0.0000  0.0000  0.0000  0.0000 </r>
        <r>  0.0159  0.0007  0.0074  0.0031  0.0000  0.0000  0.0000  0.0000  0.0000 </r>
        <r>  0.0159  0.0010  0.0098  0.0004  0.0000  0.0000  0.0000  0.0000  0.0000 </r>
        <r>  0.0159  0.0036  0.0046  0.0030  0.0000  0.0000  0.0000  0.0000  0.0000 </r>
       </set>
       <set comment="band 43">
        <r>  0.0000  0.0034  0.0113  0.0023  0.0013  0.0009  0.0000  0.0028  0.0062 </r>
        <r>  0.2166  0.0000  0.0000  0.0000  0.0002  0.0011  0.0007  0.0008  0.0000 </r>
        <r>  0.0000  0.0020  0.0067  0.0013  0.0000  0.0037  0.0001  0.0028  0.0131 </r>
        <r>  0.0029  0.0000  0.0000  0.0000  0.0030  0.0149  0.0093  0.0100  0.0001 </r>
        <r>  0.0012  0.0025  0.0040  0.0026  0.0000  0.0000  0.0000  0.0000  0.0000 </r>
        <r>  0.0012  0.0011  0.0078  0.0003  0.0000  0.0000  0.0000  0.0000  0.0000 </r>
        <r>  0.0012  0.0036  0.0050  0.0005  0.0000  0.0000  0.0000  0.0000  0.0000 </r>
        <r>  0.0012  0.0005  0.0065  0.0021  0.0000  0.0000  0.0000  0.0000  0.0000 </r>
       </set>
       <set comment="band 44">
        <r>  0.0163  0.0000  0.0000  0.0000  0.0019  0.0097  0.0061  0.0065  0.0001 </r>
        <r>  0.0000  0.0001  0.0002  0.0000  0.0003  0.0016  0.0000  0.0024  0.0078 </r>
        <r>  0.2135  0.0000  0.0000  0.0000  0.0005  0.0026  0.0016  0.0017  0.0000 </r>
        <r>  0.0000  0.0010  0.0035  0.0007  0.0007  0.0015  0.0000  0.0031  0.0085 </r>
        <r>  0.0082  0.0048  0.0150  0.0018  0.0000  0.0000  0.0000  0.0000  0.0000 </r>
        <r>  0.0082  0.0038  0.0135  0.0042  0.0000  0.0000  0.0000  0.0000  0.0000 </r>
        <r>  0.0082  0.0030  0.0158  0.0027  0.0000  0.0000  0.0000  0.0000  0.0000 </r>
        <r>  0.0082  0.0057  0.0128  0.0030  0.0000  0.0000  0.0000  0.0000  0.0000 </r>
       </set>
       <set comment="band 45">
        <r>  0.0000  0.0138  0.0017  0.0049  0.0014  0.0016  0.0053  0.0003  0.0009 </r>
        <r>  0.0000  0.0498  0.0096  0.0089  0.0004  0.0005  0.0005  0.0014  0.0008 </r>
        <r>  0.0000  0.0009  0.0011  0.0019  0.0002  0.0038  0.0013  0.0042  0.0041 </r>
        <r>  0.0000  0.1534  0.0288  0.0274  0.0001  0.0001  0.0000  0.0001  0.0001 </r>
        <r>  0.0001  0.0038  0.0158  0.0119  0.0000  0.0000  0.0000  0.0000  0.0000 </r>
        <r>  0.0002  0.0045  0.0002  0.0278  0.0000  0.0000  0.0000  0.0000  0.0000 </r>
        <r>  0.0001  0.0009  0.0016  0.0443  0.0000  0.0000  0.0000  0.0000  0.0000 </r>
        <r>  0.0001  0.0065  0.0194  0.0217  0.0000  0.0000  0.0000  0.0000  0.0000 </r>
       </set>
       <set comment="band 46">
        <r>  0.0000  0.0006  0.0041  0.0130  0.0008  0.0016  0.0011  0.0038  0.0023 </r>
        <r>  0.0000  0.0055  0.0130  0.0508  0.0005  0.0006  0.0016  0.0001  0.0003 </r>
        <r>  0.0000  0.0024  0.0004  0.0012  0.0029  0.0006  0.0081  0.0020  0.0005 </r>
        <r>  0.0000  0.0154  0.0404  0.1554  0.0001  0.0000  0.0001  0.0001  0.0000 </r>
        <r>  0.0001  0.0174  0.0258  0.0048  0.0000  0.0000  0.0000  0.0000  0.0000 </r>
        <r>  0.0001  0.0439  0.0002  0.0041  0.0000  0.0000  0.0000  0.0000  0.0000 </r>
        <r>  0.0002  0.0092  0.0177  0.0038  0.0000  0.0000  0.0000  0.0000  0.0000 </r>
        <r>  0.0001  0.0277  0.0015  0.0013  0.0000  0.0000  0.0000  0.0000  0.0000 </r>
       </set>
       <set comment="band 47">
        <r>  0.0000  0.0002  0.0014  0.0003  0.0193  0.0025  0.0025  0.0033  0.0001 </r>
        <r>  0.0203  0.0000  0.0000  0.0000  0.0021  0.0126  0.0071  0.0083  0.0001 </r>
        <r>  0.0000  0.0001  0.0005  0.0001  0.0182  0.0045  0.0027  0.0015  0.0022 </r>
        <r>  0.0016  0.0000  0.0000  0.0000  0.0026  0.0167  0.0092  0.0108  0.0001 </r>
        <r>  0.0051  0.0052  0.0116  0.0042  0.0000  0.0000  0.0000  0.0000  0.0000 </r>
        <r>  0.0050  0.0031  0.0152  0.0021  0.0000  0.0000  0.0000  0.0000  0.0000 </r>
        <r>  0.0042  0.0061  0.0152  0.0018  0.0000  0.0000  0.0000  0.0000  0.0000 </r>
        <r>  0.0041  0.0031  0.0161  0.0041  0.0000  0.0000  0.0000  0.0000  0.0000 </r>
       </set>
       <set comment="band 48">
        <r>  0.0019  0.0049  0.0260  0.0810  0.0003  0.0011  0.0011  0.0006  0.0000 </r>
        <r>  0.0000  0.0005  0.0013  0.0031  0.0038  0.0011  0.0047  0.0043  0.0012 </r>
        <r>  0.0026  0.0020  0.0162  0.0591  0.0005  0.0016  0.0020  0.0008  0.0001 </r>
        <r>  0.0000  0.0022  0.0015  0.0011  0.0069  0.0021  0.0061  0.0026  0.0006 </r>
        <r>  0.0023  0.0097  0.0058  0.0001  0.0000  0.0000  0.0000  0.0000  0.0000 </r>
        <r>  0.0018  0.0102  0.0078  0.0000  0.0000  0.0000  0.0000  0.0000  0.0000 </r>
        <r>  0.0018  0.0240  0.0043  0.0001  0.0000  0.0000  0.0000  0.0000  0.0000 </r>
        <r>  0.0019  0.0140  0.0136  0.0009  0.0000  0.0000  0.0000  0.0000  0.0000 </r>
       </set>
      </set>
     </set>
    </set>
   </array>
  </projected>
 </calculation>
 <structure name="finalpos" >
  <crystal>
   <varray name="basis" >
    <v>       4.93901185       0.00000000      -4.41848219 </v>
    <v>      -0.98753537       4.83927803      -4.41848219 </v>
    <v>       0.00000000       0.00000000       6.62697690 </v>
   </varray>
   <i name="volume">    158.39304179 </i>
   <varray name="rec_basis" >
    <v>       0.20246965       0.04131731       0.00000000 </v>
    <v>       0.00000000       0.20664239       0.00000000 </v>
    <v>       0.13499497       0.16532509       0.15089837 </v>
   </varray>
  </crystal>
  <varray name="positions" >
   <v>       0.75000000       0.25000000       0.50000000 </v>
   <v>       0.00000000       0.00000000       0.00000000 </v>
   <v>       0.25000000       0.75000000       0.50000000 </v>
   <v>       0.50000000       0.50000000       0.00000000 </v>
   <v>       0.36432714       0.37124032       0.47758056 </v>
   <v>       0.89365977       0.88674759       0.52241944 </v>
   <v>       0.11325241       0.63567286       0.00691218 </v>
   <v>       0.62875968       0.10634023       0.99308782 </v>
  </varray>
 </structure>
</modeling>
