 vasp.6.4.2 20Jul23 (build Mar 15 2024 16:31:38) complex                        
  
 executed on             LinuxIFC date 2025.03.19  12:03:11
 running  120 mpi-ranks, on    3 nodes
 distrk:  each k-point on  120 cores,    1 groups
 distr:  one band on NCORE=  10 cores,   12 groups


--------------------------------------------------------------------------------------------------------


 INCAR:
   ALGO = Normal
   EDIFF = 1e-05
   ENAUG = 1360
   ENCUT = 680
   GGA = Pe
   HFSCREEN = 0.2
   ISMEAR = -5
   ISPIN = 2
   LAECHG = True
   LASPH = True
   LCHARG = True
   LDAU = False
   LELF = False
   LHFCALC = True
   LMAXMIX = 4
   LMIXTAU = True
   LORBIT = 11
   LREAL = False
   LVTOT = True
   LWAVE = True
   MAGMOM = 20*0.6
   NCORE = 10
   NELM = 200
   NSW = 0
   PREC = Accurate
   PRECFOCK = Fast
   SIGMA = 0.2

 POTCAR:    PAW_PBE Sb 06Sep2000                  
 POTCAR:    PAW_PBE Se 06Sep2000                  
 WARNING: For LVTOT=.TRUE., VASP.5.x writes the TOTAL local potential to the
     file LOCPOT. If you want only the Hartree contributions, use LVHAR=.TRUE.
     instead. 

 POTCAR:    PAW_PBE Sb 06Sep2000                  
   VRHFIN =Sb: s2p3                                                                                 
   LEXCH  = PE                                                                                      
   EATOM  =   149.9515 eV,   11.0211 Ry                                                             
                                                                                                    
   TITEL  = PAW_PBE Sb 06Sep2000                                                                    
   LULTRA =        F    use ultrasoft PP ?                                                          
   IUNSCR =        1    unscreen: 0-lin 1-nonlin 2-no                                               
   RPACOR =    2.200    partial core radius                                                         
   POMASS =  121.750; ZVAL   =    5.000    mass and valenz                                          
   RCORE  =    2.300    outmost cutoff radius                                                       
   RWIGS  =    2.980; RWIGS  =    1.577    wigner-seitz radius (au A)                               
   ENMAX  =  172.069; ENMIN  =  129.052 eV                                                          
   ICORE  =        3    local potential                                                             
   LCOR   =        T    correct aug charges                                                         
   LPAW   =        T    paw PP                                                                      
   EAUG   =  380.513                                                                                
   DEXC   =    0.000                                                                                
   RMAX   =    2.346    core radius for proj-oper                                                   
   RAUG   =    1.300    factor for augmentation sphere                                              
   RDEP   =    2.360    radius for radial grids                                                     
   RDEPT  =    2.192    core radius for aug-charge                                                  
                                                                                                    
   Atomic configuration                                                                             
   13 entries                                                                                       
     n  l   j            E        occ.                                                              
     1  0  0.50    -30298.2797   2.0000                                                             
     2  0  0.50     -4610.2252   2.0000                                                             
     2  1  1.50     -4138.3407   6.0000                                                             
     3  0  0.50      -903.8815   2.0000                                                             
     3  1  1.50      -750.1337   6.0000                                                             
     3  2  2.50      -515.7092  10.0000                                                             
     4  0  0.50      -148.8034   2.0000                                                             
     4  1  1.50      -101.7581   6.0000                                                             
     4  2  2.50       -33.5048  10.0000                                                             
     5  0  0.50       -12.8298   2.0000                                                             
     5  1  0.50        -4.8276   3.0000                                                             
     5  2  1.50        -4.0817   0.0000                                                             
     4  3  2.50        -4.0817   0.0000                                                             
   Description                                                                                      
     l       E           TYP  RCUT    TYP  RCUT                                                     
     0    -12.8297861     23  2.300                                                                 
     0     13.6058260     23  2.300                                                                 
     1     -4.8275512     23  2.300                                                                 
     1     -0.7245443     23  2.300                                                                 
     2     -4.0817478     23  2.300                                                                 
     3     -1.3605826     23  2.300                                                                 
  local pseudopotential read in
  partial core-charges read in
  partial kinetic energy density read in
  atomic valenz-charges read in
  non local Contribution for L=           0  read in
    real space projection operators read in
  non local Contribution for L=           0  read in
    real space projection operators read in
  non local Contribution for L=           1  read in
    real space projection operators read in
  non local Contribution for L=           1  read in
    real space projection operators read in
  non local Contribution for L=           2  read in
    real space projection operators read in
    PAW grid and wavefunctions read in
 
   number of l-projection  operators is LMAX  =           5
   number of lm-projection operators is LMMAX =          13
 
 POTCAR:    PAW_PBE Se 06Sep2000                  
   VRHFIN =Se: s2p4                                                                                 
   LEXCH  = PE                                                                                      
   EATOM  =   257.1286 eV,   18.8984 Ry                                                             
                                                                                                    
   TITEL  = PAW_PBE Se 06Sep2000                                                                    
   LULTRA =        F    use ultrasoft PP ?                                                          
   IUNSCR =        1    unscreen: 0-lin 1-nonlin 2-no                                               
   RPACOR =    1.900    partial core radius                                                         
   POMASS =   78.960; ZVAL   =    6.000    mass and valenz                                          
   RCORE  =    2.100    outmost cutoff radius                                                       
   RWIGS  =    2.200; RWIGS  =    1.164    wigner-seitz radius (au A)                               
   ENMAX  =  211.555; ENMIN  =  158.666 eV                                                          
   ICORE  =        3    local potential                                                             
   LCOR   =        T    correct aug charges                                                         
   LPAW   =        T    paw PP                                                                      
   EAUG   =  446.842                                                                                
   DEXC   =    0.000                                                                                
   RMAX   =    2.147    core radius for proj-oper                                                   
   RAUG   =    1.300    factor for augmentation sphere                                              
   RDEP   =    2.177    radius for radial grids                                                     
   RDEPT  =    1.928    core radius for aug-charge                                                  
                                                                                                    
   Atomic configuration                                                                             
   10 entries                                                                                       
     n  l   j            E        occ.                                                              
     1  0  0.50    -12503.4787   2.0000                                                             
     2  0  0.50     -1606.9547   2.0000                                                             
     2  1  1.50     -1413.3140   6.0000                                                             
     3  0  0.50      -213.4885   2.0000                                                             
     3  1  1.50      -152.9538   6.0000                                                             
     3  2  2.50       -53.1221  10.0000                                                             
     4  0  0.50       -17.2865   2.0000                                                             
     4  1  0.50        -6.5110   4.0000                                                             
     4  2  2.50        -6.8029   0.0000                                                             
     4  3  2.50        -6.8029   0.0000                                                             
   Description                                                                                      
     l       E           TYP  RCUT    TYP  RCUT                                                     
     0    -17.2865377     23  2.100                                                                 
     0    -15.3094411     23  2.100                                                                 
     1     -6.5110275     23  2.100                                                                 
     1     -0.0695192     23  2.100                                                                 
     2     -6.8029130     23  2.100                                                                 
     3     -1.3605826      7  2.100                                                                 
  local pseudopotential read in
  partial core-charges read in
  partial kinetic energy density read in
  atomic valenz-charges read in
  non local Contribution for L=           0  read in
    real space projection operators read in
  non local Contribution for L=           0  read in
    real space projection operators read in
  non local Contribution for L=           1  read in
    real space projection operators read in
  non local Contribution for L=           1  read in
    real space projection operators read in
  non local Contribution for L=           2  read in
    real space projection operators read in
    PAW grid and wavefunctions read in
 
   number of l-projection  operators is LMAX  =           5
   number of lm-projection operators is LMMAX =          13
 
 -----------------------------------------------------------------------------
|                                                                             |
|               ----> ADVICE to this user running VASP <----                  |
|                                                                             |
|     You have a (more or less) 'large supercell' and for larger cells it     |
|     might be more efficient to use real-space projection operators.         |
|     Therefore, try LREAL= Auto in the INCAR file.                           |
|     Mind: For very accurate calculation, you might also keep the            |
|     reciprocal projection scheme (i.e. LREAL=.FALSE.).                      |
|                                                                             |
 -----------------------------------------------------------------------------

  PAW_PBE Sb 06Sep2000                  :
 energy of atom  1       EATOM= -149.9515
 kinetic energy error for atom=    0.0002 (will be added to EATOM!!)
  PAW_PBE Se 06Sep2000                  :
 energy of atom  2       EATOM= -257.1286
 kinetic energy error for atom=    0.0004 (will be added to EATOM!!)
 
 
 POSCAR: Sb8 Se12
  positions in direct lattice
  No initial velocities read in
 exchange correlation table for  LEXCH =        8
   RHO(1)=    0.500       N(1)  =     2000
   RHO(2)=  100.500       N(2)  =     4000
 


--------------------------------------------------------------------------------------------------------


 ion  position               nearest neighbor table
   1  0.750  0.038  0.140-   9 2.59  13 2.81  13 2.81  10 2.99  10 2.99
   2  0.250  0.962  0.860-  10 2.59  14 2.81  14 2.81   9 2.99   9 2.99
   3  0.250  0.538  0.360-  11 2.59  15 2.81  15 2.81  12 2.99  12 2.99
   4  0.750  0.462  0.640-  12 2.59  16 2.81  16 2.81  11 2.99  11 2.99
   5  0.250  0.330  0.034-  13 2.66  20 2.68  20 2.68   9 3.27   9 3.27
   6  0.750  0.670  0.966-  14 2.66  19 2.68  19 2.68  10 3.27  10 3.27
   7  0.750  0.830  0.466-  15 2.66  18 2.68  18 2.68  11 3.27  11 3.27
   8  0.250  0.170  0.534-  16 2.66  17 2.68  17 2.68  12 3.27  12 3.27
   9  0.750  0.128  0.948-   1 2.59   2 2.99   2 2.99   5 3.27   5 3.27
  10  0.250  0.872  0.052-   2 2.59   1 2.99   1 2.99   6 3.27   6 3.27
  11  0.250  0.628  0.552-   3 2.59   4 2.99   4 2.99   7 3.27   7 3.27
  12  0.750  0.372  0.448-   4 2.59   3 2.99   3 2.99   8 3.27   8 3.27
  13  0.250  0.192  0.205-   5 2.66   1 2.81   1 2.81
  14  0.750  0.808  0.795-   6 2.66   2 2.81   2 2.81
  15  0.750  0.692  0.295-   7 2.66   3 2.81   3 2.81
  16  0.250  0.308  0.705-   8 2.66   4 2.81   4 2.81
  17  0.750  0.054  0.627-   8 2.68   8 2.68
  18  0.250  0.946  0.373-   7 2.68   7 2.68
  19  0.250  0.554  0.873-   6 2.68   6 2.68
  20  0.750  0.446  0.127-   5 2.68   5 2.68
 
  LATTYP: Found a simple orthorhombic cell.
 ALAT       =     4.0015568700
 B/A-ratio  =     2.9272680835
 C/A-ratio  =     3.0893158842
  
  Lattice vectors:
  
 A1 = (   4.0015568700,   0.0000000000,   0.0000000000)
 A2 = (  -0.0000000000,  11.7136297100,   0.0000000000)
 A3 = (   0.0000000000,   0.0000000000,  12.3620732000)


Analysis of symmetry for initial positions (statically):
=====================================================================
 Subroutine PRICEL returns:
 Original cell was already a primitive cell.
 

 Routine SETGRP: Setting up the symmetry group for a 
 simple orthorhombic supercell.


 Subroutine GETGRP returns: Found  8 space group operations
 (whereof  2 operations were pure point group operations)
 out of a pool of  8 trial point group operations.


The static configuration has the point symmetry S_2 .
 The point group associated with its full space group is D_2h.


Analysis of symmetry for dynamics (positions and initial velocities):
=====================================================================
 Subroutine PRICEL returns:
 Original cell was already a primitive cell.
 

 Routine SETGRP: Setting up the symmetry group for a 
 simple orthorhombic supercell.


 Subroutine GETGRP returns: Found  8 space group operations
 (whereof  2 operations were pure point group operations)
 out of a pool of  8 trial point group operations.


The dynamic configuration has the point symmetry S_2 .
 The point group associated with its full space group is D_2h.


Analysis of structural, dynamic, and magnetic symmetry:
=====================================================================
 Subroutine PRICEL returns:
 Original cell was already a primitive cell.
 

 Routine SETGRP: Setting up the symmetry group for a 
 simple orthorhombic supercell.


 Subroutine GETGRP returns: Found  8 space group operations
 (whereof  2 operations were pure point group operations)
 out of a pool of  8 trial point group operations.


The overall configuration has the point symmetry S_2 .
 The point group associated with its full space group is D_2h.


 Subroutine INISYM returns: Found  8 space group operations
 (whereof  2 operations are pure point group operations),
 and found     1 'primitive' translations


----------------------------------------------------------------------------------------

                                     Primitive cell                                     

  volume of cell :     579.4444

  direct lattice vectors                    reciprocal lattice vectors
     4.001556870  0.000000000  0.000000000     0.249902733  0.000000000  0.000000000
    -0.000000000 11.713629710  0.000000000     0.000000000  0.085370634  0.000000000
     0.000000000  0.000000000 12.362073200    -0.000000000 -0.000000000  0.080892580

  length of vectors
     4.001556870 11.713629710 12.362073200     0.249902733  0.085370634  0.080892580

  position of ions in fractional coordinates (direct lattice)
     0.750000000  0.038094600  0.140322370
     0.250000000  0.961905400  0.859677630
     0.250000000  0.538094600  0.359677630
     0.750000000  0.461905400  0.640322370
     0.250000000  0.329591380  0.033812840
     0.750000000  0.670408620  0.966187160
     0.750000000  0.829591380  0.466187160
     0.250000000  0.170408620  0.533812840
     0.750000000  0.127525360  0.948345200
     0.250000000  0.872474640  0.051654800
     0.250000000  0.627525360  0.551654800
     0.750000000  0.372474640  0.448345200
     0.250000000  0.192100670  0.205331320
     0.750000000  0.807899330  0.794668680
     0.750000000  0.692100670  0.294668680
     0.250000000  0.307899330  0.705331320
     0.750000000  0.054098690  0.627349150
     0.250000000  0.945901310  0.372650850
     0.250000000  0.554098690  0.872650850
     0.750000000  0.445901310  0.127349150

  ion indices of the primitive-cell ions
   primitive index   ion index
                 1           1
                 2           2
                 3           3
                 4           4
                 5           5
                 6           6
                 7           7
                 8           8
                 9           9
                10          10
                11          11
                12          12
                13          13
                14          14
                15          15
                16          16
                17          17
                18          18
                19          19
                20          20

----------------------------------------------------------------------------------------

 
 
 KPOINTS: pymatgen with grid density = 548 / numbe

Automatic generation of k-mesh.
 Grid dimensions read from file:
 generate k-points for:    6    2    2

 Generating k-lattice:

  Cartesian coordinates                     Fractional coordinates (reciprocal lattice)
     0.041650456  0.000000000  0.000000000     0.166666667 -0.000000000  0.000000000
     0.000000000  0.042685317  0.000000000     0.000000000  0.500000000  0.000000000
    -0.000000000 -0.000000000  0.040446290    -0.000000000 -0.000000000  0.500000000

  Length of vectors
     0.041650456  0.042685317  0.040446290

  Shift w.r.t. Gamma in fractional coordinates (k-lattice)
     0.000000000  0.000000000  0.000000000

 TETIRR: Found     72 inequivalent tetrahedra from      144
 
 Subroutine IBZKPT returns following result:
 ===========================================
 
 Found     16 irreducible k-points:
 
 Following reciprocal coordinates:
            Coordinates               Weight
  0.000000  0.000000  0.000000      1.000000
  0.166667  0.000000  0.000000      2.000000
  0.333333 -0.000000  0.000000      2.000000
  0.500000  0.000000  0.000000      1.000000
  0.000000  0.500000  0.000000      1.000000
  0.166667  0.500000  0.000000      2.000000
  0.333333  0.500000  0.000000      2.000000
  0.500000  0.500000  0.000000      1.000000
  0.000000  0.000000  0.500000      1.000000
  0.166667 -0.000000  0.500000      2.000000
  0.333333 -0.000000  0.500000      2.000000
  0.500000 -0.000000  0.500000      1.000000
  0.000000  0.500000  0.500000      1.000000
  0.166667  0.500000  0.500000      2.000000
  0.333333  0.500000  0.500000      2.000000
  0.500000  0.500000  0.500000      1.000000
 
 Following cartesian coordinates:
            Coordinates               Weight
  0.000000  0.000000  0.000000      1.000000
  0.041650  0.000000  0.000000      2.000000
  0.083301  0.000000  0.000000      2.000000
  0.124951  0.000000  0.000000      1.000000
  0.000000  0.042685  0.000000      1.000000
  0.041650  0.042685  0.000000      2.000000
  0.083301  0.042685  0.000000      2.000000
  0.124951  0.042685  0.000000      1.000000
 -0.000000 -0.000000  0.040446      1.000000
  0.041650  0.000000  0.040446      2.000000
  0.083301  0.000000  0.040446      2.000000
  0.124951  0.000000  0.040446      1.000000
 -0.000000  0.042685  0.040446      1.000000
  0.041650  0.042685  0.040446      2.000000
  0.083301  0.042685  0.040446      2.000000
  0.124951  0.042685  0.040446      1.000000
 
 
 Subroutine IBZKPT_HF returns following result:
 ==============================================
 
 Found     24 k-points in 1st BZ
 the following     24 k-points will be used (e.g. in the exchange kernel)
 Following reciprocal coordinates:   # in IRBZ
  0.000000  0.000000  0.000000    0.04166667   1 t-inv F
  0.166667  0.000000  0.000000    0.04166667   2 t-inv F
  0.333333 -0.000000  0.000000    0.04166667   3 t-inv F
  0.500000  0.000000  0.000000    0.04166667   4 t-inv F
  0.000000  0.500000  0.000000    0.04166667   5 t-inv F
  0.166667  0.500000  0.000000    0.04166667   6 t-inv F
  0.333333  0.500000  0.000000    0.04166667   7 t-inv F
  0.500000  0.500000  0.000000    0.04166667   8 t-inv F
  0.000000  0.000000  0.500000    0.04166667   9 t-inv F
  0.166667 -0.000000  0.500000    0.04166667  10 t-inv F
  0.333333 -0.000000  0.500000    0.04166667  11 t-inv F
  0.500000 -0.000000  0.500000    0.04166667  12 t-inv F
  0.000000  0.500000  0.500000    0.04166667  13 t-inv F
  0.166667  0.500000  0.500000    0.04166667  14 t-inv F
  0.333333  0.500000  0.500000    0.04166667  15 t-inv F
  0.500000  0.500000  0.500000    0.04166667  16 t-inv F
 -0.166667 -0.000000  0.000000    0.04166667   2 t-inv F
 -0.333333  0.000000  0.000000    0.04166667   3 t-inv F
 -0.166667 -0.500000  0.000000    0.04166667   6 t-inv F
 -0.333333 -0.500000  0.000000    0.04166667   7 t-inv F
 -0.166667  0.000000 -0.500000    0.04166667  10 t-inv F
 -0.333333  0.000000 -0.500000    0.04166667  11 t-inv F
 -0.166667 -0.500000 -0.500000    0.04166667  14 t-inv F
 -0.333333 -0.500000 -0.500000    0.04166667  15 t-inv F


--------------------------------------------------------------------------------------------------------




 Dimension of arrays:
   k-points           NKPTS =     16   k-points in BZ     NKDIM =     24   number of bands    NBANDS=     84
   number of dos      NEDOS =    301   number of ions     NIONS =     20
   non local maximal  LDIM  =      5   non local SUM 2l+1 LMDIM =     13
   total plane-waves  NPLWV = 388800
   max r-space proj   IRMAX =      1   max aug-charges    IRDMAX=  37433
   dimension x,y,z NGX =    36 NGY =  100 NGZ =  108
   dimension x,y,z NGXF=    72 NGYF=  200 NGZF=  216
   support grid    NGXF=    72 NGYF=  200 NGZF=  216
   ions per type =               8  12
   NGX,Y,Z   is equivalent  to a cutoff of  14.96, 14.19, 14.52 a.u.
   NGXF,Y,Z  is equivalent  to a cutoff of  29.91, 28.39, 29.05 a.u.

 SYSTEM =  unknown system                          
 POSCAR =  Sb8 Se12                                

 Startparameter for this run:
   NWRITE =      2    write-flag & timer
   PREC   = accura    normal or accurate (medium, high low for compatibility)
   ISTART =      0    job   : 0-new  1-cont  2-samecut
   ICHARG =      2    charge: 1-file 2-atom 10-const
   ISPIN  =      2    spin polarized calculation?
   LNONCOLLINEAR =      F non collinear calculations
   LSORBIT =      F    spin-orbit coupling
   INIWAV =      1    electr: 0-lowe 1-rand  2-diag
   LASPH  =      T    aspherical Exc in radial PAW
 Electronic Relaxation 1
   ENCUT  =  680.0 eV  49.98 Ry    7.07 a.u.   8.51 24.91 26.28*2*pi/ulx,y,z
   ENINI  =  680.0     initial cutoff
   ENAUG  = 1360.0 eV  augmentation charge cutoff
   NELM   =    200;   NELMIN=  2; NELMDL= -5     # of ELM steps 
   EDIFF  = 0.1E-04   stopping-criterion for ELM
   LREAL  =      F    real-space projection
   NLSPLINE    = F    spline interpolate recip. space projectors
   LCOMPAT=      F    compatible to vasp.4.4
   GGA_COMPAT  = T    GGA compatible to vasp.4.4-vasp.4.6
   LMAXPAW     = -100 max onsite density
   LMAXMIX     =    4 max onsite mixed and CHGCAR
   VOSKOWN=      0    Vosko Wilk Nusair interpolation
   ROPT   =    0.00000   0.00000
 Ionic relaxation
   EDIFFG = 0.1E-03   stopping-criterion for IOM
   NSW    =      0    number of steps for IOM
   NBLOCK =      1;   KBLOCK =      1    inner block; outer block 
   IBRION =     -1    ionic relax: 0-MD 1-quasi-New 2-CG
   NFREE  =      0    steps in history (QN), initial steepest desc. (CG)
   ISIF   =      0    stress and relaxation
   IWAVPR =     10    prediction:  0-non 1-charg 2-wave 3-comb
   ISYM   =      3    0-nonsym 1-usesym 2-fastsym
   LCORR  =      T    Harris-Foulkes like correction to forces

   POTIM  = 0.5000    time-step for ionic-motion
   TEIN   =    0.0    initial temperature
   TEBEG  =    0.0;   TEEND  =   0.0 temperature during run
   SMASS  =  -3.00    Nose mass-parameter (am)
   estimated Nose-frequenzy (Omega)   =  0.10E-29 period in steps = 0.13E+47 mass=  -0.366E-27a.u.
   SCALEE = 1.0000    scale energy and forces
   NPACO  =    256;   APACO  = 10.0  distance and # of slots for P.C.
   PSTRESS=    0.0 pullay stress

  Mass of Ions in am
   POMASS = 121.75 78.96
  Ionic Valenz
   ZVAL   =   5.00  6.00
  Atomic Wigner-Seitz radii
   RWIGS  =  -1.00 -1.00
  virtual crystal weights 
   VCA    =   1.00  1.00
   NELECT =     112.0000    total number of electrons
   NUPDOWN=      -1.0000    fix difference up-down

 DOS related values:
   EMIN   =  10.00;   EMAX   =-10.00  energy-range for DOS
   EFERMI =   0.00;   METHOD = LEGACY      
   ISMEAR =    -5;   SIGMA  =   0.20  broadening in eV -4-tet -1-fermi 0-gaus

 Electronic relaxation 2 (details)
   IALGO  =     38    algorithm
   LDIAG  =      T    sub-space diagonalisation (order eigenvalues)
   LSUBROT=      F    optimize rotation matrix (better conditioning)
   TURBO    =      0    0=normal 1=particle mesh
   IRESTART =      0    0=no restart 2=restart with 2 vectors
   NREBOOT  =      0    no. of reboots
   NMIN     =      0    reboot dimension
   EREF     =   0.00    reference energy to select bands
   IMIX   =      1    mixing-type and parameters
     AMIX     =   0.40;   BMIX     =  1.00
     AMIX_MAG =   1.60;   BMIX_MAG =  1.00
     AMIN     =   0.10
     WC   =   100.;   INIMIX=   1;  MIXPRE=   1;  MAXMIX= -45

 Intra band minimization:
   WEIMIN = 0.0000     energy-eigenvalue tresh-hold
   EBREAK =  0.30E-07  absolut break condition
   DEPER  =   0.30     relativ break condition  

   TIME   =   0.40     timestep for ELM

  volume/ion in A,a.u.               =      28.97       195.51
  Fermi-wavevector in a.u.,A,eV,Ry     =   0.946550  1.788720 12.190234  0.895957
  Thomas-Fermi vector in A             =   2.074558
 
 Write flags
   LWAVE        =      T    write WAVECAR
   LDOWNSAMPLE  =      F    k-point downsampling of WAVECAR
   LCHARG       =      T    write CHGCAR
   LVTOT        =      T    write LOCPOT, total local potential
   LVHAR        =      F    write LOCPOT, Hartree potential only
   LELF         =      F    write electronic localiz. function (ELF)
   LORBIT       =     11    0 simple, 1 ext, 2 COOP (PROOUT), +10 PAW based schemes


 Dipole corrections
   LMONO  =      F    monopole corrections only (constant potential shift)
   LDIPOL =      F    correct potential (dipole corrections)
   IDIPOL =      0    1-x, 2-y, 3-z, 4-all directions 
   EPSILON=  1.0000000 bulk dielectric constant

 Exchange correlation treatment:
   GGA     =    PE    GGA type
   LEXCH   =     8    internal setting for exchange type
   LIBXC   =     F    Libxc                    
   VOSKOWN =     0    Vosko Wilk Nusair interpolation
   EXXOEP  =     0    0=HF, 1=EXX-LHF (local Hartree Fock) 2=EXX OEP
   LHFCALC =     T    Hartree Fock is set to
   LSYMGRAD=     F    symmetrize gradient (conserves proper symmetry)
   PRECFOCK=fast      Normal, Fast or Accurate (Low or Medium for compatibility)
   LRHFCALC=     F    long range Hartree Fock
   LRSCOR  =     F    long range correlation only (use DFT for short range part)
   LTHOMAS =     F    Thomas Fermi screening in HF
   LMODELHF=     F    short range full HF, long range fraction AEXX
   FOCKCORR=     1    mode to apply convergence corrections
   LFOCKACE=     T    use Adeptively-Compressed-Exchange operator
   ENCUT4O =  -1.0   cutoff for four orbital integrals eV
   LMAXFOCK=     4    L truncation for augmentation on plane wave grid
   LMAXFOCKAE=  -1    L truncation for all-electron charge restoration on plane wave grid
   NMAXFOCKAE=   1    number of basis functions for all-electron charge restoration
   LFOCKAEDFT=     F  apply the AE augmentation even for DFT
   NKREDX  =     1    reduce k-point grid by
   NKREDY  =     1    reduce k-point grid by
   NKREDZ  =     1    reduce k-point grid by
   SHIFTRED=     F    shift reduced grid of Gamma
   HFKIDENT=     F    idential grid for each k-point
   ODDONLY =     F    use only odd q-grid points
   EVENONLY=     F    use only even q-grid points
   HFALPHA =   -1.0000 decay constant for conv. correction
   MCALPHA =    0.0000 extent of test-charge in conv. correction in multipole expansion
   AEXX    =    0.2500 exact exchange contribution
   HFSCREEN=    0.2000 screening length (either q_TF or 0.3 A-1)
   HFSCREENC=   0.2000 screening length for correlation (either q_TF or 0.3 A-1)
   HFRCUT  =    0.0000 spherical cutoff for potential kernel
   ALDAX   =    0.7500 LDA exchange part
   AGGAX   =    0.7500 GGA exchange part
   ALDAC   =    1.0000 LDA correlation
   AGGAC   =    1.0000 GGA correlation
   ENCUTFOCK=  -1.0 apply spherical cutoff to Coloumb kernel
   NBANDSGWLOW=     1    first orbital included in HF term
   NBLOCK_FOCK=    64    blocking factor in FOCK_ACC

 Linear response parameters
   LEPSILON=     F    determine dielectric tensor
   LRPA    =     F    only Hartree local field effects (RPA)
   LNABLA  =     F    use nabla operator in PAW spheres
   LVEL    =     F    velocity operator in full k-point grid
   CSHIFT  =0.1000    complex shift for real part using Kramers Kronig
   OMEGAMAX=  -1.0    maximum frequency
   DEG_THRESHOLD= 0.2000000E-02 threshold for treating states as degnerate
   RTIME   =   -0.100 relaxation time in fs
  (WPLASMAI=    0.000 imaginary part of plasma frequency in eV, 0.658/RTIME)
   DFIELD  = 0.0000000 0.0000000 0.0000000 field for delta impulse in time
 
  Optional k-point grid parameters
   LKPOINTS_OPT  =     F    use optional k-point grid
   KPOINTS_OPT_MODE=     1    mode for optional k-point grid
 
 Orbital magnetization related:
   ORBITALMAG=     F  switch on orbital magnetization
   LCHIMAG   =     F  perturbation theory with respect to B field
   DQ        =  0.001000  dq finite difference perturbation B field
   LLRAUG    =     F  two centre corrections for induced B field
   LBONE     =     F  B-component reconstruction in AE one-centre
   LVGVCALC  =     T  calculate vGv susceptibility
   LVGVAPPL  =     F  apply vGv susceptibility instead of pGv for G=0

 Random number generation:
   RANDOM_GENERATOR = DEFAULT
   PCG_SEED         = not used


--------------------------------------------------------------------------------------------------------


 Static calculation
 charge density and potential will be updated during run
 spin polarized calculation
 Variant of blocked Davidson
 Davidson routine will perform the subspace rotation
 perform sub-space diagonalisation
    after iterative eigenvector-optimisation
 Kerker-like  mixing scheme
 using additional bands           28
 reciprocal scheme for non local part
 use partial core corrections
 calculate Harris-corrections to forces 
   (improved forces if not selfconsistent)
 use gradient corrections 
 use of overlap-Matrix (Vanderbilt PP)
 Fermi weights with tetrahedron method with Bloechl corrections


--------------------------------------------------------------------------------------------------------


  energy-cutoff  :      680.00
  volume of cell :      579.44
      direct lattice vectors                 reciprocal lattice vectors
     4.001556870  0.000000000  0.000000000     0.249902733  0.000000000  0.000000000
    -0.000000000 11.713629710  0.000000000     0.000000000  0.085370634  0.000000000
     0.000000000  0.000000000 12.362073200    -0.000000000 -0.000000000  0.080892580

  length of vectors
     4.001556870 11.713629710 12.362073200     0.249902733  0.085370634  0.080892580


 
 k-points in units of 2pi/SCALE and weight: pymatgen with grid density = 548 / numbe
   0.00000000  0.00000000  0.00000000       0.042
   0.04165046  0.00000000  0.00000000       0.083
   0.08330091  0.00000000  0.00000000       0.083
   0.12495137  0.00000000  0.00000000       0.042
   0.00000000  0.04268532  0.00000000       0.042
   0.04165046  0.04268532  0.00000000       0.083
   0.08330091  0.04268532  0.00000000       0.083
   0.12495137  0.04268532  0.00000000       0.042
  -0.00000000 -0.00000000  0.04044629       0.042
   0.04165046  0.00000000  0.04044629       0.083
   0.08330091  0.00000000  0.04044629       0.083
   0.12495137  0.00000000  0.04044629       0.042
  -0.00000000  0.04268532  0.04044629       0.042
   0.04165046  0.04268532  0.04044629       0.083
   0.08330091  0.04268532  0.04044629       0.083
   0.12495137  0.04268532  0.04044629       0.042
 
 k-points in reciprocal lattice and weights: pymatgen with grid density = 548 / numbe
   0.00000000  0.00000000  0.00000000       0.042
   0.16666667  0.00000000  0.00000000       0.083
   0.33333333 -0.00000000  0.00000000       0.083
   0.50000000  0.00000000  0.00000000       0.042
   0.00000000  0.50000000  0.00000000       0.042
   0.16666667  0.50000000  0.00000000       0.083
   0.33333333  0.50000000  0.00000000       0.083
   0.50000000  0.50000000  0.00000000       0.042
   0.00000000  0.00000000  0.50000000       0.042
   0.16666667 -0.00000000  0.50000000       0.083
   0.33333333 -0.00000000  0.50000000       0.083
   0.50000000 -0.00000000  0.50000000       0.042
   0.00000000  0.50000000  0.50000000       0.042
   0.16666667  0.50000000  0.50000000       0.083
   0.33333333  0.50000000  0.50000000       0.083
   0.50000000  0.50000000  0.50000000       0.042
 
 position of ions in fractional coordinates (direct lattice) 
   0.75000000  0.03809460  0.14032237
   0.25000000  0.96190540  0.85967763
   0.25000000  0.53809460  0.35967763
   0.75000000  0.46190540  0.64032237
   0.25000000  0.32959138  0.03381284
   0.75000000  0.67040862  0.96618716
   0.75000000  0.82959138  0.46618716
   0.25000000  0.17040862  0.53381284
   0.75000000  0.12752536  0.94834520
   0.25000000  0.87247464  0.05165480
   0.25000000  0.62752536  0.55165480
   0.75000000  0.37247464  0.44834520
   0.25000000  0.19210067  0.20533132
   0.75000000  0.80789933  0.79466868
   0.75000000  0.69210067  0.29466868
   0.25000000  0.30789933  0.70533132
   0.75000000  0.05409869  0.62734915
   0.25000000  0.94590131  0.37265085
   0.25000000  0.55409869  0.87265085
   0.75000000  0.44590131  0.12734915
 
 position of ions in cartesian coordinates  (Angst):
   3.00116765  0.44622604  1.73467541
   1.00038922 11.26740367 10.62739779
   1.00038922  6.30304089  4.44636119
   3.00116765  5.41058882  7.91571201
   1.00038922  3.86071138  0.41799680
   3.00116765  7.85291833 11.94407640
   3.00116765  9.71752624  5.76303980
   1.00038922  1.99610347  6.59903340
   3.00116765  1.49378485 11.72351278
   1.00038922 10.21984486  0.63856042
   1.00038922  7.35059970  6.81959702
   3.00116765  4.36303001  5.54247618
   1.00038922  2.25019612  2.53832081
   3.00116765  9.46343359  9.82375239
   3.00116765  8.10701097  3.64271579
   1.00038922  3.60661874  8.71935741
   3.00116765  0.63369202  7.75533611
   1.00038922 11.07993769  4.60673709
   1.00038922  6.49050688 10.78777369
   3.00116765  5.22312283  1.57429951
 


--------------------------------------------------------------------------------------------------------


 k-point   1 :   0.0000 0.0000 0.0000  plane waves:   23349
 k-point   2 :   0.1667 0.0000 0.0000  plane waves:   23365
 k-point   3 :   0.3333-0.0000 0.0000  plane waves:   23321
 k-point   4 :   0.5000 0.0000 0.0000  plane waves:   23238
 k-point   5 :   0.0000 0.5000 0.0000  plane waves:   23390
 k-point   6 :   0.1667 0.5000 0.0000  plane waves:   23370
 k-point   7 :   0.3333 0.5000 0.0000  plane waves:   23302
 k-point   8 :   0.5000 0.5000 0.0000  plane waves:   23240
 k-point   9 :   0.0000 0.0000 0.5000  plane waves:   23420
 k-point  10 :   0.1667-0.0000 0.5000  plane waves:   23362
 k-point  11 :   0.3333-0.0000 0.5000  plane waves:   23308
 k-point  12 :   0.5000-0.0000 0.5000  plane waves:   23260
 k-point  13 :   0.0000 0.5000 0.5000  plane waves:   23332
 k-point  14 :   0.1667 0.5000 0.5000  plane waves:   23368
 k-point  15 :   0.3333 0.5000 0.5000  plane waves:   23324
 k-point  16 :   0.5000 0.5000 0.5000  plane waves:   23272

 maximum and minimum number of plane-waves per node :      2356     2302

 maximum number of plane-waves:     23420
 maximum index in each direction: 
   IXMAX=    8   IYMAX=   24   IZMAX=   26
   IXMIN=   -9   IYMIN=  -25   IZMIN=  -26


 parallel 3D FFT for wavefunctions:
    minimum data exchange during FFTs selected (reduces bandwidth)
 parallel 3D FFT for charge:
    minimum data exchange during FFTs selected (reduces bandwidth)


 FFT grid for exact exchange (Hartree Fock) 
  NGX = 20; NGY = 60; NGZ = 64

 
 Radii for the augmentation spheres in the non-local exchange
 for species   1 augmentation radius   1.581 (default was   1.171)
       energy cutoff for augmentation   2720.0
 for species   2 augmentation radius   1.459 (default was   1.081)
       energy cutoff for augmentation   2720.0

 real space projection operators:
  total allocation   :       7471.88 KBytes
  max/ min on nodes  :        834.38        687.50

 Maximum index for augmentation-charges in exchange          252
  SETUP_FOCK is finished

 total amount of memory used by VASP MPI-rank0    59192. kBytes
=======================================================================

   base      :      30000. kBytes
   nonl-proj :       8623. kBytes
   fftplans  :       3122. kBytes
   grid      :       6950. kBytes
   one-center:         32. kBytes
   HF        :         67. kBytes
   nonlr-proj:       1797. kBytes
   wavefun   :       8601. kBytes
 
     INWAV:  cpu time      0.0001: real time      0.0004
 initial charge density was supplied:
 charge density of overlapping atoms calculated
 number of electron     112.0000000 magnetization      12.0000000
 keeping initial charge density in first step


--------------------------------------------------------------------------------------------------------


 Maximum index for augmentation-charges          349 (set IRDMAX)


--------------------------------------------------------------------------------------------------------


 First call to EWALD:  gamma=   0.213
 Maximum number of real-space cells 5x 2x 2
 Maximum number of reciprocal cells 2x 4x 4

    FEWALD:  cpu time      0.0025: real time      0.0027


--------------------------------------- Ionic step        1  -------------------------------------------




--------------------------------------- Iteration      1(   1)  ---------------------------------------


    POTLOK:  cpu time      0.0841: real time      0.1391
    SETDIJ:  cpu time      0.4152: real time      0.4163
     EDDAV:  cpu time      2.9173: real time      2.9715
 BZINTS: Fermi energy:   13.925834;  112.000000 electrons
         Band energy: 0.548626E+03;  BLOECHL correction:   -0.078130
       DOS:  cpu time      0.0185: real time      0.0186
    --------------------------------------------
      LOOP:  cpu time      3.4351: real time      3.5456

 eigenvalue-minimisations  :  5376
 total energy-change (2. order) :-0.1493675E+05  (-0.4835318E+04)
 number of electron     112.0000000 magnetization      12.0000000
 augmentation part      112.0000000 magnetization      12.0000000

 Free energy of the ion-electron system (eV)
  ---------------------------------------------------
  alpha Z        PSCENC =       116.37456510
  Ewald energy   TEWEN  =     -4031.12465643
  -Hartree energ DENC   =      -480.58316384
  -exchange      EXHF   =         0.00000000
  -V(xc)+E(xc)   XCENC  =      -376.25511299
  PAW double counting   =      3832.50745354   -18799.75065889
  entropy T*S    EENTRO =         0.00000000
  eigenvalues    EBANDS =       548.62626540
  atomic energy  EATOM  =      4253.45924273
  Solvation  Ediel_sol  =         0.00000000
  ---------------------------------------------------
  free energy    TOTEN  =    -14936.74606539 eV

  energy without entropy =   -14936.74606539  energy(sigma->0) =   -14936.74606539
  exchange ACFDT corr.  =         0.00000000  see jH, gK, PRB 81, 115126


--------------------------------------------------------------------------------------------------------




--------------------------------------- Iteration      1(   2)  ---------------------------------------


     EDDAV:  cpu time      3.0312: real time      3.0429
 BZINTS: Fermi energy:    4.736393;  112.000000 electrons
         Band energy:-0.201112E+03;  BLOECHL correction:   -0.002196
       DOS:  cpu time      0.0151: real time      0.0151
    --------------------------------------------
      LOOP:  cpu time      3.0462: real time      3.0579

 eigenvalue-minimisations  :  7404
 total energy-change (2. order) :-0.7497378E+03  (-0.7198452E+03)
 number of electron     112.0000000 magnetization      12.0000000
 augmentation part      112.0000000 magnetization      12.0000000

 Free energy of the ion-electron system (eV)
  ---------------------------------------------------
  alpha Z        PSCENC =       116.37456510
  Ewald energy   TEWEN  =     -4031.12465643
  -Hartree energ DENC   =      -480.58316384
  -exchange      EXHF   =         0.00000000
  -V(xc)+E(xc)   XCENC  =      -376.25511299
  PAW double counting   =      3832.50745354   -18799.75065889
  entropy T*S    EENTRO =         0.00000000
  eigenvalues    EBANDS =      -201.11157712
  atomic energy  EATOM  =      4253.45924273
  Solvation  Ediel_sol  =         0.00000000
  ---------------------------------------------------
  free energy    TOTEN  =    -15686.48390792 eV

  energy without entropy =   -15686.48390792  energy(sigma->0) =   -15686.48390792
  exchange ACFDT corr.  =         0.00000000  see jH, gK, PRB 81, 115126


--------------------------------------------------------------------------------------------------------




--------------------------------------- Iteration      1(   3)  ---------------------------------------


     EDDAV:  cpu time      2.8752: real time      2.8991
 BZINTS: Fermi energy:    3.061547;  112.000000 electrons
         Band energy:-0.286695E+03;  BLOECHL correction:    0.000000
       DOS:  cpu time      0.0067: real time      0.0067
    --------------------------------------------
      LOOP:  cpu time      2.8819: real time      2.9059

 eigenvalue-minimisations  :  6540
 total energy-change (2. order) :-0.8558332E+02  (-0.8381628E+02)
 number of electron     112.0000000 magnetization      12.0000000
 augmentation part      112.0000000 magnetization      12.0000000

 Free energy of the ion-electron system (eV)
  ---------------------------------------------------
  alpha Z        PSCENC =       116.37456510
  Ewald energy   TEWEN  =     -4031.12465643
  -Hartree energ DENC   =      -480.58316384
  -exchange      EXHF   =         0.00000000
  -V(xc)+E(xc)   XCENC  =      -376.25511299
  PAW double counting   =      3832.50745354   -18799.75065889
  entropy T*S    EENTRO =         0.00000000
  eigenvalues    EBANDS =      -286.69489988
  atomic energy  EATOM  =      4253.45924273
  Solvation  Ediel_sol  =         0.00000000
  ---------------------------------------------------
  free energy    TOTEN  =    -15772.06723067 eV

  energy without entropy =   -15772.06723067  energy(sigma->0) =   -15772.06723067
  exchange ACFDT corr.  =         0.00000000  see jH, gK, PRB 81, 115126


--------------------------------------------------------------------------------------------------------




--------------------------------------- Iteration      1(   4)  ---------------------------------------


     EDDAV:  cpu time      2.8034: real time      2.8263
 BZINTS: Fermi energy:    2.962064;  112.000000 electrons
         Band energy:-0.288844E+03;  BLOECHL correction:    0.000000
       DOS:  cpu time      0.0066: real time      0.0066
    --------------------------------------------
      LOOP:  cpu time      2.8101: real time      2.8330

 eigenvalue-minimisations  :  6168
 total energy-change (2. order) :-0.2149302E+01  (-0.2135484E+01)
 number of electron     112.0000000 magnetization      12.0000000
 augmentation part      112.0000000 magnetization      12.0000000

 Free energy of the ion-electron system (eV)
  ---------------------------------------------------
  alpha Z        PSCENC =       116.37456510
  Ewald energy   TEWEN  =     -4031.12465643
  -Hartree energ DENC   =      -480.58316384
  -exchange      EXHF   =         0.00000000
  -V(xc)+E(xc)   XCENC  =      -376.25511299
  PAW double counting   =      3832.50745354   -18799.75065889
  entropy T*S    EENTRO =         0.00000000
  eigenvalues    EBANDS =      -288.84420220
  atomic energy  EATOM  =      4253.45924273
  Solvation  Ediel_sol  =         0.00000000
  ---------------------------------------------------
  free energy    TOTEN  =    -15774.21653300 eV

  energy without entropy =   -15774.21653300  energy(sigma->0) =   -15774.21653300
  exchange ACFDT corr.  =         0.00000000  see jH, gK, PRB 81, 115126


--------------------------------------------------------------------------------------------------------




--------------------------------------- Iteration      1(   5)  ---------------------------------------


    POTLOK:  cpu time      0.1395: real time      0.1552
    SETDIJ:  cpu time      0.9305: real time      0.9329
     EDDAV:  cpu time    175.7043: real time    176.1774
 BZINTS: Fermi energy:    3.321176;  112.000000 electrons
         Band energy:-0.310007E+03;  BLOECHL correction:    0.000000
       DOS:  cpu time      0.0067: real time      0.0069
    CHARGE:  cpu time      0.1409: real time      0.1414
    MIXING:  cpu time      0.0014: real time      0.0014
    --------------------------------------------
      LOOP:  cpu time    176.9233: real time    177.4153

 eigenvalue-minimisations  :  5376
 total energy-change (2. order) : 0.1567274E+05  (-0.5279900E+01)
 number of electron     111.9999998 magnetization      -7.2000000
 augmentation part      -20.0168794 magnetization      -7.1816152

 Free energy of the ion-electron system (eV)
  ---------------------------------------------------
  alpha Z        PSCENC =       116.37456510
  Ewald energy   TEWEN  =     -4031.12465643
  -Hartree energ DENC   =      -480.58316384
  -exchange      EXHF   =       176.97788836
  -V(xc)+E(xc)   XCENC  =      -306.70569233
  PAW double counting   =      3757.50824271    -3277.37366881
  entropy T*S    EENTRO =         0.00000000
  eigenvalues    EBANDS =      -310.00660669
  atomic energy  EATOM  =      4253.45924273
  Solvation  Ediel_sol  =         0.00000000
  ---------------------------------------------------
  free energy    TOTEN  =      -101.47384921 eV

  energy without entropy =     -101.47384921  energy(sigma->0) =     -101.47384921
  exchange ACFDT corr.  =         0.00000000  see jH, gK, PRB 81, 115126


--------------------------------------------------------------------------------------------------------




--------------------------------------- Iteration      1(   6)  ---------------------------------------


    POTLOK:  cpu time      0.1398: real time      0.1516
    SETDIJ:  cpu time      0.9315: real time      0.9338
     EDDAV:  cpu time    176.7257: real time    177.2016
 BZINTS: Fermi energy:    3.524908;  112.000000 electrons
         Band energy:-0.281514E+03;  BLOECHL correction:    0.000000
       DOS:  cpu time      0.0066: real time      0.0068
    CHARGE:  cpu time      0.1600: real time      0.1604
    MIXING:  cpu time      0.0009: real time      0.0009
    --------------------------------------------
      LOOP:  cpu time    177.9646: real time    178.4551

 eigenvalue-minimisations  :  5640
 total energy-change (2. order) : 0.3074902E+01  (-0.6461961E+00)
 number of electron     111.9999998 magnetization       4.3200000
 augmentation part      -19.4833586 magnetization       4.2727034

 Free energy of the ion-electron system (eV)
  ---------------------------------------------------
  alpha Z        PSCENC =       116.37456510
  Ewald energy   TEWEN  =     -4031.12465643
  -Hartree energ DENC   =      -504.80655289
  -exchange      EXHF   =       174.75950640
  -V(xc)+E(xc)   XCENC  =      -304.94359169
  PAW double counting   =      7132.96231817    -6653.56579063
  entropy T*S    EENTRO =         0.00000000
  eigenvalues    EBANDS =      -281.51398787
  atomic energy  EATOM  =      4253.45924273
  Solvation  Ediel_sol  =         0.00000000
  ---------------------------------------------------
  free energy    TOTEN  =       -98.39894711 eV

  energy without entropy =      -98.39894711  energy(sigma->0) =      -98.39894711
  exchange ACFDT corr.  =         0.00000000  see jH, gK, PRB 81, 115126


--------------------------------------------------------------------------------------------------------




--------------------------------------- Iteration      1(   7)  ---------------------------------------


    POTLOK:  cpu time      0.1565: real time      0.1682
    SETDIJ:  cpu time      0.9317: real time      0.9341
     EDDAV:  cpu time    176.9883: real time    177.4424
 BZINTS: Fermi energy:    3.617249;  112.000000 electrons
         Band energy:-0.272961E+03;  BLOECHL correction:    0.000000
       DOS:  cpu time      0.0063: real time      0.0066
    CHARGE:  cpu time      0.1382: real time      0.1385
    MIXING:  cpu time      0.0009: real time      0.0009
    --------------------------------------------
      LOOP:  cpu time    178.2219: real time    178.6906

 eigenvalue-minimisations  :  5808
 total energy-change (2. order) :-0.7419705E+00  (-0.3094456E+00)
 number of electron     111.9999997 magnetization      -2.5920000
 augmentation part      -19.3295106 magnetization      -2.5650208

 Free energy of the ion-electron system (eV)
  ---------------------------------------------------
  alpha Z        PSCENC =       116.37456510
  Ewald energy   TEWEN  =     -4031.12465643
  -Hartree energ DENC   =      -511.02735216
  -exchange      EXHF   =       171.33755982
  -V(xc)+E(xc)   XCENC  =      -304.35446515
  PAW double counting   =     11785.86879668   -11306.71403800
  entropy T*S    EENTRO =         0.00000000
  eigenvalues    EBANDS =      -272.96057019
  atomic energy  EATOM  =      4253.45924273
  Solvation  Ediel_sol  =         0.00000000
  ---------------------------------------------------
  free energy    TOTEN  =       -99.14091761 eV

  energy without entropy =      -99.14091761  energy(sigma->0) =      -99.14091761
  exchange ACFDT corr.  =         0.00000000  see jH, gK, PRB 81, 115126


--------------------------------------------------------------------------------------------------------




--------------------------------------- Iteration      1(   8)  ---------------------------------------


    POTLOK:  cpu time      0.1385: real time      0.1506
    SETDIJ:  cpu time      0.9257: real time      0.9280
     EDDAV:  cpu time    177.2577: real time    177.7170
 BZINTS: Fermi energy:    3.604411;  112.000000 electrons
         Band energy:-0.273269E+03;  BLOECHL correction:    0.000000
       DOS:  cpu time      0.0064: real time      0.0066
    CHARGE:  cpu time      0.1383: real time      0.1386
    MIXING:  cpu time      0.0005: real time      0.0005
    --------------------------------------------
      LOOP:  cpu time    178.4671: real time    178.9414

 eigenvalue-minimisations  :  6084
 total energy-change (2. order) :-0.9185344E-01  (-0.2780519E-01)
 number of electron     111.9999997 magnetization       1.5552000
 augmentation part      -19.3492456 magnetization       1.5415842

 Free energy of the ion-electron system (eV)
  ---------------------------------------------------
  alpha Z        PSCENC =       116.37456510
  Ewald energy   TEWEN  =     -4031.12465643
  -Hartree energ DENC   =      -509.16176591
  -exchange      EXHF   =       169.55549896
  -V(xc)+E(xc)   XCENC  =      -304.15932747
  PAW double counting   =     15807.30164778   -15328.20914531
  entropy T*S    EENTRO =         0.00000000
  eigenvalues    EBANDS =      -273.26883049
  atomic energy  EATOM  =      4253.45924273
  Solvation  Ediel_sol  =         0.00000000
  ---------------------------------------------------
  free energy    TOTEN  =       -99.23277105 eV

  energy without entropy =      -99.23277105  energy(sigma->0) =      -99.23277105
  exchange ACFDT corr.  =         0.00000000  see jH, gK, PRB 81, 115126


--------------------------------------------------------------------------------------------------------




--------------------------------------- Iteration      1(   9)  ---------------------------------------


    POTLOK:  cpu time      0.1369: real time      0.2509
    SETDIJ:  cpu time      0.9290: real time      0.9313
     EDDAV:  cpu time    177.2514: real time    177.7040
 BZINTS: Fermi energy:    3.582150;  112.000000 electrons
         Band energy:-0.274774E+03;  BLOECHL correction:    0.000000
       DOS:  cpu time      0.0067: real time      0.0069
    CHARGE:  cpu time      0.1381: real time      0.1384
    MIXING:  cpu time      0.0010: real time      0.0010
    --------------------------------------------
      LOOP:  cpu time    178.4630: real time    179.0324

 eigenvalue-minimisations  :  5928
 total energy-change (2. order) : 0.1863283E-01  (-0.8186018E-02)
 number of electron     111.9999996 magnetization      -0.9331200
 augmentation part      -19.3886248 magnetization      -0.9249904

 Free energy of the ion-electron system (eV)
  ---------------------------------------------------
  alpha Z        PSCENC =       116.37456510
  Ewald energy   TEWEN  =     -4031.12465643
  -Hartree energ DENC   =      -507.54169817
  -exchange      EXHF   =       169.40169508
  -V(xc)+E(xc)   XCENC  =      -304.06439393
  PAW double counting   =     18420.27829629   -17941.22367828
  entropy T*S    EENTRO =         0.00000000
  eigenvalues    EBANDS =      -274.77351060
  atomic energy  EATOM  =      4253.45924273
  Solvation  Ediel_sol  =         0.00000000
  ---------------------------------------------------
  free energy    TOTEN  =       -99.21413822 eV

  energy without entropy =      -99.21413822  energy(sigma->0) =      -99.21413822
  exchange ACFDT corr.  =         0.00000000  see jH, gK, PRB 81, 115126


--------------------------------------------------------------------------------------------------------




--------------------------------------- Iteration      1(  10)  ---------------------------------------


    POTLOK:  cpu time      0.1356: real time      0.1485
    SETDIJ:  cpu time      0.9298: real time      0.9322
     EDDAV:  cpu time    176.7015: real time    177.1622
 BZINTS: Fermi energy:    3.580191;  112.000000 electrons
         Band energy:-0.275264E+03;  BLOECHL correction:    0.000000
       DOS:  cpu time      0.0067: real time      0.0069
    CHARGE:  cpu time      0.1413: real time      0.1416
    MIXING:  cpu time      0.0005: real time      0.0005
    --------------------------------------------
      LOOP:  cpu time    177.9153: real time    178.3918

 eigenvalue-minimisations  :  5880
 total energy-change (2. order) :-0.1040014E-01  (-0.4579170E-02)
 number of electron     111.9999996 magnetization       0.5598720
 augmentation part      -19.4184450 magnetization       0.5533977

 Free energy of the ion-electron system (eV)
  ---------------------------------------------------
  alpha Z        PSCENC =       116.37456510
  Ewald energy   TEWEN  =     -4031.12465643
  -Hartree energ DENC   =      -507.35335484
  -exchange      EXHF   =       169.63057344
  -V(xc)+E(xc)   XCENC  =      -303.96158925
  PAW double counting   =     19909.40169161   -19430.38693290
  entropy T*S    EENTRO =         0.00000000
  eigenvalues    EBANDS =      -275.26407782
  atomic energy  EATOM  =      4253.45924273
  Solvation  Ediel_sol  =         0.00000000
  ---------------------------------------------------
  free energy    TOTEN  =       -99.22453837 eV

  energy without entropy =      -99.22453837  energy(sigma->0) =      -99.22453837
  exchange ACFDT corr.  =         0.00000000  see jH, gK, PRB 81, 115126


--------------------------------------------------------------------------------------------------------




--------------------------------------- Iteration      1(  11)  ---------------------------------------


    POTLOK:  cpu time      0.1349: real time      0.1502
    SETDIJ:  cpu time      0.9314: real time      0.9337
     EDDAV:  cpu time    176.5314: real time    177.0215
 BZINTS: Fermi energy:    3.574916;  112.000000 electrons
         Band energy:-0.274952E+03;  BLOECHL correction:    0.000000
       DOS:  cpu time      0.0066: real time      0.0069
    CHARGE:  cpu time      0.1412: real time      0.1415
    MIXING:  cpu time      0.0005: real time      0.0005
    --------------------------------------------
      LOOP:  cpu time    177.7460: real time    178.2544

 eigenvalue-minimisations  :  5880
 total energy-change (2. order) :-0.3910336E-02  (-0.8995187E-03)
 number of electron     111.9999996 magnetization      -0.3359232
 augmentation part      -19.4266780 magnetization      -0.3331648

 Free energy of the ion-electron system (eV)
  ---------------------------------------------------
  alpha Z        PSCENC =       116.37456510
  Ewald energy   TEWEN  =     -4031.12465643
  -Hartree energ DENC   =      -507.89166222
  -exchange      EXHF   =       169.79346939
  -V(xc)+E(xc)   XCENC  =      -303.87085377
  PAW double counting   =     20765.15852989   -20286.17556364
  entropy T*S    EENTRO =         0.00000000
  eigenvalues    EBANDS =      -274.95151974
  atomic energy  EATOM  =      4253.45924273
  Solvation  Ediel_sol  =         0.00000000
  ---------------------------------------------------
  free energy    TOTEN  =       -99.22844870 eV

  energy without entropy =      -99.22844870  energy(sigma->0) =      -99.22844870
  exchange ACFDT corr.  =         0.00000000  see jH, gK, PRB 81, 115126


--------------------------------------------------------------------------------------------------------




--------------------------------------- Iteration      1(  12)  ---------------------------------------


    POTLOK:  cpu time      0.1352: real time      0.1504
    SETDIJ:  cpu time      0.9302: real time      0.9325
     EDDAV:  cpu time    176.9070: real time    177.3628
 BZINTS: Fermi energy:    3.578864;  112.000000 electrons
         Band energy:-0.274525E+03;  BLOECHL correction:    0.000000
       DOS:  cpu time      0.0067: real time      0.0069
    CHARGE:  cpu time      0.1580: real time      0.1584
    MIXING:  cpu time      0.0007: real time      0.0007
    --------------------------------------------
      LOOP:  cpu time    178.1378: real time    178.6116

 eigenvalue-minimisations  :  5904
 total energy-change (2. order) :-0.8940967E-03  (-0.2607433E-03)
 number of electron     111.9999996 magnetization       0.2015539
 augmentation part      -19.4288549 magnetization       0.1995919

 Free energy of the ion-electron system (eV)
  ---------------------------------------------------
  alpha Z        PSCENC =       116.37456510
  Ewald energy   TEWEN  =     -4031.12465643
  -Hartree energ DENC   =      -508.38247551
  -exchange      EXHF   =       169.81455280
  -V(xc)+E(xc)   XCENC  =      -303.80896117
  PAW double counting   =     21296.21917166   -20817.25570969
  entropy T*S    EENTRO =         0.00000000
  eigenvalues    EBANDS =      -274.52507229
  atomic energy  EATOM  =      4253.45924273
  Solvation  Ediel_sol  =         0.00000000
  ---------------------------------------------------
  free energy    TOTEN  =       -99.22934280 eV

  energy without entropy =      -99.22934280  energy(sigma->0) =      -99.22934280
  exchange ACFDT corr.  =         0.00000000  see jH, gK, PRB 81, 115126


--------------------------------------------------------------------------------------------------------




--------------------------------------- Iteration      1(  13)  ---------------------------------------


    POTLOK:  cpu time      0.1825: real time      0.1944
    SETDIJ:  cpu time      0.9531: real time      0.9555
     EDDAV:  cpu time    176.1829: real time    176.6386
 BZINTS: Fermi energy:    3.575447;  112.000000 electrons
         Band energy:-0.274250E+03;  BLOECHL correction:    0.000000
       DOS:  cpu time      0.0067: real time      0.0069
    CHARGE:  cpu time      0.1387: real time      0.1391
    MIXING:  cpu time      0.0006: real time      0.0006
    --------------------------------------------
      LOOP:  cpu time    177.4645: real time    177.9352

 eigenvalue-minimisations  :  5940
 total energy-change (2. order) :-0.5888176E-03  (-0.1119173E-03)
 number of electron     111.9999996 magnetization      -0.1209324
 augmentation part      -19.4293431 magnetization      -0.1197884

 Free energy of the ion-electron system (eV)
  ---------------------------------------------------
  alpha Z        PSCENC =       116.37456510
  Ewald energy   TEWEN  =     -4031.12465643
  -Hartree energ DENC   =      -508.65879604
  -exchange      EXHF   =       169.79043659
  -V(xc)+E(xc)   XCENC  =      -303.77385380
  PAW double counting   =     21633.50370346   -21154.55051099
  entropy T*S    EENTRO =         0.00000000
  eigenvalues    EBANDS =      -274.25006223
  atomic energy  EATOM  =      4253.45924273
  Solvation  Ediel_sol  =         0.00000000
  ---------------------------------------------------
  free energy    TOTEN  =       -99.22993162 eV

  energy without entropy =      -99.22993162  energy(sigma->0) =      -99.22993162
  exchange ACFDT corr.  =         0.00000000  see jH, gK, PRB 81, 115126


--------------------------------------------------------------------------------------------------------




--------------------------------------- Iteration      1(  14)  ---------------------------------------


    POTLOK:  cpu time      0.1377: real time      0.1517
    SETDIJ:  cpu time      0.9304: real time      0.9327
     EDDAV:  cpu time    175.6568: real time    176.1245
 BZINTS: Fermi energy:    3.578542;  112.000000 electrons
         Band energy:-0.274115E+03;  BLOECHL correction:    0.000000
       DOS:  cpu time      0.0068: real time      0.0068
    CHARGE:  cpu time      0.1743: real time      0.1747
    MIXING:  cpu time      0.0007: real time      0.0007
    --------------------------------------------
      LOOP:  cpu time    176.9066: real time    177.3910

 eigenvalue-minimisations  :  5844
 total energy-change (2. order) :-0.2807653E-03  (-0.3415117E-04)
 number of electron     111.9999996 magnetization       0.0725594
 augmentation part      -19.4298322 magnetization       0.0718695

 Free energy of the ion-electron system (eV)
  ---------------------------------------------------
  alpha Z        PSCENC =       116.37456510
  Ewald energy   TEWEN  =     -4031.12465643
  -Hartree energ DENC   =      -508.78863239
  -exchange      EXHF   =       169.77087532
  -V(xc)+E(xc)   XCENC  =      -303.75485069
  PAW double counting   =     21841.66209624   -21362.71420211
  entropy T*S    EENTRO =         0.00000000
  eigenvalues    EBANDS =      -274.11465014
  atomic energy  EATOM  =      4253.45924273
  Solvation  Ediel_sol  =         0.00000000
  ---------------------------------------------------
  free energy    TOTEN  =       -99.23021238 eV

  energy without entropy =      -99.23021238  energy(sigma->0) =      -99.23021238
  exchange ACFDT corr.  =         0.00000000  see jH, gK, PRB 81, 115126


--------------------------------------------------------------------------------------------------------




--------------------------------------- Iteration      1(  15)  ---------------------------------------


    POTLOK:  cpu time      0.1613: real time      0.1738
    SETDIJ:  cpu time      0.9686: real time      0.9710
     EDDAV:  cpu time    177.6672: real time    178.1257
 BZINTS: Fermi energy:    3.576363;  112.000000 electrons
         Band energy:-0.274044E+03;  BLOECHL correction:    0.000000
       DOS:  cpu time      0.0070: real time      0.0072
    CHARGE:  cpu time      0.1375: real time      0.1378
    MIXING:  cpu time      0.0005: real time      0.0005
    --------------------------------------------
      LOOP:  cpu time    178.9421: real time    179.4161

 eigenvalue-minimisations  :  5892
 total energy-change (2. order) :-0.1342738E-03  (-0.1226105E-04)
 number of electron     111.9999996 magnetization      -0.0435356
 augmentation part      -19.4304678 magnetization      -0.0431046

 Free energy of the ion-electron system (eV)
  ---------------------------------------------------
  alpha Z        PSCENC =       116.37456510
  Ewald energy   TEWEN  =     -4031.12465643
  -Hartree energ DENC   =      -508.86166303
  -exchange      EXHF   =       169.76519571
  -V(xc)+E(xc)   XCENC  =      -303.74365892
  PAW double counting   =     21965.31572873   -21486.37080526
  entropy T*S    EENTRO =         0.00000000
  eigenvalues    EBANDS =      -274.04429528
  atomic energy  EATOM  =      4253.45924273
  Solvation  Ediel_sol  =         0.00000000
  ---------------------------------------------------
  free energy    TOTEN  =       -99.23034666 eV

  energy without entropy =      -99.23034666  energy(sigma->0) =      -99.23034666
  exchange ACFDT corr.  =         0.00000000  see jH, gK, PRB 81, 115126


--------------------------------------------------------------------------------------------------------




--------------------------------------- Iteration      1(  16)  ---------------------------------------


    POTLOK:  cpu time      0.1363: real time      0.2235
    SETDIJ:  cpu time      0.9314: real time      0.9339
     EDDAV:  cpu time    175.4678: real time    175.9203
 BZINTS: Fermi energy:    3.577485;  112.000000 electrons
         Band energy:-0.273996E+03;  BLOECHL correction:    0.000000
       DOS:  cpu time      0.0067: real time      0.0070
    CHARGE:  cpu time      0.1381: real time      0.1385
    MIXING:  cpu time      0.0006: real time      0.0006
    --------------------------------------------
      LOOP:  cpu time    176.6810: real time    177.2238

 eigenvalue-minimisations  :  5640
 total energy-change (2. order) :-0.6904359E-04  (-0.4737448E-05)
 number of electron     111.9999996 magnetization       0.0261214
 augmentation part      -19.4308551 magnetization       0.0258655

 Free energy of the ion-electron system (eV)
  ---------------------------------------------------
  alpha Z        PSCENC =       116.37456510
  Ewald energy   TEWEN  =     -4031.12465643
  -Hartree energ DENC   =      -508.91598315
  -exchange      EXHF   =       169.76569142
  -V(xc)+E(xc)   XCENC  =      -303.73642716
  PAW double counting   =     22037.42653470   -21558.48342082
  entropy T*S    EENTRO =         0.00000000
  eigenvalues    EBANDS =      -273.99596208
  atomic energy  EATOM  =      4253.45924273
  Solvation  Ediel_sol  =         0.00000000
  ---------------------------------------------------
  free energy    TOTEN  =       -99.23041570 eV

  energy without entropy =      -99.23041570  energy(sigma->0) =      -99.23041570
  exchange ACFDT corr.  =         0.00000000  see jH, gK, PRB 81, 115126


--------------------------------------------------------------------------------------------------------




--------------------------------------- Iteration      1(  17)  ---------------------------------------


    POTLOK:  cpu time      0.1372: real time      0.1486
    SETDIJ:  cpu time      0.9267: real time      0.9290
     EDDAV:  cpu time    176.3218: real time    176.7739
 BZINTS: Fermi energy:    3.521256;  112.000000 electrons
         Band energy:-0.273958E+03;  BLOECHL correction:    0.000000
       DOS:  cpu time      0.0061: real time      0.0063
    CHARGE:  cpu time      0.1555: real time      0.1558
    MIXING:  cpu time      0.0007: real time      0.0007
    --------------------------------------------
      LOOP:  cpu time    177.5480: real time    178.0144

 eigenvalue-minimisations  :  4692
 total energy-change (2. order) :-0.3582383E-04  (-0.1927023E-05)
 number of electron     111.9999996 magnetization      -0.0156728
 augmentation part      -19.4310178 magnetization      -0.0155520

 Free energy of the ion-electron system (eV)
  ---------------------------------------------------
  alpha Z        PSCENC =       116.37456510
  Ewald energy   TEWEN  =     -4031.12465643
  -Hartree energ DENC   =      -508.95862434
  -exchange      EXHF   =       169.76668917
  -V(xc)+E(xc)   XCENC  =      -303.73159563
  PAW double counting   =     22079.99371144   -21601.05167679
  entropy T*S    EENTRO =         0.00000000
  eigenvalues    EBANDS =      -273.95810676
  atomic energy  EATOM  =      4253.45924273
  Solvation  Ediel_sol  =         0.00000000
  ---------------------------------------------------
  free energy    TOTEN  =       -99.23045152 eV

  energy without entropy =      -99.23045152  energy(sigma->0) =      -99.23045152
  exchange ACFDT corr.  =         0.00000000  see jH, gK, PRB 81, 115126


--------------------------------------------------------------------------------------------------------




--------------------------------------- Iteration      1(  18)  ---------------------------------------


    POTLOK:  cpu time      0.1595: real time      0.1745
    SETDIJ:  cpu time      0.9319: real time      0.9343
     EDDAV:  cpu time    176.1057: real time    176.5757
 BZINTS: Fermi energy:    3.521407;  112.000000 electrons
         Band energy:-0.273930E+03;  BLOECHL correction:    0.000000
       DOS:  cpu time      0.0060: real time      0.0062
    CHARGE:  cpu time      0.1383: real time      0.1387
    MIXING:  cpu time      0.0005: real time      0.0005
    --------------------------------------------
      LOOP:  cpu time    177.3421: real time    177.8299

 eigenvalue-minimisations  :  4104
 total energy-change (2. order) :-0.1901164E-04  (-0.8414030E-06)
 number of electron     111.9999996 magnetization       0.0094037
 augmentation part      -19.4310951 magnetization       0.0093148

 Free energy of the ion-electron system (eV)
  ---------------------------------------------------
  alpha Z        PSCENC =       116.37456510
  Ewald energy   TEWEN  =     -4031.12465643
  -Hartree energ DENC   =      -508.98939989
  -exchange      EXHF   =       169.76673804
  -V(xc)+E(xc)   XCENC  =      -303.72843698
  PAW double counting   =     22105.72504732   -21626.78361768
  entropy T*S    EENTRO =         0.00000000
  eigenvalues    EBANDS =      -273.92995274
  atomic energy  EATOM  =      4253.45924273
  Solvation  Ediel_sol  =         0.00000000
  ---------------------------------------------------
  free energy    TOTEN  =       -99.23047053 eV

  energy without entropy =      -99.23047053  energy(sigma->0) =      -99.23047053
  exchange ACFDT corr.  =         0.00000000  see jH, gK, PRB 81, 115126


--------------------------------------------------------------------------------------------------------




--------------------------------------- Iteration      1(  19)  ---------------------------------------


    POTLOK:  cpu time      0.1354: real time      0.1483
    SETDIJ:  cpu time      0.9265: real time      0.9289
     EDDAV:  cpu time    176.3415: real time    176.7944
 BZINTS: Fermi energy:    3.520790;  112.000000 electrons
         Band energy:-0.273910E+03;  BLOECHL correction:   -0.000000
       DOS:  cpu time      0.0060: real time      0.0062
    CHARGE:  cpu time      0.1376: real time      0.1381
    MIXING:  cpu time      0.0005: real time      0.0005
    --------------------------------------------
      LOOP:  cpu time    177.5476: real time    178.0164

 eigenvalue-minimisations  :  3780
 total energy-change (2. order) :-0.1020254E-04  (-0.3928526E-06)
 number of electron     111.9999996 magnetization      -0.0056422
 augmentation part      -19.4311304 magnetization      -0.0055965

 Free energy of the ion-electron system (eV)
  ---------------------------------------------------
  alpha Z        PSCENC =       116.37456510
  Ewald energy   TEWEN  =     -4031.12465643
  -Hartree energ DENC   =      -509.01024600
  -exchange      EXHF   =       169.76640436
  -V(xc)+E(xc)   XCENC  =      -303.72643828
  PAW double counting   =     22121.32552936   -21642.38441190
  entropy T*S    EENTRO =         0.00000000
  eigenvalues    EBANDS =      -273.91046966
  atomic energy  EATOM  =      4253.45924273
  Solvation  Ediel_sol  =         0.00000000
  ---------------------------------------------------
  free energy    TOTEN  =       -99.23048074 eV

  energy without entropy =      -99.23048074  energy(sigma->0) =      -99.23048074
  exchange ACFDT corr.  =         0.00000000  see jH, gK, PRB 81, 115126


--------------------------------------------------------------------------------------------------------




--------------------------------------- Iteration      1(  20)  ---------------------------------------


    POTLOK:  cpu time      0.1370: real time      0.1489
    SETDIJ:  cpu time      0.9300: real time      0.9324
     EDDAV:  cpu time    176.5533: real time    177.0369
 BZINTS: Fermi energy:    3.586766;  112.000000 electrons
         Band energy:-0.273897E+03;  BLOECHL correction:    0.000000
       DOS:  cpu time      0.0063: real time      0.0065
    --------------------------------------------
      LOOP:  cpu time    177.6266: real time    178.1248

 eigenvalue-minimisations  :  3468
 total energy-change (2. order) :-0.5479871E-05  (-0.1781305E-06)
 number of electron     111.9999996 magnetization      -0.0056422
 augmentation part      -19.4311304 magnetization      -0.0055965

 Free energy of the ion-electron system (eV)
  ---------------------------------------------------
  alpha Z        PSCENC =       116.37456510
  Ewald energy   TEWEN  =     -4031.12465643
  -Hartree energ DENC   =      -509.02400872
  -exchange      EXHF   =       169.76609116
  -V(xc)+E(xc)   XCENC  =      -303.72518370
  PAW double counting   =     22130.81055138   -21651.86959336
  entropy T*S    EENTRO =         0.00000000
  eigenvalues    EBANDS =      -273.89749436
  atomic energy  EATOM  =      4253.45924273
  Solvation  Ediel_sol  =         0.00000000
  ---------------------------------------------------
  free energy    TOTEN  =       -99.23048622 eV

  energy without entropy =      -99.23048622  energy(sigma->0) =      -99.23048622
  exchange ACFDT corr.  =         0.00000000  see jH, gK, PRB 81, 115126


--------------------------------------------------------------------------------------------------------




 average (electrostatic) potential at core
  the test charge radii are     1.1712  1.0808
  (the norm of the test charge is              1.0000)
       1 -85.3766       2 -85.3766       3 -85.3766       4 -85.3766       5 -85.4260
       6 -85.4260       7 -85.4260       8 -85.4260       9 -50.2114      10 -50.2114
      11 -50.2114      12 -50.2114      13 -50.3575      14 -50.3575      15 -50.3575
      16 -50.3575      17 -50.2432      18 -50.2432      19 -50.2432      20 -50.2432
 
 
 
 E-fermi :   3.5868     XC(G=0):  -7.5002     alpha+bet : -9.3892

 Fermi energy:         3.5867662183

 spin component 1

 k-point     1 :       0.0000    0.0000    0.0000
  band No.  band energies     occupation 
      1     -11.8985      1.00000
      2     -11.6680      1.00000
      3     -11.3180      1.00000
      4     -11.1931      1.00000
      5     -11.0617      1.00000
      6     -10.8922      1.00000
      7     -10.3352      1.00000
      8     -10.1621      1.00000
      9     -10.0537      1.00000
     10      -9.9222      1.00000
     11      -9.8702      1.00000
     12      -9.8015      1.00000
     13      -6.2607      1.00000
     14      -6.0627      1.00000
     15      -5.9586      1.00000
     16      -5.4997      1.00000
     17      -5.4188      1.00000
     18      -5.3669      1.00000
     19      -4.2877      1.00000
     20      -3.9553      1.00000
     21      -1.4640      1.00000
     22      -1.3530      1.00000
     23      -0.8708      1.00000
     24      -0.6840      1.00000
     25      -0.3924      1.00000
     26      -0.2385      1.00000
     27      -0.0988      1.00000
     28      -0.0284      1.00000
     29       0.2545      1.00000
     30       0.2601      1.00000
     31       0.6201      1.00000
     32       0.7566      1.00000
     33       0.7888      1.00000
     34       0.7995      1.00000
     35       1.0399      1.00000
     36       1.0950      1.00000
     37       1.0982      1.00000
     38       1.1446      1.00000
     39       1.3748      1.00000
     40       1.5078      1.00000
     41       1.8039      1.00000
     42       1.9946      1.00000
     43       2.0173      1.00000
     44       2.2201      1.00000
     45       2.2940      1.00000
     46       2.4070      1.00000
     47       2.4548      1.00000
     48       2.5957      1.00000
     49       2.6037      1.00000
     50       2.6609      1.00000
     51       2.8273      1.00000
     52       2.9279      1.00000
     53       3.1641      1.00000
     54       3.3935      1.00000
     55       3.4318      1.00000
     56       3.4718      1.00000
     57       5.2347      0.00000
     58       5.3144      0.00000
     59       5.3549      0.00000
     60       5.4826      0.00000
     61       5.8230      0.00000
     62       5.8882      0.00000
     63       6.3417      0.00000
     64       6.3822      0.00000
     65       6.5302      0.00000
     66       6.5389      0.00000
     67       6.6567      0.00000
     68       6.9242      0.00000
     69       6.9381      0.00000
     70       6.9712      0.00000
     71       7.0377      0.00000
     72       7.1699      0.00000
     73       7.3334      0.00000
     74       7.4024      0.00000
     75       7.8448      0.00000
     76       7.8726      0.00000
     77       8.0505      0.00000
     78       8.5642      0.00000
[...]
     17      -5.9178      1.00000
     18      -5.9178      1.00000
     19      -5.9178      1.00000
     20      -5.9178      1.00000
     21      -1.9569      1.00000
     22      -1.9569      1.00000
     23      -1.9569      1.00000
     24      -1.9569      1.00000
     25      -1.0805      1.00000
     26      -1.0805      1.00000
     27      -1.0805      1.00000
     28      -1.0805      1.00000
     29      -0.3932      1.00000
     30      -0.3932      1.00000
     31      -0.3932      1.00000
     32      -0.3932      1.00000
     33       0.1124      1.00000
     34       0.1124      1.00000
     35       0.1124      1.00000
     36       0.1124      1.00000
     37       0.6783      1.00000
     38       0.6783      1.00000
     39       0.6783      1.00000
     40       0.6783      1.00000
     41       1.0691      1.00000
     42       1.0691      1.00000
     43       1.0691      1.00000
     44       1.0691      1.00000
     45       1.8594      1.00000
     46       1.8594      1.00000
     47       1.8594      1.00000
     48       1.8594      1.00000
     49       2.2498      1.00000
     50       2.2498      1.00000
     51       2.2498      1.00000
     52       2.2498      1.00000
     53       2.6356      1.00000
     54       2.6356      1.00000
     55       2.6356      1.00000
     56       2.6356      1.00000
     57       5.8750      0.00000
     58       5.8750      0.00000
     59       5.8750      0.00000
     60       5.8750      0.00000
     61       6.4829      0.00000
     62       6.4829      0.00000
     63       6.4829      0.00000
     64       6.4829      0.00000
     65       7.2130      0.00000
     66       7.2130      0.00000
     67       7.2130      0.00000
     68       7.2130      0.00000
     69       7.7638      0.00000
     70       7.7638      0.00000
     71       7.7638      0.00000
     72       7.7638      0.00000
     73       8.3327      0.00000
     74       8.3327      0.00000
     75       8.3327      0.00000
     76       8.3327      0.00000
     77       8.9501      0.00000
     78       8.9501      0.00000
     79       8.9501      0.00000
     80       8.9501      0.00000
     81       9.5598      0.00000
     82       9.5598      0.00000
     83       9.5598      0.00000
     84       9.5598      0.00000


--------------------------------------------------------------------------------------------------------


 soft charge-density along one line, spin component           1
         0         1         2         3         4         5         6         7         8         9
 total charge-density along one line
 
 soft charge-density along one line, spin component           2
         0         1         2         3         4         5         6         7         8         9
 total charge-density along one line
 
 pseudopotential strength for first ion, spin component:           1
 38.930 -66.043   0.049  -0.050   0.000   0.079  -0.081   0.000
-66.043 114.344  -0.080   0.082  -0.000  -0.129   0.131  -0.000
  0.049  -0.080   8.913   0.006   0.000  14.226   0.009   0.000
 -0.050   0.082   0.006   8.910   0.000   0.009  14.220   0.000
  0.000  -0.000   0.000   0.000   8.918   0.000   0.000  14.233
  0.079  -0.129  14.226   0.009   0.000  22.703   0.014   0.000
 -0.081   0.131   0.009  14.220   0.000   0.014  22.695   0.000
  0.000  -0.000   0.000   0.000  14.233   0.000   0.000  22.714
  0.000  -0.000  -0.000  -0.000   0.005  -0.000  -0.000   0.008
  0.010  -0.015  -0.007   0.004  -0.000  -0.011   0.007  -0.000
 -0.006   0.009  -0.005  -0.004   0.000  -0.008  -0.007   0.000
  0.000  -0.000  -0.000  -0.000  -0.008  -0.000  -0.000  -0.014
  0.004  -0.006  -0.008  -0.001  -0.000  -0.013  -0.001  -0.000
 pseudopotential strength for first ion, spin component:           2
 38.930 -66.043   0.049  -0.050   0.000   0.079  -0.081   0.000
-66.043 114.344  -0.080   0.082  -0.000  -0.129   0.131  -0.000
  0.049  -0.080   8.913   0.006  -0.000  14.226   0.009  -0.000
 -0.050   0.082   0.006   8.910   0.000   0.009  14.220   0.000
  0.000  -0.000  -0.000   0.000   8.918  -0.000   0.000  14.233
  0.079  -0.129  14.226   0.009  -0.000  22.703   0.014  -0.000
 -0.081   0.131   0.009  14.220   0.000   0.014  22.695   0.000
  0.000  -0.000  -0.000   0.000  14.233  -0.000   0.000  22.714
  0.000  -0.000  -0.000  -0.000   0.005  -0.000  -0.000   0.008
  0.010  -0.015  -0.007   0.004  -0.000  -0.011   0.007  -0.000
 -0.006   0.009  -0.005  -0.004   0.000  -0.008  -0.007   0.000
  0.000  -0.000  -0.000  -0.000  -0.008  -0.000  -0.000  -0.014
  0.004  -0.006  -0.008  -0.001  -0.000  -0.013  -0.001  -0.000
 total augmentation occupancy for first ion, spin component:           1
  2.290   0.077  -0.393   0.427  -0.000   0.172  -0.187   0.000  -0.000  -0.020   0.022   0.000   0.001
  0.077   0.013   0.134  -0.139  -0.000  -0.064   0.067   0.000   0.000   0.002  -0.002  -0.000   0.000
 -0.393   0.134  12.794  -1.208  -0.000  -6.154   0.546   0.000   0.000  -0.106   0.006  -0.000  -0.051
  0.427  -0.139  -1.208  14.084   0.000   0.547  -6.790  -0.000   0.000   0.263  -0.333   0.000   0.064
 -0.000  -0.000  -0.000   0.000  12.098   0.000  -0.000  -5.851   0.182   0.000   0.000  -0.011   0.000
  0.172  -0.064  -6.154   0.547   0.000   2.965  -0.248  -0.000  -0.000   0.052  -0.003   0.000   0.025
 -0.187   0.067   0.546  -6.790  -0.000  -0.248   3.280   0.000  -0.000  -0.128   0.162  -0.000  -0.031
  0.000   0.000   0.000  -0.000  -5.851  -0.000   0.000   2.835  -0.088  -0.000  -0.000   0.006  -0.000
 -0.000   0.000   0.000   0.000   0.182  -0.000  -0.000  -0.088   0.037   0.000   0.000   0.013  -0.000
 -0.020   0.002  -0.106   0.263   0.000   0.052  -0.128  -0.000   0.000   0.024  -0.016   0.000   0.003
  0.022  -0.002   0.006  -0.333   0.000  -0.003   0.162  -0.000   0.000  -0.016   0.026   0.000  -0.003
  0.000  -0.000  -0.000   0.000  -0.011   0.000  -0.000   0.006   0.013   0.000   0.000   0.017  -0.000
  0.001   0.000  -0.051   0.064   0.000   0.025  -0.031  -0.000  -0.000   0.003  -0.003  -0.000   0.009
 total augmentation occupancy for first ion, spin component:           2
 -0.000   0.000  -0.000   0.000  -0.000   0.000  -0.000   0.000  -0.000   0.000  -0.000   0.000  -0.000
  0.000   0.000  -0.000   0.000  -0.000   0.000  -0.000   0.000   0.000   0.000   0.000  -0.000   0.000
 -0.000  -0.000   0.000  -0.000   0.000  -0.000   0.000  -0.000  -0.000   0.000   0.000   0.000   0.000
  0.000   0.000  -0.000   0.000  -0.000   0.000  -0.000   0.000  -0.000  -0.000   0.000   0.000  -0.000
 -0.000  -0.000   0.000  -0.000   0.000  -0.000   0.000  -0.000  -0.000  -0.000  -0.000   0.000  -0.000
  0.000   0.000  -0.000   0.000  -0.000   0.000  -0.000   0.000   0.000  -0.000  -0.000  -0.000  -0.000
 -0.000  -0.000   0.000  -0.000   0.000  -0.000   0.000  -0.000   0.000   0.000  -0.000  -0.000  -0.000
  0.000   0.000  -0.000   0.000  -0.000   0.000  -0.000   0.000   0.000   0.000   0.000  -0.000   0.000
 -0.000   0.000  -0.000  -0.000  -0.000   0.000   0.000   0.000  -0.000  -0.000  -0.000  -0.000  -0.000
  0.000   0.000   0.000  -0.000  -0.000  -0.000   0.000   0.000  -0.000  -0.000   0.000  -0.000  -0.000
 -0.000   0.000   0.000   0.000  -0.000  -0.000  -0.000   0.000  -0.000   0.000  -0.000  -0.000   0.000
  0.000  -0.000   0.000   0.000   0.000  -0.000  -0.000  -0.000  -0.000  -0.000  -0.000  -0.000  -0.000
 -0.000   0.000   0.000  -0.000  -0.000  -0.000  -0.000   0.000  -0.000  -0.000   0.000  -0.000  -0.000


------------------------ aborting loop because EDIFF is reached ----------------------------------------





 total charge

# of ion       s       p       d       tot
------------------------------------------
    1        1.323   1.026   0.066   2.415
    2        1.323   1.026   0.066   2.415
    3        1.323   1.026   0.066   2.415
    4        1.323   1.026   0.066   2.415
    5        1.315   1.046   0.062   2.422
    6        1.315   1.046   0.062   2.422
    7        1.315   1.046   0.062   2.422
    8        1.315   1.046   0.062   2.422
    9        1.492   2.334   0.028   3.854
   10        1.492   2.334   0.028   3.854
   11        1.492   2.334   0.028   3.854
   12        1.492   2.334   0.028   3.854
   13        1.496   2.321   0.028   3.846
   14        1.496   2.321   0.028   3.846
   15        1.496   2.321   0.028   3.846
   16        1.496   2.321   0.028   3.846
   17        1.491   2.330   0.024   3.846
   18        1.491   2.330   0.024   3.846
   19        1.491   2.330   0.024   3.846
   20        1.491   2.330   0.024   3.846
--------------------------------------------------
tot         28.470  36.231   0.831  65.533



 magnetization (x)

# of ion       s       p       d       tot
------------------------------------------
    1        0.000   0.000   0.000   0.000
    2        0.000   0.000   0.000   0.000
    3        0.000   0.000   0.000   0.000
    4        0.000   0.000   0.000   0.000
    5        0.000   0.000   0.000   0.000
    6        0.000   0.000   0.000   0.000
    7        0.000   0.000   0.000   0.000
    8        0.000   0.000   0.000   0.000
    9        0.000   0.000   0.000   0.000
   10        0.000   0.000   0.000   0.000
   11        0.000   0.000   0.000   0.000
   12        0.000   0.000   0.000   0.000
   13        0.000   0.000  -0.000   0.000
   14        0.000   0.000  -0.000   0.000
   15        0.000   0.000  -0.000   0.000
   16        0.000   0.000  -0.000   0.000
   17        0.000   0.000  -0.000   0.000
   18        0.000   0.000  -0.000   0.000
   19        0.000   0.000  -0.000   0.000
   20        0.000   0.000  -0.000   0.000
--------------------------------------------------
tot          0.000   0.000   0.000   0.000
 
    CHARGE:  cpu time      0.1373: real time      0.1376
    FORLOC:  cpu time      0.0027: real time      0.0027
    FORHF :  cpu time    147.3598: real time    147.7437
    FORNL :  cpu time      0.6376: real time      0.6394
    FORCOR:  cpu time      1.0561: real time      1.0590
    FORHAR:  cpu time      0.0113: real time      0.0118
    MIXING:  cpu time      0.0008: real time      0.0008
    OFIELD:  cpu time      0.0005: real time      0.0007

 VOLUME and BASIS-vectors are now :
 -----------------------------------------------------------------------------
  energy-cutoff  :      680.00
  volume of cell :      579.44
      direct lattice vectors                 reciprocal lattice vectors
     4.001556870  0.000000000  0.000000000     0.249902733  0.000000000  0.000000000
    -0.000000000 11.713629710  0.000000000     0.000000000  0.085370634  0.000000000
     0.000000000  0.000000000 12.362073200    -0.000000000 -0.000000000  0.080892580

  length of vectors
     4.001556870 11.713629710 12.362073200     0.249902733  0.085370634  0.080892580


 FORCES acting on ions
    electron-ion (+dipol)            ewald-force                    non-local-force                 convergence-correction
 -----------------------------------------------------------------------------------------------
   0.792E-07 0.148E+02 -.377E+02   0.112E-13 -.215E+02 0.447E+02   -.390E-15 0.653E+01 -.681E+01   0.615E-07 0.240E-04 0.161E-02
   -.609E-07 -.148E+02 0.377E+02   -.774E-14 0.215E+02 -.447E+02   0.390E-15 -.653E+01 0.681E+01   -.767E-07 -.250E-04 -.161E-02
   -.679E-07 0.148E+02 0.377E+02   -.537E-14 -.215E+02 -.447E+02   -.390E-15 0.653E+01 0.681E+01   0.438E-08 0.249E-04 -.161E-02
   -.797E-08 -.148E+02 -.377E+02   0.198E-14 0.215E+02 0.447E+02   0.390E-15 -.653E+01 -.681E+01   0.450E-07 -.231E-04 0.161E-02
   -.383E-07 -.129E+02 0.320E+02   -.532E-14 0.994E+01 -.424E+02   -.170E-15 0.285E+01 0.102E+02   0.653E-07 0.113E-02 -.134E-02
   0.412E-08 0.129E+02 -.320E+02   0.793E-14 -.994E+01 0.424E+02   0.170E-15 -.285E+01 -.102E+02   -.735E-07 -.113E-02 0.134E-02
   -.144E-06 -.129E+02 -.320E+02   0.751E-14 0.994E+01 0.424E+02   -.170E-15 0.285E+01 -.102E+02   -.997E-07 0.113E-02 0.134E-02
   0.230E-06 0.129E+02 0.320E+02   -.149E-13 -.994E+01 -.424E+02   0.170E-15 -.285E+01 0.102E+02   0.949E-07 -.113E-02 -.134E-02
   0.668E-07 -.443E+02 0.474E+02   -.128E-13 0.459E+02 -.493E+02   0.870E-16 -.146E+01 0.185E+01   -.625E-07 0.161E-02 -.101E-02
   -.446E-07 0.443E+02 -.474E+02   0.156E-13 -.459E+02 0.493E+02   -.870E-16 0.146E+01 -.185E+01   0.663E-07 -.161E-02 0.101E-02
   -.132E-06 -.443E+02 -.474E+02   -.593E-14 0.459E+02 0.493E+02   0.870E-16 -.146E+01 -.185E+01   0.286E-07 0.161E-02 0.101E-02
   0.975E-08 0.443E+02 0.474E+02   0.152E-13 -.459E+02 -.493E+02   -.870E-16 0.146E+01 0.185E+01   0.790E-07 -.161E-02 -.101E-02
   -.230E-06 -.155E+02 -.608E+02   -.773E-14 0.164E+02 0.636E+02   0.528E-16 -.884E+00 -.260E+01   0.651E-07 0.491E-05 0.206E-02
   0.242E-06 0.155E+02 0.608E+02   0.928E-14 -.164E+02 -.636E+02   -.528E-16 0.884E+00 0.260E+01   -.758E-07 -.748E-05 -.206E-02
   0.861E-07 -.155E+02 0.608E+02   0.579E-14 0.164E+02 -.636E+02   0.528E-16 -.884E+00 0.260E+01   -.631E-07 0.676E-05 -.206E-02
   -.263E-08 0.155E+02 -.608E+02   -.304E-15 -.164E+02 0.636E+02   -.528E-16 0.884E+00 -.260E+01   -.623E-07 -.414E-05 0.206E-02
   -.276E-07 0.279E+02 -.151E+02   0.613E-14 -.298E+02 0.172E+02   -.107E-15 0.179E+01 -.195E+01   -.207E-07 -.164E-02 -.647E-03
   0.399E-07 -.279E+02 0.151E+02   -.138E-13 0.298E+02 -.172E+02   0.107E-15 -.179E+01 0.195E+01   0.341E-07 0.164E-02 0.648E-03
   0.221E-06 0.279E+02 0.151E+02   -.975E-14 -.298E+02 -.172E+02   -.107E-15 0.179E+01 0.195E+01   0.276E-08 -.164E-02 0.648E-03
   -.263E-06 -.279E+02 -.151E+02   0.432E-14 0.298E+02 0.172E+02   0.107E-15 -.179E+01 -.195E+01   0.744E-07 0.164E-02 -.652E-03
 -----------------------------------------------------------------------------------------------
   -.394E-07 -.502E-07 -.461E-06   0.129E-14 0.355E-13 0.355E-13   -.700E-23 0.888E-15 -.444E-15   0.872E-07 0.918E-07 0.560E-06
 
 
 POSITION                                       TOTAL-FORCE (eV/Angst)
 -----------------------------------------------------------------------------------
      3.00117      0.44623      1.73468        -0.000000      0.180621     -0.224978
      1.00039     11.26740     10.62740         0.000000     -0.180621      0.224978
      1.00039      6.30304      4.44636        -0.000000      0.180621      0.224978
      3.00117      5.41059      7.91571         0.000000     -0.180621     -0.224978
      1.00039      3.86071      0.41800        -0.000000      0.006307      0.308628
      3.00117      7.85292     11.94408         0.000000     -0.006307     -0.308628
      3.00117      9.71753      5.76304        -0.000000      0.006307     -0.308628
      1.00039      1.99610      6.59903         0.000000     -0.006307      0.308628
      3.00117      1.49378     11.72351         0.000000     -0.146674      0.236628
      1.00039     10.21984      0.63856        -0.000000      0.146674     -0.236628
      1.00039      7.35060      6.81960         0.000000     -0.146674     -0.236628
      3.00117      4.36303      5.54248        -0.000000      0.146674      0.236628
      1.00039      2.25020      2.53832         0.000000     -0.079391     -0.249843
      3.00117      9.46343      9.82375        -0.000000      0.079391      0.249843
      3.00117      8.10701      3.64272         0.000000     -0.079391      0.249843
      1.00039      3.60662      8.71936        -0.000000      0.079391     -0.249843
      3.00117      0.63369      7.75534        -0.000000      0.145439     -0.158628
      1.00039     11.07994      4.60674         0.000000     -0.145439      0.158628
      1.00039      6.49051     10.78777        -0.000000      0.145439      0.158628
      3.00117      5.22312      1.57430         0.000000     -0.145439     -0.158628
 -----------------------------------------------------------------------------------
    total drift:                                0.000000      0.000000      0.000000


--------------------------------------------------------------------------------------------------------



  FREE ENERGIE OF THE ION-ELECTRON SYSTEM (eV)
  ---------------------------------------------------
  free  energy   TOTEN  =       -99.23048622 eV

  energy  without entropy=      -99.23048622  energy(sigma->0) =      -99.23048622
 


--------------------------------------------------------------------------------------------------------


    POTLOK:  cpu time      1.0547: real time      1.0576


--------------------------------------------------------------------------------------------------------


 writing wavefunctions
     LOOP+:  cpu time   3015.2447: real time   3023.7349
    4ORBIT:  cpu time      0.0000: real time      0.0000



 total charge

# of ion       s       p       d       tot
------------------------------------------
    1        1.323   1.026   0.066   2.415
    2        1.323   1.026   0.066   2.415
    3        1.323   1.026   0.066   2.415
    4        1.323   1.026   0.066   2.415
    5        1.315   1.046   0.062   2.422
    6        1.315   1.046   0.062   2.422
    7        1.315   1.046   0.062   2.422
    8        1.315   1.046   0.062   2.422
    9        1.492   2.334   0.028   3.854
   10        1.492   2.334   0.028   3.854
   11        1.492   2.334   0.028   3.854
   12        1.492   2.334   0.028   3.854
   13        1.496   2.321   0.028   3.846
   14        1.496   2.321   0.028   3.846
   15        1.496   2.321   0.028   3.846
   16        1.496   2.321   0.028   3.846
   17        1.491   2.330   0.024   3.846
   18        1.491   2.330   0.024   3.846
   19        1.491   2.330   0.024   3.846
   20        1.491   2.330   0.024   3.846
--------------------------------------------------
tot         28.470  36.231   0.831  65.533



 magnetization (x)

# of ion       s       p       d       tot
------------------------------------------
    1        0.000   0.000   0.000   0.000
    2        0.000   0.000   0.000   0.000
    3        0.000   0.000   0.000   0.000
    4        0.000   0.000   0.000   0.000
    5        0.000   0.000   0.000   0.000
    6        0.000   0.000   0.000   0.000
    7        0.000   0.000   0.000   0.000
    8        0.000   0.000   0.000   0.000
    9        0.000   0.000   0.000   0.000
   10        0.000   0.000   0.000   0.000
   11        0.000   0.000   0.000   0.000
   12        0.000   0.000   0.000   0.000
   13        0.000   0.000  -0.000   0.000
   14        0.000   0.000  -0.000   0.000
   15        0.000   0.000  -0.000   0.000
   16        0.000   0.000  -0.000   0.000
   17        0.000   0.000  -0.000   0.000
   18        0.000   0.000  -0.000   0.000
   19        0.000   0.000  -0.000   0.000
   20        0.000   0.000  -0.000   0.000
--------------------------------------------------
tot          0.000   0.000   0.000   0.000
 
 BZINTS: Fermi energy:    3.586766;  112.000000 electrons
         Band energy:-0.273897E+03;  BLOECHL correction:    0.000000

 total amount of memory used by VASP MPI-rank0    82152. kBytes
=======================================================================

   base      :      30000. kBytes
   nonl-proj :       8623. kBytes
   fftplans  :       3122. kBytes
   grid      :       6950. kBytes
   one-center:         32. kBytes
   HF        :         67. kBytes
   nonlr-proj:       4113. kBytes
   wavefun   :       8601. kBytes
   fock_wrk  :      20644. kBytes
 
  
  
 General timing and accounting informations for this job:
 ========================================================
  
                  Total CPU time used (sec):     3051.384
                            User time (sec):     2718.225
                          System time (sec):      333.159
                         Elapsed time (sec):     3060.795
  
                   Maximum memory used (kb):      402116.
                   Average memory used (kb):          N/A
  
                          Minor page faults:       428851
                          Major page faults:            0
                 Voluntary context switches:        19148
