 vasp.6.4.2 20Jul23 (build Mar 15 2024 16:31:38) complex                        
  
 executed on             LinuxIFC date 2025.03.26  18:44:07
 running  120 mpi-ranks, on    3 nodes
 distrk:  each k-point on  120 cores,    1 groups
 distr:  one band on NCORE=  10 cores,   12 groups


--------------------------------------------------------------------------------------------------------


 INCAR:
   ALGO = Normal
   CSHIFT = 1e-05
   EDIFF = 1e-05
   ENAUG = 1360
   ENCUT = 680
   GGA = Pe
   HFSCREEN = 0.2
   ISMEAR = -5
   ISPIN = 1
   LAECHG = True
   LASPH = True
   LCHARG = False
   LDAU = False
   LELF = False
   LHFCALC = True
   LMAXMIX = 4
   LMIXTAU = True
   LOPTICS = True
   LORBIT = 11
   LREAL = False
   LVTOT = True
   LWAVE = False
   NBANDS = 101
   NCORE = 10
   NEDOS = 1158
   NELM = 200
   NELMIN = 5
   NSW = 0
   PREC = Accurate
   PRECFOCK = Accurate
   SIGMA = 0.05

 POTCAR:    PAW_PBE Sb 06Sep2000                  
 POTCAR:    PAW_PBE S 06Sep2000                   
 WARNING: For LVTOT=.TRUE., VASP.5.x writes the TOTAL local potential to the
     file LOCPOT. If you want only the Hartree contributions, use LVHAR=.TRUE.
     instead. 

 POTCAR:    PAW_PBE Sb 06Sep2000                  
   VRHFIN =Sb: s2p3                                                                                 
   LEXCH  = PE                                                                                      
   EATOM  =   149.9515 eV,   11.0211 Ry                                                             
                                                                                                    
   TITEL  = PAW_PBE Sb 06Sep2000                                                                    
   LULTRA =        F    use ultrasoft PP ?                                                          
   IUNSCR =        1    unscreen: 0-lin 1-nonlin 2-no                                               
   RPACOR =    2.200    partial core radius                                                         
   POMASS =  121.750; ZVAL   =    5.000    mass and valenz                                          
   RCORE  =    2.300    outmost cutoff radius                                                       
   RWIGS  =    2.980; RWIGS  =    1.577    wigner-seitz radius (au A)                               
   ENMAX  =  172.069; ENMIN  =  129.052 eV                                                          
   ICORE  =        3    local potential                                                             
   LCOR   =        T    correct aug charges                                                         
   LPAW   =        T    paw PP                                                                      
   EAUG   =  380.513                                                                                
   DEXC   =    0.000                                                                                
   RMAX   =    2.346    core radius for proj-oper                                                   
   RAUG   =    1.300    factor for augmentation sphere                                              
   RDEP   =    2.360    radius for radial grids                                                     
   RDEPT  =    2.192    core radius for aug-charge                                                  
                                                                                                    
   Atomic configuration                                                                             
   13 entries                                                                                       
     n  l   j            E        occ.                                                              
     1  0  0.50    -30298.2797   2.0000                                                             
     2  0  0.50     -4610.2252   2.0000                                                             
     2  1  1.50     -4138.3407   6.0000                                                             
     3  0  0.50      -903.8815   2.0000                                                             
     3  1  1.50      -750.1337   6.0000                                                             
     3  2  2.50      -515.7092  10.0000                                                             
     4  0  0.50      -148.8034   2.0000                                                             
     4  1  1.50      -101.7581   6.0000                                                             
     4  2  2.50       -33.5048  10.0000                                                             
     5  0  0.50       -12.8298   2.0000                                                             
     5  1  0.50        -4.8276   3.0000                                                             
     5  2  1.50        -4.0817   0.0000                                                             
     4  3  2.50        -4.0817   0.0000                                                             
   Description                                                                                      
     l       E           TYP  RCUT    TYP  RCUT                                                     
     0    -12.8297861     23  2.300                                                                 
     0     13.6058260     23  2.300                                                                 
     1     -4.8275512     23  2.300                                                                 
     1     -0.7245443     23  2.300                                                                 
     2     -4.0817478     23  2.300                                                                 
     3     -1.3605826     23  2.300                                                                 
  local pseudopotential read in
  partial core-charges read in
  partial kinetic energy density read in
  atomic valenz-charges read in
  non local Contribution for L=           0  read in
    real space projection operators read in
  non local Contribution for L=           0  read in
    real space projection operators read in
  non local Contribution for L=           1  read in
    real space projection operators read in
  non local Contribution for L=           1  read in
    real space projection operators read in
  non local Contribution for L=           2  read in
    real space projection operators read in
    PAW grid and wavefunctions read in
 
   number of l-projection  operators is LMAX  =           5
   number of lm-projection operators is LMMAX =          13
 
 POTCAR:    PAW_PBE S 06Sep2000                   
   VRHFIN =S : s2p4                                                                                 
   LEXCH  = PE                                                                                      
   EATOM  =   276.8230 eV,   20.3459 Ry                                                             
                                                                                                    
   TITEL  = PAW_PBE S 06Sep2000                                                                     
   LULTRA =        F    use ultrasoft PP ?                                                          
   IUNSCR =        1    unscreen: 0-lin 1-nonlin 2-no                                               
   RPACOR =    1.500    partial core radius                                                         
   POMASS =   32.066; ZVAL   =    6.000    mass and valenz                                          
   RCORE  =    1.900    outmost cutoff radius                                                       
   RWIGS  =    2.200; RWIGS  =    1.164    wigner-seitz radius (au A)                               
   ENMAX  =  258.689; ENMIN  =  194.016 eV                                                          
   ICORE  =        2    local potential                                                             
   LCOR   =        T    correct aug charges                                                         
   LPAW   =        T    paw PP                                                                      
   EAUG   =  335.092                                                                                
   DEXC   =    0.000                                                                                
   RMAX   =    1.942    core radius for proj-oper                                                   
   RAUG   =    1.300    factor for augmentation sphere                                              
   RDEP   =    1.954    radius for radial grids                                                     
   RDEPT  =    1.744    core radius for aug-charge                                                  
                                                                                                    
   Atomic configuration                                                                             
    6 entries                                                                                       
     n  l   j            E        occ.                                                              
     1  0  0.50     -2405.8406   2.0000                                                             
     2  0  0.50      -211.7007   2.0000                                                             
     2  1  1.50      -156.4958   6.0000                                                             
     3  0  0.50       -17.2562   2.0000                                                             
     3  1  0.50        -7.0085   4.0000                                                             
     3  2  1.50        -6.8029   0.0000                                                             
   Description                                                                                      
     l       E           TYP  RCUT    TYP  RCUT                                                     
     0    -17.2561641     23  1.900                                                                 
     0    -15.8743224     23  1.900                                                                 
     1     -7.0085400     23  1.900                                                                 
     1     -2.7779785     23  1.900                                                                 
     2     -6.8029130     23  1.900                                                                 
  local pseudopotential read in
  partial core-charges read in
  partial kinetic energy density read in
  atomic valenz-charges read in
  non local Contribution for L=           0  read in
    real space projection operators read in
  non local Contribution for L=           0  read in
    real space projection operators read in
  non local Contribution for L=           1  read in
    real space projection operators read in
  non local Contribution for L=           1  read in
    real space projection operators read in
    PAW grid and wavefunctions read in
 
   number of l-projection  operators is LMAX  =           4
   number of lm-projection operators is LMMAX =           8
 
 -----------------------------------------------------------------------------
|                                                                             |
|               ----> ADVICE to this user running VASP <----                  |
|                                                                             |
|     You have a (more or less) 'large supercell' and for larger cells it     |
|     might be more efficient to use real-space projection operators.         |
|     Therefore, try LREAL= Auto in the INCAR file.                           |
|     Mind: For very accurate calculation, you might also keep the            |
|     reciprocal projection scheme (i.e. LREAL=.FALSE.).                      |
|                                                                             |
 -----------------------------------------------------------------------------

  PAW_PBE Sb 06Sep2000                  :
 energy of atom  1       EATOM= -149.9515
 kinetic energy error for atom=    0.0002 (will be added to EATOM!!)
  PAW_PBE S 06Sep2000                   :
 energy of atom  2       EATOM= -276.8230
 kinetic energy error for atom=    0.0008 (will be added to EATOM!!)
 
 
 POSCAR: Sb8 S12
  positions in direct lattice
  No initial velocities read in
 exchange correlation table for  LEXCH =        8
   RHO(1)=    0.500       N(1)  =     2000
   RHO(2)=  100.500       N(2)  =     4000
 


--------------------------------------------------------------------------------------------------------


 ion  position               nearest neighbor table
   1  0.750  0.466  0.857-  13 2.46  20 2.69  20 2.69  14 2.84  14 2.84
   2  0.250  0.534  0.143-  14 2.46  19 2.69  19 2.69  13 2.84  13 2.84
   3  0.250  0.966  0.643-  15 2.46  18 2.69  18 2.69  16 2.84  16 2.84
   4  0.750  0.034  0.357-  16 2.46  17 2.69  17 2.69  15 2.84  15 2.84
   5  0.250  0.173  0.967-  20 2.52   9 2.54   9 2.54  13 3.18  13 3.18  10 3.25
   6  0.750  0.827  0.033-  19 2.52  10 2.54  10 2.54  14 3.18  14 3.18   9 3.25
   7  0.750  0.673  0.533-  18 2.52  11 2.54  11 2.54  15 3.18  15 3.18  12 3.25
   8  0.250  0.327  0.467-  17 2.52  12 2.54  12 2.54  16 3.18  16 3.18  11 3.25
   9  0.750  0.061  0.876-   5 2.54   5 2.54   6 3.25
  10  0.250  0.939  0.124-   6 2.54   6 2.54   5 3.25
  11  0.250  0.561  0.624-   7 2.54   7 2.54   8 3.25
  12  0.750  0.439  0.376-   8 2.54   8 2.54   7 3.25
  13  0.750  0.379  0.049-   1 2.46   2 2.84   2 2.84   5 3.18   5 3.18
  14  0.250  0.621  0.951-   2 2.46   1 2.84   1 2.84   6 3.18   6 3.18
  15  0.250  0.879  0.451-   3 2.46   4 2.84   4 2.84   7 3.18   7 3.18
  16  0.750  0.121  0.549-   4 2.46   3 2.84   3 2.84   8 3.18   8 3.18
  17  0.250  0.189  0.300-   8 2.52   4 2.69   4 2.69
  18  0.750  0.811  0.700-   7 2.52   3 2.69   3 2.69
  19  0.750  0.689  0.200-   6 2.52   2 2.69   2 2.69
  20  0.250  0.311  0.800-   5 2.52   1 2.69   1 2.69
 
  LATTYP: Found a simple orthorhombic cell.
 ALAT       =     3.8447329100
 B/A-ratio  =     2.9565489739
 C/A-ratio  =     3.0691646796
  
  Lattice vectors:
  
 A1 = (   3.8447329100,   0.0000000000,   0.0000000000)
 A2 = (  -0.0000000000,  11.3671411400,   0.0000000000)
 A3 = (   0.0000000000,   0.0000000000,  11.8001184500)


Analysis of symmetry for initial positions (statically):
=====================================================================
 Subroutine PRICEL returns:
 Original cell was already a primitive cell.
 

 Routine SETGRP: Setting up the symmetry group for a 
 simple orthorhombic supercell.


 Subroutine GETGRP returns: Found  8 space group operations
 (whereof  2 operations were pure point group operations)
 out of a pool of  8 trial point group operations.


The static configuration has the point symmetry S_2 .
 The point group associated with its full space group is D_2h.


Analysis of symmetry for dynamics (positions and initial velocities):
=====================================================================
 Subroutine PRICEL returns:
 Original cell was already a primitive cell.
 

 Routine SETGRP: Setting up the symmetry group for a 
 simple orthorhombic supercell.


 Subroutine GETGRP returns: Found  8 space group operations
 (whereof  2 operations were pure point group operations)
 out of a pool of  8 trial point group operations.


The dynamic configuration has the point symmetry S_2 .
 The point group associated with its full space group is D_2h.


 Subroutine INISYM returns: Found  8 space group operations
 (whereof  2 operations are pure point group operations),
 and found     1 'primitive' translations


----------------------------------------------------------------------------------------

                                     Primitive cell                                     

  volume of cell :     515.7079

  direct lattice vectors                    reciprocal lattice vectors
     3.844732910  0.000000000  0.000000000     0.260096091  0.000000000  0.000000000
    -0.000000000 11.367141140  0.000000000     0.000000000  0.087972867  0.000000000
     0.000000000  0.000000000 11.800118450    -0.000000000 -0.000000000  0.084744912

  length of vectors
     3.844732910 11.367141140 11.800118450     0.260096091  0.087972867  0.084744912

  position of ions in fractional coordinates (direct lattice)
     0.750000000  0.465583620  0.857350400
     0.250000000  0.534416380  0.142649600
     0.250000000  0.965583620  0.642649600
     0.750000000  0.034416380  0.357350400
     0.250000000  0.173082670  0.966943600
     0.750000000  0.826917330  0.033056400
     0.750000000  0.673082670  0.533056400
     0.250000000  0.326917330  0.466943600
     0.750000000  0.061469490  0.875927160
     0.250000000  0.938530510  0.124072840
     0.250000000  0.561469490  0.624072840
     0.750000000  0.438530510  0.375927160
     0.750000000  0.379232040  0.048541450
     0.250000000  0.620767960  0.951458550
     0.250000000  0.879232040  0.451458550
     0.750000000  0.120767960  0.548541450
     0.250000000  0.188547610  0.300249270
     0.750000000  0.811452390  0.699750730
     0.750000000  0.688547610  0.199750730
     0.250000000  0.311452390  0.800249270

  ion indices of the primitive-cell ions
   primitive index   ion index
                 1           1
                 2           2
                 3           3
                 4           4
                 5           5
                 6           6
                 7           7
                 8           8
                 9           9
                10          10
                11          11
                12          12
                13          13
                14          14
                15          15
                16          16
                17          17
                18          18
                19          19
                20          20

----------------------------------------------------------------------------------------

 
 
 KPOINTS: pymatgen with grid density = 616 / numbe

Automatic generation of k-mesh.
 Grid dimensions read from file:
 generate k-points for:    6    2    2

 Generating k-lattice:

  Cartesian coordinates                     Fractional coordinates (reciprocal lattice)
     0.043349348  0.000000000  0.000000000     0.166666667 -0.000000000  0.000000000
     0.000000000  0.043986434  0.000000000     0.000000000  0.500000000  0.000000000
    -0.000000000 -0.000000000  0.042372456     0.000000000  0.000000000  0.500000000

  Length of vectors
     0.043349348  0.043986434  0.042372456

  Shift w.r.t. Gamma in fractional coordinates (k-lattice)
     0.000000000  0.000000000  0.000000000

 TETIRR: Found     72 inequivalent tetrahedra from      144
 
 Subroutine IBZKPT returns following result:
 ===========================================
 
 Found     16 irreducible k-points:
 
 Following reciprocal coordinates:
            Coordinates               Weight
  0.000000  0.000000  0.000000      1.000000
  0.166667  0.000000  0.000000      2.000000
  0.333333  0.000000  0.000000      2.000000
  0.500000  0.000000  0.000000      1.000000
  0.000000  0.500000  0.000000      1.000000
  0.166667  0.500000  0.000000      2.000000
  0.333333  0.500000  0.000000      2.000000
  0.500000  0.500000  0.000000      1.000000
  0.000000  0.000000  0.500000      1.000000
  0.166667  0.000000  0.500000      2.000000
  0.333333  0.000000  0.500000      2.000000
  0.500000  0.000000  0.500000      1.000000
  0.000000  0.500000  0.500000      1.000000
  0.166667  0.500000  0.500000      2.000000
  0.333333  0.500000  0.500000      2.000000
  0.500000  0.500000  0.500000      1.000000
 
 Following cartesian coordinates:
            Coordinates               Weight
  0.000000  0.000000  0.000000      1.000000
  0.043349  0.000000  0.000000      2.000000
  0.086699  0.000000  0.000000      2.000000
  0.130048  0.000000  0.000000      1.000000
  0.000000  0.043986  0.000000      1.000000
  0.043349  0.043986  0.000000      2.000000
  0.086699  0.043986  0.000000      2.000000
  0.130048  0.043986  0.000000      1.000000
 -0.000000 -0.000000  0.042372      1.000000
  0.043349  0.000000  0.042372      2.000000
  0.086699  0.000000  0.042372      2.000000
  0.130048  0.000000  0.042372      1.000000
 -0.000000  0.043986  0.042372      1.000000
  0.043349  0.043986  0.042372      2.000000
  0.086699  0.043986  0.042372      2.000000
  0.130048  0.043986  0.042372      1.000000
 
 
 Subroutine IBZKPT_HF returns following result:
 ==============================================
 
 Found     24 k-points in 1st BZ
 the following     24 k-points will be used (e.g. in the exchange kernel)
 Following reciprocal coordinates:   # in IRBZ
  0.000000  0.000000  0.000000    0.04166667   1 t-inv F
  0.166667  0.000000  0.000000    0.04166667   2 t-inv F
  0.333333  0.000000  0.000000    0.04166667   3 t-inv F
  0.500000  0.000000  0.000000    0.04166667   4 t-inv F
  0.000000  0.500000  0.000000    0.04166667   5 t-inv F
  0.166667  0.500000  0.000000    0.04166667   6 t-inv F
  0.333333  0.500000  0.000000    0.04166667   7 t-inv F
  0.500000  0.500000  0.000000    0.04166667   8 t-inv F
  0.000000  0.000000  0.500000    0.04166667   9 t-inv F
  0.166667  0.000000  0.500000    0.04166667  10 t-inv F
  0.333333  0.000000  0.500000    0.04166667  11 t-inv F
  0.500000  0.000000  0.500000    0.04166667  12 t-inv F
  0.000000  0.500000  0.500000    0.04166667  13 t-inv F
  0.166667  0.500000  0.500000    0.04166667  14 t-inv F
  0.333333  0.500000  0.500000    0.04166667  15 t-inv F
  0.500000  0.500000  0.500000    0.04166667  16 t-inv F
 -0.166667 -0.000000  0.000000    0.04166667   2 t-inv F
 -0.333333 -0.000000  0.000000    0.04166667   3 t-inv F
 -0.166667 -0.500000  0.000000    0.04166667   6 t-inv F
 -0.333333 -0.500000  0.000000    0.04166667   7 t-inv F
 -0.166667 -0.000000 -0.500000    0.04166667  10 t-inv F
 -0.333333 -0.000000 -0.500000    0.04166667  11 t-inv F
 -0.166667 -0.500000 -0.500000    0.04166667  14 t-inv F
 -0.333333 -0.500000 -0.500000    0.04166667  15 t-inv F
 -----------------------------------------------------------------------------
|                                                                             |
|           W    W    AA    RRRRR   N    N  II  N    N   GGGG   !!!           |
|           W    W   A  A   R    R  NN   N  II  NN   N  G    G  !!!           |
|           W    W  A    A  R    R  N N  N  II  N N  N  G       !!!           |
|           W WW W  AAAAAA  RRRRR   N  N N  II  N  N N  G  GGG   !            |
|           WW  WW  A    A  R   R   N   NN  II  N   NN  G    G                |
|           W    W  A    A  R    R  N    N  II  N    N   GGGG   !!!           |
|                                                                             |
|     The number of bands has been changed from the values supplied in        |
|     the INCAR file. This is a result of running the parallel version.       |
|     The orbitals not found in the WAVECAR file will be initialized with     |
|     random numbers, which is usually adequate. For correlated               |
|     calculations, however, you should redo the groundstate calculation.     |
|     I found NBANDS = 101. Now, NBANDS = 108.                                |
|                                                                             |
 -----------------------------------------------------------------------------



--------------------------------------------------------------------------------------------------------




 Dimension of arrays:
   k-points           NKPTS =     16   k-points in BZ     NKDIM =     24   number of bands    NBANDS=    108
   number of dos      NEDOS =   1158   number of ions     NIONS =     20
   non local maximal  LDIM  =      5   non local SUM 2l+1 LMDIM =     13
   total plane-waves  NPLWV = 352800
   max r-space proj   IRMAX =      1   max aug-charges    IRDMAX=  38161
   dimension x,y,z NGX =    36 NGY =   98 NGZ =  100
   dimension x,y,z NGXF=    72 NGYF=  196 NGZF=  200
   support grid    NGXF=    72 NGYF=  196 NGZF=  200
   ions per type =               8  12
   NGX,Y,Z   is equivalent  to a cutoff of  15.57, 14.33, 14.09 a.u.
   NGXF,Y,Z  is equivalent  to a cutoff of  31.13, 28.67, 28.18 a.u.

 SYSTEM =  unknown system                          
 POSCAR =  Sb8 S12                                 

 Startparameter for this run:
   NWRITE =      2    write-flag & timer
   PREC   = accura    normal or accurate (medium, high low for compatibility)
   ISTART =      0    job   : 0-new  1-cont  2-samecut
   ICHARG =      2    charge: 1-file 2-atom 10-const
   ISPIN  =      1    spin polarized calculation?
   LNONCOLLINEAR =      F non collinear calculations
   LSORBIT =      F    spin-orbit coupling
   INIWAV =      1    electr: 0-lowe 1-rand  2-diag
   LASPH  =      T    aspherical Exc in radial PAW
 Electronic Relaxation 1
   ENCUT  =  680.0 eV  49.98 Ry    7.07 a.u.   8.17 24.17 25.09*2*pi/ulx,y,z
   ENINI  =  680.0     initial cutoff
   ENAUG  = 1360.0 eV  augmentation charge cutoff
   NELM   =    200;   NELMIN=  5; NELMDL=  0     # of ELM steps 
   EDIFF  = 0.1E-04   stopping-criterion for ELM
   LREAL  =      F    real-space projection
   NLSPLINE    = F    spline interpolate recip. space projectors
   LCOMPAT=      F    compatible to vasp.4.4
   GGA_COMPAT  = T    GGA compatible to vasp.4.4-vasp.4.6
   LMAXPAW     = -100 max onsite density
   LMAXMIX     =    4 max onsite mixed and CHGCAR
   VOSKOWN=      0    Vosko Wilk Nusair interpolation
   ROPT   =    0.00000   0.00000
 Ionic relaxation
   EDIFFG = 0.1E-03   stopping-criterion for IOM
   NSW    =      0    number of steps for IOM
   NBLOCK =      1;   KBLOCK =      1    inner block; outer block 
   IBRION =     -1    ionic relax: 0-MD 1-quasi-New 2-CG
   NFREE  =      0    steps in history (QN), initial steepest desc. (CG)
   ISIF   =      0    stress and relaxation
   IWAVPR =     10    prediction:  0-non 1-charg 2-wave 3-comb
   ISYM   =      3    0-nonsym 1-usesym 2-fastsym
   LCORR  =      T    Harris-Foulkes like correction to forces

   POTIM  = 0.5000    time-step for ionic-motion
   TEIN   =    0.0    initial temperature
   TEBEG  =    0.0;   TEEND  =   0.0 temperature during run
   SMASS  =  -3.00    Nose mass-parameter (am)
   estimated Nose-frequenzy (Omega)   =  0.10E-29 period in steps = 0.13E+47 mass=  -0.338E-27a.u.
   SCALEE = 1.0000    scale energy and forces
   NPACO  =    256;   APACO  = 10.0  distance and # of slots for P.C.
   PSTRESS=    0.0 pullay stress

  Mass of Ions in am
   POMASS = 121.75 32.07
  Ionic Valenz
   ZVAL   =   5.00  6.00
  Atomic Wigner-Seitz radii
   RWIGS  =  -1.00 -1.00
  virtual crystal weights 
   VCA    =   1.00  1.00
   NELECT =     112.0000    total number of electrons
   NUPDOWN=      -1.0000    fix difference up-down

 DOS related values:
   EMIN   =  10.00;   EMAX   =-10.00  energy-range for DOS
   EFERMI =   0.00;   METHOD = LEGACY      
   ISMEAR =    -5;   SIGMA  =   0.05  broadening in eV -4-tet -1-fermi 0-gaus

 Electronic relaxation 2 (details)
   IALGO  =     38    algorithm
   LDIAG  =      T    sub-space diagonalisation (order eigenvalues)
   LSUBROT=      F    optimize rotation matrix (better conditioning)
   TURBO    =      0    0=normal 1=particle mesh
   IRESTART =      0    0=no restart 2=restart with 2 vectors
   NREBOOT  =      0    no. of reboots
   NMIN     =      0    reboot dimension
   EREF     =   0.00    reference energy to select bands
   IMIX   =      1    mixing-type and parameters
     AMIX     =   0.40;   BMIX     =  1.00
     AMIX_MAG =   1.60;   BMIX_MAG =  1.00
     AMIN     =   0.10
     WC   =   100.;   INIMIX=   1;  MIXPRE=   1;  MAXMIX= -45

 Intra band minimization:
   WEIMIN = 0.0000     energy-eigenvalue tresh-hold
   EBREAK =  0.23E-07  absolut break condition
   DEPER  =   0.30     relativ break condition  

   TIME   =   0.40     timestep for ELM

  volume/ion in A,a.u.               =      25.79       174.01
  Fermi-wavevector in a.u.,A,eV,Ry     =   0.984040  1.859567 13.175003  0.968335
  Thomas-Fermi vector in A             =   2.115243
 
 Write flags
   LWAVE        =      F    write WAVECAR
   LDOWNSAMPLE  =      F    k-point downsampling of WAVECAR
   LCHARG       =      F    write CHGCAR
   LVTOT        =      T    write LOCPOT, total local potential
   LVHAR        =      F    write LOCPOT, Hartree potential only
   LELF         =      F    write electronic localiz. function (ELF)
   LORBIT       =     11    0 simple, 1 ext, 2 COOP (PROOUT), +10 PAW based schemes


 Dipole corrections
   LMONO  =      F    monopole corrections only (constant potential shift)
   LDIPOL =      F    correct potential (dipole corrections)
   IDIPOL =      0    1-x, 2-y, 3-z, 4-all directions 
   EPSILON=  1.0000000 bulk dielectric constant

 Exchange correlation treatment:
   GGA     =    PE    GGA type
   LEXCH   =     8    internal setting for exchange type
   LIBXC   =     F    Libxc                    
   VOSKOWN =     0    Vosko Wilk Nusair interpolation
   EXXOEP  =     0    0=HF, 1=EXX-LHF (local Hartree Fock) 2=EXX OEP
   LHFCALC =     T    Hartree Fock is set to
   LSYMGRAD=     F    symmetrize gradient (conserves proper symmetry)
   PRECFOCK=accur.    Normal, Fast or Accurate (Low or Medium for compatibility)
   LRHFCALC=     F    long range Hartree Fock
   LRSCOR  =     F    long range correlation only (use DFT for short range part)
   LTHOMAS =     F    Thomas Fermi screening in HF
   LMODELHF=     F    short range full HF, long range fraction AEXX
   FOCKCORR=     1    mode to apply convergence corrections
   LFOCKACE=     T    use Adeptively-Compressed-Exchange operator
   ENCUT4O =  -1.0   cutoff for four orbital integrals eV
   LMAXFOCK=     4    L truncation for augmentation on plane wave grid
   LMAXFOCKAE=  -1    L truncation for all-electron charge restoration on plane wave grid
   NMAXFOCKAE=   1    number of basis functions for all-electron charge restoration
   LFOCKAEDFT=     F  apply the AE augmentation even for DFT
   NKREDX  =     1    reduce k-point grid by
   NKREDY  =     1    reduce k-point grid by
   NKREDZ  =     1    reduce k-point grid by
   SHIFTRED=     F    shift reduced grid of Gamma
   HFKIDENT=     F    idential grid for each k-point
   ODDONLY =     F    use only odd q-grid points
   EVENONLY=     F    use only even q-grid points
   HFALPHA =   -1.0000 decay constant for conv. correction
   MCALPHA =    0.0000 extent of test-charge in conv. correction in multipole expansion
   AEXX    =    0.2500 exact exchange contribution
   HFSCREEN=    0.2000 screening length (either q_TF or 0.3 A-1)
   HFSCREENC=   0.2000 screening length for correlation (either q_TF or 0.3 A-1)
   HFRCUT  =    0.0000 spherical cutoff for potential kernel
   ALDAX   =    0.7500 LDA exchange part
   AGGAX   =    0.7500 GGA exchange part
   ALDAC   =    1.0000 LDA correlation
   AGGAC   =    1.0000 GGA correlation
   ENCUTFOCK=  -1.0 apply spherical cutoff to Coloumb kernel
   NBANDSGWLOW=     1    first orbital included in HF term
   NBLOCK_FOCK=    64    blocking factor in FOCK_ACC

 Linear response parameters
   LEPSILON=     F    determine dielectric tensor
   LRPA    =     F    only Hartree local field effects (RPA)
   LNABLA  =     F    use nabla operator in PAW spheres
   LVEL    =     F    velocity operator in full k-point grid
   CSHIFT  =0.0000    complex shift for real part using Kramers Kronig
   OMEGAMAX=  -1.0    maximum frequency
   DEG_THRESHOLD= 0.2000000E-02 threshold for treating states as degnerate
   RTIME   =   -0.100 relaxation time in fs
  (WPLASMAI=    0.000 imaginary part of plasma frequency in eV, 0.658/RTIME)
   DFIELD  = 0.0000000 0.0000000 0.0000000 field for delta impulse in time
 
  Optional k-point grid parameters
   LKPOINTS_OPT  =     F    use optional k-point grid
   KPOINTS_OPT_MODE=     1    mode for optional k-point grid
 
 Orbital magnetization related:
   ORBITALMAG=     F  switch on orbital magnetization
   LCHIMAG   =     F  perturbation theory with respect to B field
   DQ        =  0.001000  dq finite difference perturbation B field
   LLRAUG    =     F  two centre corrections for induced B field
   LBONE     =     F  B-component reconstruction in AE one-centre
   LVGVCALC  =     T  calculate vGv susceptibility
   LVGVAPPL  =     F  apply vGv susceptibility instead of pGv for G=0

 Random number generation:
   RANDOM_GENERATOR = DEFAULT
   PCG_SEED         = not used


--------------------------------------------------------------------------------------------------------


 Static calculation
 charge density and potential will be updated during run
 non-spin polarized calculation
 Variant of blocked Davidson
 Davidson routine will perform the subspace rotation
 perform sub-space diagonalisation
    after iterative eigenvector-optimisation
 Kerker-like  mixing scheme
 using additional bands           52
 reciprocal scheme for non local part
 use partial core corrections
 calculate Harris-corrections to forces 
   (improved forces if not selfconsistent)
 use gradient corrections 
 use of overlap-Matrix (Vanderbilt PP)
 Fermi weights with tetrahedron method with Bloechl corrections


--------------------------------------------------------------------------------------------------------


  energy-cutoff  :      680.00
  volume of cell :      515.71
      direct lattice vectors                 reciprocal lattice vectors
     3.844732910  0.000000000  0.000000000     0.260096091  0.000000000  0.000000000
    -0.000000000 11.367141140  0.000000000     0.000000000  0.087972867  0.000000000
     0.000000000  0.000000000 11.800118450    -0.000000000 -0.000000000  0.084744912

  length of vectors
     3.844732910 11.367141140 11.800118450     0.260096091  0.087972867  0.084744912


 
 k-points in units of 2pi/SCALE and weight: pymatgen with grid density = 616 / numbe
   0.00000000  0.00000000  0.00000000       0.042
   0.04334935  0.00000000  0.00000000       0.083
   0.08669870  0.00000000  0.00000000       0.083
   0.13004805  0.00000000  0.00000000       0.042
   0.00000000  0.04398643  0.00000000       0.042
   0.04334935  0.04398643  0.00000000       0.083
   0.08669870  0.04398643  0.00000000       0.083
   0.13004805  0.04398643  0.00000000       0.042
  -0.00000000 -0.00000000  0.04237246       0.042
   0.04334935  0.00000000  0.04237246       0.083
   0.08669870  0.00000000  0.04237246       0.083
   0.13004805  0.00000000  0.04237246       0.042
  -0.00000000  0.04398643  0.04237246       0.042
   0.04334935  0.04398643  0.04237246       0.083
   0.08669870  0.04398643  0.04237246       0.083
   0.13004805  0.04398643  0.04237246       0.042
 
 k-points in reciprocal lattice and weights: pymatgen with grid density = 616 / numbe
   0.00000000  0.00000000  0.00000000       0.042
   0.16666667  0.00000000  0.00000000       0.083
   0.33333333  0.00000000  0.00000000       0.083
   0.50000000  0.00000000  0.00000000       0.042
   0.00000000  0.50000000  0.00000000       0.042
   0.16666667  0.50000000  0.00000000       0.083
   0.33333333  0.50000000  0.00000000       0.083
   0.50000000  0.50000000  0.00000000       0.042
   0.00000000  0.00000000  0.50000000       0.042
   0.16666667  0.00000000  0.50000000       0.083
   0.33333333  0.00000000  0.50000000       0.083
   0.50000000  0.00000000  0.50000000       0.042
   0.00000000  0.50000000  0.50000000       0.042
   0.16666667  0.50000000  0.50000000       0.083
   0.33333333  0.50000000  0.50000000       0.083
   0.50000000  0.50000000  0.50000000       0.042
 
 position of ions in fractional coordinates (direct lattice) 
   0.75000000  0.46558362  0.85735040
   0.25000000  0.53441638  0.14264960
   0.25000000  0.96558362  0.64264960
   0.75000000  0.03441638  0.35735040
   0.25000000  0.17308267  0.96694360
   0.75000000  0.82691733  0.03305640
   0.75000000  0.67308267  0.53305640
   0.25000000  0.32691733  0.46694360
   0.75000000  0.06146949  0.87592716
   0.25000000  0.93853051  0.12407284
   0.25000000  0.56146949  0.62407284
   0.75000000  0.43853051  0.37592716
   0.75000000  0.37923204  0.04854145
   0.25000000  0.62076796  0.95145855
   0.25000000  0.87923204  0.45145855
   0.75000000  0.12076796  0.54854145
   0.25000000  0.18854761  0.30024927
   0.75000000  0.81145239  0.69975073
   0.75000000  0.68854761  0.19975073
   0.25000000  0.31145239  0.80024927
 
 position of ions in cartesian coordinates  (Angst):
   2.88354968  5.29235472 10.11683627
   0.96118323  6.07478642  1.68328218
   0.96118323 10.97592529  7.58334140
   2.88354968  0.39121585  4.21677705
   0.96118323  1.96745514 11.41004901
   2.88354968  9.39968600  0.39006944
   2.88354968  7.65102571  6.29012866
   0.96118323  3.71611543  5.50998979
   2.88354968  0.69873237 10.33604424
   0.96118323 10.66840877  1.46407421
   0.96118323  6.38230294  7.36413343
   2.88354968  4.98483820  4.43598502
   2.88354968  4.31078412  0.57279486
   0.96118323  7.05635702 11.22732359
   0.96118323  9.99435469  5.32726437
   2.88354968  1.37278645  6.47285408
   0.96118323  2.14324729  3.54297695
   2.88354968  9.22389385  8.25714150
   2.88354968  7.82681786  2.35708227
   0.96118323  3.54032328  9.44303618
 


--------------------------------------------------------------------------------------------------------


 k-point   1 :   0.0000 0.0000 0.0000  plane waves:   20719
 k-point   2 :   0.1667 0.0000 0.0000  plane waves:   20701
 k-point   3 :   0.3333 0.0000 0.0000  plane waves:   20762
 k-point   4 :   0.5000 0.0000 0.0000  plane waves:   20788
 k-point   5 :   0.0000 0.5000 0.0000  plane waves:   20736
 k-point   6 :   0.1667 0.5000 0.0000  plane waves:   20780
 k-point   7 :   0.3333 0.5000 0.0000  plane waves:   20790
 k-point   8 :   0.5000 0.5000 0.0000  plane waves:   20792
 k-point   9 :   0.0000 0.0000 0.5000  plane waves:   20762
 k-point  10 :   0.1667 0.0000 0.5000  plane waves:   20750
 k-point  11 :   0.3333 0.0000 0.5000  plane waves:   20790
 k-point  12 :   0.5000 0.0000 0.5000  plane waves:   20800
 k-point  13 :   0.0000 0.5000 0.5000  plane waves:   20752
 k-point  14 :   0.1667 0.5000 0.5000  plane waves:   20732
 k-point  15 :   0.3333 0.5000 0.5000  plane waves:   20772
 k-point  16 :   0.5000 0.5000 0.5000  plane waves:   20824

 maximum and minimum number of plane-waves per node :      2116     2036

 maximum number of plane-waves:     20824
 maximum index in each direction: 
   IXMAX=    8   IYMAX=   24   IZMAX=   25
   IXMIN=   -8   IYMIN=  -24   IZMIN=  -25


 parallel 3D FFT for wavefunctions:
    minimum data exchange during FFTs selected (reduces bandwidth)
 parallel 3D FFT for charge:
    minimum data exchange during FFTs selected (reduces bandwidth)

 
 Radii for the augmentation spheres in the non-local exchange
 for species   1 augmentation radius   1.464 (default was   1.171)
       energy cutoff for augmentation   2720.0
 for species   2 augmentation radius   1.212 (default was   0.970)
       energy cutoff for augmentation   2720.0

 real space projection operators:
  total allocation   :      18359.59 KBytes
  max/ min on nodes  :       2081.11       1538.80

 Maximum index for augmentation-charges in exchange         1109
  SETUP_FOCK is finished

 total amount of memory used by VASP MPI-rank0    55927. kBytes
=======================================================================

   base      :      30000. kBytes
   nonl-proj :       7748. kBytes
   fftplans  :       3638. kBytes
   grid      :       3785. kBytes
   one-center:         16. kBytes
   HF        :         67. kBytes
   nonlr-proj:       5725. kBytes
   wavefun   :       4948. kBytes
 
     INWAV:  cpu time      0.0001: real time      0.0004
 initial charge density was supplied:
 charge density of overlapping atoms calculated
 number of electron     112.0000000 magnetization 
 keeping initial charge density in first step


--------------------------------------------------------------------------------------------------------


 Maximum index for augmentation-charges          411 (set IRDMAX)


--------------------------------------------------------------------------------------------------------


 First call to EWALD:  gamma=   0.221
 Maximum number of real-space cells 5x 2x 2
 Maximum number of reciprocal cells 2x 4x 4

    FEWALD:  cpu time      0.0025: real time      0.0038


--------------------------------------- Ionic step        1  -------------------------------------------




--------------------------------------- Iteration      1(   1)  ---------------------------------------


    POTLOK:  cpu time      0.0508: real time      0.1739
    SETDIJ:  cpu time      0.1243: real time      0.1253
     EDDAV:  cpu time      1.6139: real time      3.0399
 BZINTS: Fermi energy:   14.060761;  112.000000 electrons
         Band energy: 0.581242E+03;  BLOECHL correction:   -0.079761
       DOS:  cpu time      0.0169: real time      0.0175
    --------------------------------------------
      LOOP:  cpu time      1.8059: real time      3.3567

 eigenvalue-minimisations  :  3456
 total energy-change (2. order) :-0.1005626E+05  (-0.4870018E+04)
 number of electron     112.0000000 magnetization 
 augmentation part      112.0000000 magnetization 

 Free energy of the ion-electron system (eV)
  ---------------------------------------------------
  alpha Z        PSCENC =        44.85403091
  Ewald energy   TEWEN  =     -4141.68316538
  -Hartree energ DENC   =      -625.64737553
  -exchange      EXHF   =         0.00000000
  -V(xc)+E(xc)   XCENC  =      -222.32358173
  PAW double counting   =      3919.24534467   -14102.60591419
  entropy T*S    EENTRO =         0.00000000
  eigenvalues    EBANDS =       581.24185279
  atomic energy  EATOM  =      4490.65986132
  Solvation  Ediel_sol  =         0.00000000
  ---------------------------------------------------
  free energy    TOTEN  =    -10056.25894714 eV

  energy without entropy =   -10056.25894714  energy(sigma->0) =   -10056.25894714
  exchange ACFDT corr.  =         0.00000000  see jH, gK, PRB 81, 115126


--------------------------------------------------------------------------------------------------------




--------------------------------------- Iteration      1(   2)  ---------------------------------------


     EDDAV:  cpu time      1.7216: real time      1.7340
 BZINTS: Fermi energy:    4.920808;  112.000000 electrons
         Band energy:-0.132911E+03;  BLOECHL correction:    0.000000
       DOS:  cpu time      0.0092: real time      0.0092
    --------------------------------------------
      LOOP:  cpu time      1.7308: real time      1.7433

 eigenvalue-minimisations  :  4536
 total energy-change (2. order) :-0.7141533E+03  (-0.6703675E+03)
 number of electron     112.0000000 magnetization 
 augmentation part      112.0000000 magnetization 

 Free energy of the ion-electron system (eV)
  ---------------------------------------------------
  alpha Z        PSCENC =        44.85403091
  Ewald energy   TEWEN  =     -4141.68316538
  -Hartree energ DENC   =      -625.64737553
  -exchange      EXHF   =         0.00000000
  -V(xc)+E(xc)   XCENC  =      -222.32358173
  PAW double counting   =      3919.24534467   -14102.60591419
  entropy T*S    EENTRO =         0.00000000
  eigenvalues    EBANDS =      -132.91144342
  atomic energy  EATOM  =      4490.65986132
  Solvation  Ediel_sol  =         0.00000000
  ---------------------------------------------------
  free energy    TOTEN  =    -10770.41224336 eV

  energy without entropy =   -10770.41224336  energy(sigma->0) =   -10770.41224336
  exchange ACFDT corr.  =         0.00000000  see jH, gK, PRB 81, 115126


--------------------------------------------------------------------------------------------------------




--------------------------------------- Iteration      1(   3)  ---------------------------------------


     EDDAV:  cpu time      1.6980: real time      1.7189
 BZINTS: Fermi energy:    3.312934;  112.000000 electrons
         Band energy:-0.214553E+03;  BLOECHL correction:    0.000000
       DOS:  cpu time      0.0085: real time      0.0085
    --------------------------------------------
      LOOP:  cpu time      1.7065: real time      1.7274

 eigenvalue-minimisations  :  4368
 total energy-change (2. order) :-0.8164163E+02  (-0.7990002E+02)
 number of electron     112.0000000 magnetization 
 augmentation part      112.0000000 magnetization 

 Free energy of the ion-electron system (eV)
  ---------------------------------------------------
  alpha Z        PSCENC =        44.85403091
  Ewald energy   TEWEN  =     -4141.68316538
  -Hartree energ DENC   =      -625.64737553
  -exchange      EXHF   =         0.00000000
  -V(xc)+E(xc)   XCENC  =      -222.32358173
  PAW double counting   =      3919.24534467   -14102.60591419
  entropy T*S    EENTRO =         0.00000000
  eigenvalues    EBANDS =      -214.55307376
  atomic energy  EATOM  =      4490.65986132
  Solvation  Ediel_sol  =         0.00000000
  ---------------------------------------------------
  free energy    TOTEN  =    -10852.05387369 eV

  energy without entropy =   -10852.05387369  energy(sigma->0) =   -10852.05387369
  exchange ACFDT corr.  =         0.00000000  see jH, gK, PRB 81, 115126


--------------------------------------------------------------------------------------------------------




--------------------------------------- Iteration      1(   4)  ---------------------------------------


     EDDAV:  cpu time      1.6299: real time      1.6514
 BZINTS: Fermi energy:    3.273835;  112.000000 electrons
         Band energy:-0.216402E+03;  BLOECHL correction:    0.000000
       DOS:  cpu time      0.0082: real time      0.0082
    --------------------------------------------
      LOOP:  cpu time      1.6381: real time      1.6596

 eigenvalue-minimisations  :  4068
 total energy-change (2. order) :-0.1849248E+01  (-0.1843390E+01)
 number of electron     112.0000000 magnetization 
 augmentation part      112.0000000 magnetization 

 Free energy of the ion-electron system (eV)
  ---------------------------------------------------
  alpha Z        PSCENC =        44.85403091
  Ewald energy   TEWEN  =     -4141.68316538
  -Hartree energ DENC   =      -625.64737553
  -exchange      EXHF   =         0.00000000
  -V(xc)+E(xc)   XCENC  =      -222.32358173
  PAW double counting   =      3919.24534467   -14102.60591419
  entropy T*S    EENTRO =         0.00000000
  eigenvalues    EBANDS =      -216.40232195
  atomic energy  EATOM  =      4490.65986132
  Solvation  Ediel_sol  =         0.00000000
  ---------------------------------------------------
  free energy    TOTEN  =    -10853.90312188 eV

  energy without entropy =   -10853.90312188  energy(sigma->0) =   -10853.90312188
  exchange ACFDT corr.  =         0.00000000  see jH, gK, PRB 81, 115126


--------------------------------------------------------------------------------------------------------




--------------------------------------- Iteration      1(   5)  ---------------------------------------


    POTLOK:  cpu time      0.0635: real time      0.0780
    SETDIJ:  cpu time      0.3086: real time      0.3094
     EDDAV:  cpu time    549.6904: real time    551.0742
 BZINTS: Fermi energy:    3.719410;  112.000000 electrons
         Band energy:-0.265698E+03;  BLOECHL correction:    0.000000
       DOS:  cpu time      0.0089: real time      0.0089
    CHARGE:  cpu time      0.0672: real time      0.0901
    MIXING:  cpu time      0.0011: real time      0.0012
    --------------------------------------------
      LOOP:  cpu time    550.1397: real time    551.5616

 eigenvalue-minimisations  :  3456
 total energy-change (2. order) : 0.1074017E+05  (-0.4028375E+01)
 number of electron     111.9999998 magnetization 
 augmentation part      -16.3864636 magnetization 

 Free energy of the ion-electron system (eV)
  ---------------------------------------------------
  alpha Z        PSCENC =        44.85403091
  Ewald energy   TEWEN  =     -4141.68316538
  -Hartree energ DENC   =      -625.64737553
  -exchange      EXHF   =       191.59150251
  -V(xc)+E(xc)   XCENC  =      -184.55369127
  PAW double counting   =      3875.62421040    -3498.87617996
  entropy T*S    EENTRO =         0.00000000
  eigenvalues    EBANDS =      -265.69758187
  atomic energy  EATOM  =      4490.65986132
  Solvation  Ediel_sol  =         0.00000000
  ---------------------------------------------------
  free energy    TOTEN  =      -113.72838888 eV

  energy without entropy =     -113.72838888  energy(sigma->0) =     -113.72838888
  exchange ACFDT corr.  =         0.00000000  see jH, gK, PRB 81, 115126


--------------------------------------------------------------------------------------------------------




--------------------------------------- Iteration      1(   6)  ---------------------------------------


    POTLOK:  cpu time      0.0634: real time      0.0759
    SETDIJ:  cpu time      0.3089: real time      0.3096
     EDDAV:  cpu time    551.4680: real time    552.7727
 BZINTS: Fermi energy:    4.039981;  112.000000 electrons
         Band energy:-0.219051E+03;  BLOECHL correction:    0.000000
       DOS:  cpu time      0.0086: real time      0.0088
    CHARGE:  cpu time      0.0659: real time      0.0661
    MIXING:  cpu time      0.0003: real time      0.0003
    --------------------------------------------
      LOOP:  cpu time    551.9151: real time    553.2334

 eigenvalue-minimisations  :  3996
 total energy-change (2. order) : 0.5788873E+01  (-0.6612827E+00)
 number of electron     111.9999997 magnetization 
 augmentation part      -15.9877336 magnetization 

 Free energy of the ion-electron system (eV)
  ---------------------------------------------------
  alpha Z        PSCENC =        44.85403091
  Ewald energy   TEWEN  =     -4141.68316538
  -Hartree energ DENC   =      -667.18604955
  -exchange      EXHF   =       190.87049429
  -V(xc)+E(xc)   XCENC  =      -181.82095885
  PAW double counting   =      7807.41677439    -7431.99901936
  entropy T*S    EENTRO =         0.00000000
  eigenvalues    EBANDS =      -219.05148369
  atomic energy  EATOM  =      4490.65986132
  Solvation  Ediel_sol  =         0.00000000
  ---------------------------------------------------
  free energy    TOTEN  =      -107.93951593 eV

  energy without entropy =     -107.93951593  energy(sigma->0) =     -107.93951593
  exchange ACFDT corr.  =         0.00000000  see jH, gK, PRB 81, 115126


--------------------------------------------------------------------------------------------------------




--------------------------------------- Iteration      1(   7)  ---------------------------------------


    POTLOK:  cpu time      0.0643: real time      0.0753
    SETDIJ:  cpu time      0.3073: real time      0.3080
     EDDAV:  cpu time    552.4722: real time    553.8023
 BZINTS: Fermi energy:    4.221746;  112.000000 electrons
         Band energy:-0.204446E+03;  BLOECHL correction:    0.000000
       DOS:  cpu time      0.0094: real time      0.0095
    CHARGE:  cpu time      0.0659: real time      0.0661
    MIXING:  cpu time      0.0003: real time      0.0003
    --------------------------------------------
      LOOP:  cpu time    552.9195: real time    554.2616

 eigenvalue-minimisations  :  3960
 total energy-change (2. order) :-0.3504112E+00  (-0.3488915E+00)
 number of electron     111.9999997 magnetization 
 augmentation part      -15.8621542 magnetization 

 Free energy of the ion-electron system (eV)
  ---------------------------------------------------
  alpha Z        PSCENC =        44.85403091
  Ewald energy   TEWEN  =     -4141.68316538
  -Hartree energ DENC   =      -678.05844970
  -exchange      EXHF   =       186.04522746
  -V(xc)+E(xc)   XCENC  =      -180.82710383
  PAW double counting   =     13113.37933999   -12738.21319851
  entropy T*S    EENTRO =         0.00000000
  eigenvalues    EBANDS =      -204.44646937
  atomic energy  EATOM  =      4490.65986132
  Solvation  Ediel_sol  =         0.00000000
  ---------------------------------------------------
  free energy    TOTEN  =      -108.28992712 eV

  energy without entropy =     -108.28992712  energy(sigma->0) =     -108.28992712
  exchange ACFDT corr.  =         0.00000000  see jH, gK, PRB 81, 115126


--------------------------------------------------------------------------------------------------------




--------------------------------------- Iteration      1(   8)  ---------------------------------------


    POTLOK:  cpu time      0.0635: real time      0.0753
    SETDIJ:  cpu time      0.3069: real time      0.3076
     EDDAV:  cpu time    552.5204: real time    553.8457
 BZINTS: Fermi energy:    4.235246;  112.000000 electrons
         Band energy:-0.205646E+03;  BLOECHL correction:    0.000000
       DOS:  cpu time      0.0090: real time      0.0092
    CHARGE:  cpu time      0.0736: real time      0.0738
    MIXING:  cpu time      0.0006: real time      0.0006
    --------------------------------------------
      LOOP:  cpu time    552.9741: real time    554.3122

 eigenvalue-minimisations  :  4188
 total energy-change (2. order) :-0.2506130E-01  (-0.2338749E-01)
 number of electron     111.9999997 magnetization 
 augmentation part      -15.8990907 magnetization 

 Free energy of the ion-electron system (eV)
  ---------------------------------------------------
  alpha Z        PSCENC =        44.85403091
  Ewald energy   TEWEN  =     -4141.68316538
  -Hartree energ DENC   =      -674.50917868
  -exchange      EXHF   =       183.46536698
  -V(xc)+E(xc)   XCENC  =      -180.77066962
  PAW double counting   =     17923.12848382   -17547.81406452
  entropy T*S    EENTRO =         0.00000000
  eigenvalues    EBANDS =      -205.64565324
  atomic energy  EATOM  =      4490.65986132
  Solvation  Ediel_sol  =         0.00000000
  ---------------------------------------------------
  free energy    TOTEN  =      -108.31498842 eV

  energy without entropy =     -108.31498842  energy(sigma->0) =     -108.31498842
  exchange ACFDT corr.  =         0.00000000  see jH, gK, PRB 81, 115126


--------------------------------------------------------------------------------------------------------




--------------------------------------- Iteration      1(   9)  ---------------------------------------


    POTLOK:  cpu time      0.0728: real time      0.0846
    SETDIJ:  cpu time      0.3194: real time      0.3202
     EDDAV:  cpu time    551.7759: real time    553.0799
 BZINTS: Fermi energy:    4.210132;  112.000000 electrons
         Band energy:-0.208330E+03;  BLOECHL correction:    0.000000
       DOS:  cpu time      0.0089: real time      0.0090
    CHARGE:  cpu time      0.0862: real time      0.0864
    MIXING:  cpu time      0.0004: real time      0.0004
    --------------------------------------------
      LOOP:  cpu time    552.2635: real time    553.5804

 eigenvalue-minimisations  :  3984
 total energy-change (2. order) : 0.6259815E-01  (-0.6645218E-02)
 number of electron     111.9999996 magnetization 
 augmentation part      -15.9349367 magnetization 

 Free energy of the ion-electron system (eV)
  ---------------------------------------------------
  alpha Z        PSCENC =        44.85403091
  Ewald energy   TEWEN  =     -4141.68316538
  -Hartree energ DENC   =      -671.69918759
  -exchange      EXHF   =       183.32235535
  -V(xc)+E(xc)   XCENC  =      -180.77900316
  PAW double counting   =     21048.21561506   -20672.81265314
  entropy T*S    EENTRO =         0.00000000
  eigenvalues    EBANDS =      -208.33024365
  atomic energy  EATOM  =      4490.65986132
  Solvation  Ediel_sol  =         0.00000000
  ---------------------------------------------------
  free energy    TOTEN  =      -108.25239027 eV

  energy without entropy =     -108.25239027  energy(sigma->0) =     -108.25239027
  exchange ACFDT corr.  =         0.00000000  see jH, gK, PRB 81, 115126


--------------------------------------------------------------------------------------------------------




--------------------------------------- Iteration      1(  10)  ---------------------------------------


    POTLOK:  cpu time      0.0808: real time      0.1382
    SETDIJ:  cpu time      0.3150: real time      0.3157
     EDDAV:  cpu time    552.4791: real time    553.7851
 BZINTS: Fermi energy:    4.191465;  112.000000 electrons
         Band energy:-0.208991E+03;  BLOECHL correction:    0.000000
       DOS:  cpu time      0.0097: real time      0.0098
    CHARGE:  cpu time      0.0656: real time      0.0658
    MIXING:  cpu time      0.0004: real time      0.0004
    --------------------------------------------
      LOOP:  cpu time    552.9505: real time    554.3149

 eigenvalue-minimisations  :  4044
 total energy-change (2. order) : 0.2204765E-02  (-0.3436910E-02)
 number of electron     111.9999996 magnetization 
 augmentation part      -15.9552825 magnetization 

 Free energy of the ion-electron system (eV)
  ---------------------------------------------------
  alpha Z        PSCENC =        44.85403091
  Ewald energy   TEWEN  =     -4141.68316538
  -Hartree energ DENC   =      -671.46218305
  -exchange      EXHF   =       183.67497945
  -V(xc)+E(xc)   XCENC  =      -180.70768302
  PAW double counting   =     22821.26422450   -22445.85879146
  entropy T*S    EENTRO =         0.00000000
  eigenvalues    EBANDS =      -208.99145876
  atomic energy  EATOM  =      4490.65986132
  Solvation  Ediel_sol  =         0.00000000
  ---------------------------------------------------
  free energy    TOTEN  =      -108.25018550 eV

  energy without entropy =     -108.25018550  energy(sigma->0) =     -108.25018550
  exchange ACFDT corr.  =         0.00000000  see jH, gK, PRB 81, 115126


--------------------------------------------------------------------------------------------------------




--------------------------------------- Iteration      1(  11)  ---------------------------------------


    POTLOK:  cpu time      0.0627: real time      0.0785
    SETDIJ:  cpu time      0.3068: real time      0.3075
     EDDAV:  cpu time    551.6677: real time    552.9918
 BZINTS: Fermi energy:    4.187729;  112.000000 electrons
         Band energy:-0.208439E+03;  BLOECHL correction:    0.000000
       DOS:  cpu time      0.0129: real time      0.0131
    CHARGE:  cpu time      0.0729: real time      0.0733
    MIXING:  cpu time      0.0020: real time      0.0020
    --------------------------------------------
      LOOP:  cpu time    552.1255: real time    553.4669

 eigenvalue-minimisations  :  3888
 total energy-change (2. order) : 0.1488748E-02  (-0.2584153E-03)
 number of electron     111.9999996 magnetization 
 augmentation part      -15.9601742 magnetization 

 Free energy of the ion-electron system (eV)
  ---------------------------------------------------
  alpha Z        PSCENC =        44.85403091
  Ewald energy   TEWEN  =     -4141.68316538
  -Hartree energ DENC   =      -672.27547979
  -exchange      EXHF   =       183.86895734
  -V(xc)+E(xc)   XCENC  =      -180.61634865
  PAW double counting   =     23857.17192336   -23481.78993439
  entropy T*S    EENTRO =         0.00000000
  eigenvalues    EBANDS =      -208.43854147
  atomic energy  EATOM  =      4490.65986132
  Solvation  Ediel_sol  =         0.00000000
  ---------------------------------------------------
  free energy    TOTEN  =      -108.24869675 eV

  energy without entropy =     -108.24869675  energy(sigma->0) =     -108.24869675
  exchange ACFDT corr.  =         0.00000000  see jH, gK, PRB 81, 115126


--------------------------------------------------------------------------------------------------------




--------------------------------------- Iteration      1(  12)  ---------------------------------------


    POTLOK:  cpu time      0.0864: real time      0.1017
    SETDIJ:  cpu time      0.3131: real time      0.3145
     EDDAV:  cpu time    553.1600: real time    556.0604
 BZINTS: Fermi energy:    4.188261;  112.000000 electrons
         Band energy:-0.207865E+03;  BLOECHL correction:    0.000000
       DOS:  cpu time      0.0122: real time      0.0196
    CHARGE:  cpu time      0.0709: real time      0.0720
    MIXING:  cpu time      0.0017: real time      0.0017
    --------------------------------------------
      LOOP:  cpu time    553.6447: real time    556.5703

 eigenvalue-minimisations  :  3912
 total energy-change (2. order) : 0.5979275E-03  (-0.1229223E-03)
 number of electron     111.9999996 magnetization 
 augmentation part      -15.9620521 magnetization 

 Free energy of the ion-electron system (eV)
  ---------------------------------------------------
  alpha Z        PSCENC =        44.85403091
  Ewald energy   TEWEN  =     -4141.68316538
  -Hartree energ DENC   =      -672.89185031
  -exchange      EXHF   =       183.86761892
  -V(xc)+E(xc)   XCENC  =      -180.55719485
  PAW double counting   =     24500.83523883   -24125.46803681
  entropy T*S    EENTRO =         0.00000000
  eigenvalues    EBANDS =      -207.86460146
  atomic energy  EATOM  =      4490.65986132
  Solvation  Ediel_sol  =         0.00000000
  ---------------------------------------------------
  free energy    TOTEN  =      -108.24809883 eV

  energy without entropy =     -108.24809883  energy(sigma->0) =     -108.24809883
  exchange ACFDT corr.  =         0.00000000  see jH, gK, PRB 81, 115126


--------------------------------------------------------------------------------------------------------




--------------------------------------- Iteration      1(  13)  ---------------------------------------


    POTLOK:  cpu time      0.0731: real time      0.1107
    SETDIJ:  cpu time      0.3141: real time      0.3163
     EDDAV:  cpu time    553.5580: real time    554.8774
 BZINTS: Fermi energy:    4.214531;  112.000000 electrons
         Band energy:-0.207559E+03;  BLOECHL correction:    0.000000
       DOS:  cpu time      0.0089: real time      0.0089
    CHARGE:  cpu time      0.0665: real time      0.0667
    MIXING:  cpu time      0.0003: real time      0.0003
    --------------------------------------------
      LOOP:  cpu time    554.0200: real time    555.3791

 eigenvalue-minimisations  :  3840
 total energy-change (2. order) :-0.8630369E-04  (-0.4243669E-04)
 number of electron     111.9999996 magnetization 
 augmentation part      -15.9630459 magnetization 

 Free energy of the ion-electron system (eV)
  ---------------------------------------------------
  alpha Z        PSCENC =        44.85403091
  Ewald energy   TEWEN  =     -4141.68316538
  -Hartree energ DENC   =      -673.18387090
  -exchange      EXHF   =       183.82972614
  -V(xc)+E(xc)   XCENC  =      -180.52777465
  PAW double counting   =     24903.53611062   -24528.17430018
  entropy T*S    EENTRO =         0.00000000
  eigenvalues    EBANDS =      -207.55880300
  atomic energy  EATOM  =      4490.65986132
  Solvation  Ediel_sol  =         0.00000000
  ---------------------------------------------------
  free energy    TOTEN  =      -108.24818513 eV

  energy without entropy =     -108.24818513  energy(sigma->0) =     -108.24818513
  exchange ACFDT corr.  =         0.00000000  see jH, gK, PRB 81, 115126


--------------------------------------------------------------------------------------------------------




--------------------------------------- Iteration      1(  14)  ---------------------------------------


    POTLOK:  cpu time      0.0590: real time      0.0599
    SETDIJ:  cpu time      0.3065: real time      0.3072
     EDDAV:  cpu time    553.1545: real time    554.4658
 BZINTS: Fermi energy:    4.215164;  112.000000 electrons
         Band energy:-0.207425E+03;  BLOECHL correction:    0.000000
       DOS:  cpu time      0.0090: real time      0.0091
    CHARGE:  cpu time      0.0658: real time      0.0659
    MIXING:  cpu time      0.0003: real time      0.0003
    --------------------------------------------
      LOOP:  cpu time    553.5950: real time    554.9082

 eigenvalue-minimisations  :  3936
 total energy-change (2. order) :-0.1048184E-03  (-0.1031350E-04)
 number of electron     111.9999996 magnetization 
 augmentation part      -15.9638498 magnetization 

 Free energy of the ion-electron system (eV)
  ---------------------------------------------------
  alpha Z        PSCENC =        44.85403091
  Ewald energy   TEWEN  =     -4141.68316538
  -Hartree energ DENC   =      -673.31041961
  -exchange      EXHF   =       183.80980876
  -V(xc)+E(xc)   XCENC  =      -180.51349715
  PAW double counting   =     25147.94543576   -24772.58516046
  entropy T*S    EENTRO =         0.00000000
  eigenvalues    EBANDS =      -207.42518409
  atomic energy  EATOM  =      4490.65986132
  Solvation  Ediel_sol  =         0.00000000
  ---------------------------------------------------
  free energy    TOTEN  =      -108.24828995 eV

  energy without entropy =     -108.24828995  energy(sigma->0) =     -108.24828995
  exchange ACFDT corr.  =         0.00000000  see jH, gK, PRB 81, 115126


--------------------------------------------------------------------------------------------------------




--------------------------------------- Iteration      1(  15)  ---------------------------------------


    POTLOK:  cpu time      0.0591: real time      0.0599
    SETDIJ:  cpu time      0.3085: real time      0.3092
     EDDAV:  cpu time    554.2990: real time    555.6102
 BZINTS: Fermi energy:    4.215698;  112.000000 electrons
         Band energy:-0.207349E+03;  BLOECHL correction:    0.000000
       DOS:  cpu time      0.0089: real time      0.0089
    CHARGE:  cpu time      0.0665: real time      0.0667
    MIXING:  cpu time      0.0003: real time      0.0003
    --------------------------------------------
      LOOP:  cpu time    554.7423: real time    556.0552

 eigenvalue-minimisations  :  3840
 total energy-change (2. order) :-0.7676292E-04  (-0.4145558E-05)
 number of electron     111.9999996 magnetization 
 augmentation part      -15.9644150 magnetization 

 Free energy of the ion-electron system (eV)
  ---------------------------------------------------
  alpha Z        PSCENC =        44.85403091
  Ewald energy   TEWEN  =     -4141.68316538
  -Hartree energ DENC   =      -673.39137817
  -exchange      EXHF   =       183.80703598
  -V(xc)+E(xc)   XCENC  =      -180.50486455
  PAW double counting   =     25291.51943025   -24916.15999841
  entropy T*S    EENTRO =         0.00000000
  eigenvalues    EBANDS =      -207.34931866
  atomic energy  EATOM  =      4490.65986132
  Solvation  Ediel_sol  =         0.00000000
  ---------------------------------------------------
  free energy    TOTEN  =      -108.24836671 eV

  energy without entropy =     -108.24836671  energy(sigma->0) =     -108.24836671
  exchange ACFDT corr.  =         0.00000000  see jH, gK, PRB 81, 115126


--------------------------------------------------------------------------------------------------------




--------------------------------------- Iteration      1(  16)  ---------------------------------------


    POTLOK:  cpu time      0.0592: real time      0.0600
    SETDIJ:  cpu time      0.3079: real time      0.3086
     EDDAV:  cpu time    553.8568: real time    555.2018
 BZINTS: Fermi energy:    4.216194;  112.000000 electrons
         Band energy:-0.207290E+03;  BLOECHL correction:    0.000000
       DOS:  cpu time      0.0088: real time      0.0088
    CHARGE:  cpu time      0.0765: real time      0.0766
    MIXING:  cpu time      0.0006: real time      0.0006
    --------------------------------------------
      LOOP:  cpu time    554.3096: real time    555.6564

 eigenvalue-minimisations  :  3456
 total energy-change (2. order) :-0.4937549E-04  (-0.1706784E-05)
 number of electron     111.9999996 magnetization 
 augmentation part      -15.9646499 magnetization 

 Free energy of the ion-electron system (eV)
  ---------------------------------------------------
  alpha Z        PSCENC =        44.85403091
  Ewald energy   TEWEN  =     -4141.68316538
  -Hartree energ DENC   =      -673.45749534
  -exchange      EXHF   =       183.80859483
  -V(xc)+E(xc)   XCENC  =      -180.49884781
  PAW double counting   =     25375.34070085   -24999.98206640
  entropy T*S    EENTRO =         0.00000000
  eigenvalues    EBANDS =      -207.29002906
  atomic energy  EATOM  =      4490.65986132
  Solvation  Ediel_sol  =         0.00000000
  ---------------------------------------------------
  free energy    TOTEN  =      -108.24841609 eV

  energy without entropy =     -108.24841609  energy(sigma->0) =     -108.24841609
  exchange ACFDT corr.  =         0.00000000  see jH, gK, PRB 81, 115126


--------------------------------------------------------------------------------------------------------




--------------------------------------- Iteration      1(  17)  ---------------------------------------


    POTLOK:  cpu time      0.0624: real time      0.0632
    SETDIJ:  cpu time      0.3176: real time      0.3183
     EDDAV:  cpu time    553.2126: real time    554.5311
 BZINTS: Fermi energy:    4.216622;  112.000000 electrons
         Band energy:-0.207244E+03;  BLOECHL correction:    0.000000
       DOS:  cpu time      0.0098: real time      0.0098
    CHARGE:  cpu time      0.0745: real time      0.0747
    MIXING:  cpu time      0.0006: real time      0.0006
    --------------------------------------------
      LOOP:  cpu time    553.6776: real time    554.9979

 eigenvalue-minimisations  :  3144
 total energy-change (2. order) :-0.2949642E-04  (-0.9627812E-06)
 number of electron     111.9999996 magnetization 
 augmentation part      -15.9647973 magnetization 

 Free energy of the ion-electron system (eV)
  ---------------------------------------------------
  alpha Z        PSCENC =        44.85403091
  Ewald energy   TEWEN  =     -4141.68316538
  -Hartree energ DENC   =      -673.50802021
  -exchange      EXHF   =       183.80923038
  -V(xc)+E(xc)   XCENC  =      -180.49468823
  PAW double counting   =     25425.19856148   -25049.84048870
  entropy T*S    EENTRO =         0.00000000
  eigenvalues    EBANDS =      -207.24376715
  atomic energy  EATOM  =      4490.65986132
  Solvation  Ediel_sol  =         0.00000000
  ---------------------------------------------------
  free energy    TOTEN  =      -108.24844558 eV

  energy without entropy =     -108.24844558  energy(sigma->0) =     -108.24844558
  exchange ACFDT corr.  =         0.00000000  see jH, gK, PRB 81, 115126


--------------------------------------------------------------------------------------------------------




--------------------------------------- Iteration      1(  18)  ---------------------------------------


    POTLOK:  cpu time      0.0635: real time      0.0643
    SETDIJ:  cpu time      0.3170: real time      0.3177
     EDDAV:  cpu time    555.3421: real time    556.6685
 BZINTS: Fermi energy:    4.216955;  112.000000 electrons
         Band energy:-0.207211E+03;  BLOECHL correction:    0.000000
       DOS:  cpu time      0.0131: real time      0.0131
    CHARGE:  cpu time      0.0689: real time      0.0690
    MIXING:  cpu time      0.0016: real time      0.0016
    --------------------------------------------
      LOOP:  cpu time    555.8060: real time    557.1342

 eigenvalue-minimisations  :  3048
 total energy-change (2. order) :-0.1697650E-04  (-0.4466121E-06)
 number of electron     111.9999996 magnetization 
 augmentation part      -15.9648529 magnetization 

 Free energy of the ion-electron system (eV)
  ---------------------------------------------------
  alpha Z        PSCENC =        44.85403091
  Ewald energy   TEWEN  =     -4141.68316538
  -Hartree energ DENC   =      -673.54296190
  -exchange      EXHF   =       183.80888912
  -V(xc)+E(xc)   XCENC  =      -180.49200563
  PAW double counting   =     25454.92478584   -25079.56702261
  entropy T*S    EENTRO =         0.00000000
  eigenvalues    EBANDS =      -207.21087423
  atomic energy  EATOM  =      4490.65986132
  Solvation  Ediel_sol  =         0.00000000
  ---------------------------------------------------
  free energy    TOTEN  =      -108.24846256 eV

  energy without entropy =     -108.24846256  energy(sigma->0) =     -108.24846256
  exchange ACFDT corr.  =         0.00000000  see jH, gK, PRB 81, 115126


--------------------------------------------------------------------------------------------------------




--------------------------------------- Iteration      1(  19)  ---------------------------------------


    POTLOK:  cpu time      0.0889: real time      0.0898
    SETDIJ:  cpu time      0.3228: real time      0.3236
     EDDAV:  cpu time    554.0482: real time    557.0126
 BZINTS: Fermi energy:    4.217198;  112.000000 electrons
         Band energy:-0.207189E+03;  BLOECHL correction:    0.000000
       DOS:  cpu time      0.0110: real time      0.0153
    --------------------------------------------
      LOOP:  cpu time    554.4710: real time    557.4414

 eigenvalue-minimisations  :  2856
 total energy-change (2. order) :-0.9549623E-05  (-0.2148392E-06)
 number of electron     111.9999996 magnetization 
 augmentation part      -15.9648529 magnetization 

 Free energy of the ion-electron system (eV)
  ---------------------------------------------------
  alpha Z        PSCENC =        44.85403091
  Ewald energy   TEWEN  =     -4141.68316538
  -Hartree energ DENC   =      -673.56576012
  -exchange      EXHF   =       183.80837681
  -V(xc)+E(xc)   XCENC  =      -180.49032888
  PAW double counting   =     25472.85255968   -25097.49493272
  entropy T*S    EENTRO =         0.00000000
  eigenvalues    EBANDS =      -207.18911373
  atomic energy  EATOM  =      4490.65986132
  Solvation  Ediel_sol  =         0.00000000
  ---------------------------------------------------
  free energy    TOTEN  =      -108.24847211 eV

  energy without entropy =     -108.24847211  energy(sigma->0) =     -108.24847211
  exchange ACFDT corr.  =         0.00000000  see jH, gK, PRB 81, 115126


--------------------------------------------------------------------------------------------------------




 average (electrostatic) potential at core
  the test charge radii are     1.1712  0.9698
  (the norm of the test charge is              1.0000)
       1 -84.6030       2 -84.6030       3 -84.6030       4 -84.6030       5 -84.6315
       6 -84.6315       7 -84.6315       8 -84.6315       9 -82.7964      10 -82.7964
      11 -82.7964      12 -82.7964      13 -82.8107      14 -82.8107      15 -82.8107
      16 -82.8107      17 -82.9007      18 -82.9007      19 -82.9007      20 -82.9007
 
 
 
 E-fermi :   4.2172     XC(G=0):  -7.5923     alpha+bet :-10.3158

 Fermi energy:         4.2171980668

 k-point     1 :       0.0000    0.0000    0.0000
  band No.  band energies     occupation 
      1     -11.5072      2.00000
      2     -11.3155      2.00000
      3     -10.7982      2.00000
      4     -10.6886      2.00000
      5     -10.5343      2.00000
      6     -10.3817      2.00000
      7      -9.6454      2.00000
      8      -9.3724      2.00000
      9      -9.3666      2.00000
     10      -9.1546      2.00000
     11      -9.0827      2.00000
     12      -9.0086      2.00000
     13      -5.5481      2.00000
     14      -5.3254      2.00000
     15      -5.1274      2.00000
     16      -4.6240      2.00000
     17      -4.4287      2.00000
     18      -4.3463      2.00000
     19      -3.1499      2.00000
     20      -2.6391      2.00000
     21      -0.8758      2.00000
     22      -0.7903      2.00000
     23      -0.4169      2.00000
     24      -0.2255      2.00000
     25       0.0883      2.00000
     26       0.3460      2.00000
     27       0.3463      2.00000
     28       0.4050      2.00000
     29       0.5930      2.00000
     30       0.8350      2.00000
     31       0.9976      2.00000
     32       1.1315      2.00000
     33       1.1401      2.00000
     34       1.2587      2.00000
     35       1.3943      2.00000
     36       1.5730      2.00000
     37       1.6361      2.00000
     38       1.7343      2.00000
     39       1.9400      2.00000
     40       2.0059      2.00000
     41       2.1885      2.00000
     42       2.5795      2.00000
     43       2.6510      2.00000
     44       2.6597      2.00000
     45       2.7679      2.00000
     46       2.9069      2.00000
     47       2.9096      2.00000
     48       2.9255      2.00000
     49       2.9697      2.00000
     50       2.9936      2.00000
     51       3.5829      2.00000
     52       3.6919      2.00000
     53       3.8498      2.00000
     54       3.9222      2.00000
     55       4.0411      2.00000
     56       4.1925      2.00000
     57       6.2936      0.00000
     58       6.3290      0.00000
     59       6.3445      0.00000
     60       6.5437      0.00000
     61       6.8543      0.00000
     62       6.9342      0.00000
     63       7.3328      0.00000
     64       7.5278      0.00000
     65       7.6013      0.00000
     66       7.6577      0.00000
     67       7.6679      0.00000
     68       7.9533      0.00000
     69       8.1351      0.00000
     70       8.1416      0.00000
     71       8.2484      0.00000
     72       8.4267      0.00000
     73       8.4475      0.00000
     74       8.5562      0.00000
     75       8.8158      0.00000
     76       9.1335      0.00000
     77       9.2715      0.00000
     78       9.5683      0.00000
     79       9.9527      0.00000
     80      10.1059      0.00000
     81      10.1494      0.00000
     82      10.2563      0.00000
     83      11.4337      0.00000
     84      11.6573      0.00000
     85      11.7689      0.00000
     86      12.2962      0.00000
     87      12.3813      0.00000
     88      12.4594      0.00000
     89      12.6059      0.00000
     90      12.7018      0.00000
     91      12.8780      0.00000
     92      13.3161      0.00000
     93      13.3258      0.00000
     94      13.3899      0.00000
     95      13.4412      0.00000
     96      13.5212      0.00000
     97      13.6033      0.00000
     98      13.6625      0.00000
     99      13.7008      0.00000
    100      13.7637      0.00000
    101      13.9018      0.00000
    102      14.3199      0.00000
    103      14.3293      0.00000
    104      14.5919      0.00000
    105      14.6612      0.00000
    106      14.6936      0.00000
    107      14.7921      0.00000
    108      14.9604      0.00000

 k-point     2 :       0.1667    0.0000    0.0000
  band No.  band energies     occupation 
      1     -11.2850      2.00000
      2     -11.1012      2.00000
      3     -10.5967      2.00000
      4     -10.4923      2.00000
      5     -10.3246      2.00000
      6     -10.1906      2.00000
      7      -9.4917      2.00000
      8      -9.2973      2.00000
      9      -9.2593      2.00000
     10      -9.0895      2.00000
     11      -9.0218      2.00000
     12      -8.9917      2.00000
     13      -5.6635      2.00000
     14      -5.4824      2.00000
     15      -5.0753      2.00000
     16      -4.7022      2.00000
     17      -4.5144      2.00000
     18      -4.4405      2.00000
     19      -3.3650      2.00000
     20      -3.0787      2.00000
     21      -0.9022      2.00000
     22      -0.7328      2.00000
     23      -0.5701      2.00000
     24      -0.5103      2.00000
     25      -0.4796      2.00000
     26      -0.4561      2.00000
     27      -0.1487      2.00000
     28      -0.0900      2.00000
     29      -0.0098      2.00000
     30       0.2531      2.00000
     31       0.5120      2.00000
     32       0.6720      2.00000
     33       0.8797      2.00000
[...]
   27.300130    0.615055    0.615474    0.611525    0.000000   -0.000000   -0.000000
   27.328747    0.615958    0.616379    0.612451    0.000000   -0.000000   -0.000000
   27.357363    0.616858    0.617280    0.613374    0.000000   -0.000000   -0.000000
   27.385980    0.617755    0.618179    0.614293    0.000000   -0.000000   -0.000000
   27.414596    0.618648    0.619073    0.615208    0.000000   -0.000000   -0.000000
   27.443213    0.619537    0.619964    0.616120    0.000000   -0.000000   -0.000000
   27.471829    0.620423    0.620852    0.617029    0.000000   -0.000000   -0.000000
   27.500446    0.621306    0.621736    0.617933    0.000000   -0.000000   -0.000000
   27.529062    0.622185    0.622617    0.618835    0.000000   -0.000000   -0.000000
   27.557679    0.623061    0.623495    0.619732    0.000000   -0.000000   -0.000000
   27.586295    0.623934    0.624369    0.620627    0.000000   -0.000000   -0.000000
   27.614912    0.624803    0.625240    0.621518    0.000000   -0.000000   -0.000000
   27.643528    0.625670    0.626108    0.622405    0.000000   -0.000000   -0.000000
   27.672144    0.626532    0.626973    0.623289    0.000000   -0.000000   -0.000000
   27.700761    0.627392    0.627834    0.624170    0.000000   -0.000000   -0.000000
   27.729377    0.628249    0.628692    0.625047    0.000000   -0.000000   -0.000000
   27.757994    0.629102    0.629547    0.625921    0.000000   -0.000000   -0.000000
   27.786610    0.629952    0.630398    0.626792    0.000000   -0.000000   -0.000000
   27.815227    0.630799    0.631247    0.627659    0.000000   -0.000000   -0.000000
   27.843843    0.631643    0.632092    0.628523    0.000000   -0.000000   -0.000000
   27.872460    0.632483    0.632934    0.629384    0.000000   -0.000000   -0.000000
   27.901076    0.633321    0.633773    0.630242    0.000000   -0.000000   -0.000000
   27.929693    0.634155    0.634609    0.631096    0.000000   -0.000000   -0.000000
   27.958309    0.634987    0.635442    0.631947    0.000000   -0.000000   -0.000000
   27.986926    0.635815    0.636272    0.632796    0.000000   -0.000000   -0.000000
   28.015542    0.636641    0.637099    0.633640    0.000000   -0.000000   -0.000000
   28.044159    0.637463    0.637923    0.634482    0.000000   -0.000000   -0.000000
   28.072775    0.638282    0.638744    0.635321    0.000000   -0.000000   -0.000000
   28.101392    0.639099    0.639562    0.636156    0.000000   -0.000000   -0.000000
   28.130008    0.639912    0.640377    0.636989    0.000000   -0.000000   -0.000000
   28.158625    0.640723    0.641189    0.637818    0.000000   -0.000000   -0.000000
   28.187241    0.641530    0.641998    0.638645    0.000000   -0.000000   -0.000000
   28.215858    0.642335    0.642804    0.639468    0.000000   -0.000000   -0.000000
   28.244474    0.643137    0.643607    0.640288    0.000000   -0.000000   -0.000000
   28.273091    0.643936    0.644407    0.641106    0.000000   -0.000000   -0.000000
   28.301707    0.644732    0.645205    0.641920    0.000000   -0.000000   -0.000000
   28.330324    0.645525    0.645999    0.642731    0.000000   -0.000000   -0.000000
   28.358940    0.646315    0.646791    0.643540    0.000000   -0.000000   -0.000000
   28.387557    0.647103    0.647580    0.644345    0.000000   -0.000000   -0.000000
   28.416173    0.647888    0.648366    0.645148    0.000000   -0.000000   -0.000000
   28.444790    0.648670    0.649150    0.645948    0.000000   -0.000000   -0.000000
   28.473406    0.649449    0.649930    0.646744    0.000000   -0.000000   -0.000000
   28.502023    0.650225    0.650708    0.647538    0.000000   -0.000000   -0.000000
   28.530639    0.650999    0.651483    0.648330    0.000000   -0.000000   -0.000000
   28.559256    0.651770    0.652255    0.649118    0.000000   -0.000000   -0.000000
   28.587872    0.652539    0.653025    0.649903    0.000000   -0.000000   -0.000000
   28.616489    0.653304    0.653792    0.650686    0.000000   -0.000000   -0.000000
   28.645105    0.654067    0.654556    0.651466    0.000000   -0.000000   -0.000000
   28.673722    0.654827    0.655318    0.652243    0.000000   -0.000000   -0.000000
   28.702338    0.655585    0.656077    0.653017    0.000000   -0.000000   -0.000000
   28.730955    0.656340    0.656833    0.653789    0.000000   -0.000000   -0.000000
   28.759571    0.657092    0.657587    0.654558    0.000000   -0.000000   -0.000000
   28.788188    0.657842    0.658338    0.655324    0.000000   -0.000000   -0.000000
   28.816804    0.658589    0.659086    0.656087    0.000000   -0.000000   -0.000000
   28.845421    0.659334    0.659832    0.656848    0.000000   -0.000000   -0.000000
   28.874037    0.660076    0.660575    0.657606    0.000000   -0.000000   -0.000000
   28.902653    0.660816    0.661316    0.658362    0.000000   -0.000000   -0.000000
   28.931270    0.661552    0.662054    0.659115    0.000000   -0.000000   -0.000000
   28.959886    0.662287    0.662789    0.659865    0.000000   -0.000000   -0.000000
   28.988503    0.663019    0.663522    0.660612    0.000000   -0.000000   -0.000000
   29.017119    0.663748    0.664253    0.661357    0.000000   -0.000000   -0.000000
   29.045736    0.664475    0.664981    0.662100    0.000000   -0.000000   -0.000000
   29.074352    0.665199    0.665706    0.662839    0.000000   -0.000000   -0.000000
   29.102969    0.665921    0.666429    0.663577    0.000000   -0.000000   -0.000000
   29.131585    0.666641    0.667150    0.664311    0.000000   -0.000000   -0.000000
   29.160202    0.667358    0.667868    0.665043    0.000000   -0.000000   -0.000000
   29.188818    0.668072    0.668584    0.665773    0.000000   -0.000000   -0.000000
   29.217435    0.668785    0.669297    0.666500    0.000000   -0.000000   -0.000000
   29.246051    0.669494    0.670008    0.667225    0.000000   -0.000000   -0.000000
   29.274668    0.670202    0.670716    0.667947    0.000000   -0.000000   -0.000000
   29.303284    0.670907    0.671422    0.668666    0.000000   -0.000000   -0.000000
   29.331901    0.671609    0.672126    0.669384    0.000000   -0.000000   -0.000000
   29.360517    0.672310    0.672827    0.670098    0.000000   -0.000000   -0.000000
   29.389134    0.673008    0.673526    0.670811    0.000000   -0.000000   -0.000000
   29.417750    0.673703    0.674222    0.671520    0.000000   -0.000000   -0.000000
   29.446367    0.674397    0.674917    0.672228    0.000000   -0.000000   -0.000000
   29.474983    0.675087    0.675608    0.672933    0.000000   -0.000000   -0.000000
   29.503600    0.675776    0.676298    0.673636    0.000000   -0.000000   -0.000000
   29.532216    0.676462    0.676985    0.674336    0.000000   -0.000000   -0.000000
   29.560833    0.677147    0.677670    0.675034    0.000000   -0.000000   -0.000000
   29.589449    0.677828    0.678353    0.675729    0.000000   -0.000000   -0.000000
   29.618066    0.678508    0.679033    0.676422    0.000000   -0.000000   -0.000000
   29.646682    0.679185    0.679712    0.677113    0.000000   -0.000000   -0.000000
   29.675299    0.679860    0.680388    0.677802    0.000000   -0.000000   -0.000000
   29.703915    0.680533    0.681061    0.678488    0.000000   -0.000000   -0.000000
   29.732532    0.681204    0.681733    0.679172    0.000000   -0.000000   -0.000000
   29.761148    0.681872    0.682402    0.679854    0.000000   -0.000000   -0.000000
   29.789765    0.682538    0.683069    0.680533    0.000000   -0.000000   -0.000000
   29.818381    0.683202    0.683734    0.681210    0.000000   -0.000000   -0.000000
   29.846998    0.683864    0.684396    0.681885    0.000000   -0.000000   -0.000000
   29.875614    0.684524    0.685057    0.682558    0.000000   -0.000000   -0.000000
   29.904231    0.685181    0.685715    0.683228    0.000000   -0.000000   -0.000000
   29.932847    0.685837    0.686371    0.683896    0.000000   -0.000000   -0.000000
   29.961464    0.686490    0.687025    0.684562    0.000000   -0.000000   -0.000000
   29.990080    0.687141    0.687677    0.685226    0.000000   -0.000000   -0.000000
   30.018697    0.687790    0.688327    0.685887    0.000000   -0.000000   -0.000000
   30.047313    0.688437    0.688975    0.686547    0.000000   -0.000000   -0.000000
   30.075930    0.689082    0.689620    0.687204    0.000000   -0.000000   -0.000000
   30.104546    0.689724    0.690264    0.687859    0.000000   -0.000000   -0.000000
   30.133163    0.690365    0.690905    0.688512    0.000000   -0.000000   -0.000000
   30.161779    0.691003    0.691544    0.689162    0.000000   -0.000000   -0.000000
   30.190395    0.691640    0.692181    0.689811    0.000000   -0.000000   -0.000000
   30.219012    0.692274    0.692817    0.690457    0.000000   -0.000000   -0.000000
   30.247628    0.692907    0.693450    0.691102    0.000000   -0.000000   -0.000000
   30.276245    0.693537    0.694081    0.691744    0.000000   -0.000000   -0.000000
   30.304861    0.694166    0.694710    0.692384    0.000000   -0.000000   -0.000000
   30.333478    0.694792    0.695337    0.693022    0.000000   -0.000000   -0.000000
   30.362094    0.695416    0.695962    0.693658    0.000000   -0.000000   -0.000000
   30.390711    0.696039    0.696585    0.694292    0.000000   -0.000000   -0.000000
   30.419327    0.696659    0.697206    0.694924    0.000000   -0.000000   -0.000000
   30.447944    0.697277    0.697825    0.695554    0.000000   -0.000000   -0.000000
   30.476560    0.697894    0.698442    0.696182    0.000000   -0.000000   -0.000000
   30.505177    0.698508    0.699057    0.696808    0.000000   -0.000000   -0.000000
   30.533793    0.699121    0.699670    0.697431    0.000000   -0.000000   -0.000000
   30.562410    0.699731    0.700281    0.698053    0.000000   -0.000000   -0.000000
   30.591026    0.700340    0.700891    0.698673    0.000000   -0.000000   -0.000000
   30.619643    0.700947    0.701498    0.699291    0.000000   -0.000000   -0.000000
   30.648259    0.701552    0.702103    0.699907    0.000000   -0.000000   -0.000000
   30.676876    0.702155    0.702707    0.700520    0.000000   -0.000000   -0.000000
   30.705492    0.702756    0.703308    0.701132    0.000000   -0.000000   -0.000000
   30.734109    0.703355    0.703908    0.701742    0.000000   -0.000000   -0.000000
   30.762725    0.703952    0.704506    0.702350    0.000000   -0.000000   -0.000000
   30.791342    0.704547    0.705102    0.702956    0.000000   -0.000000   -0.000000
   30.819958    0.705141    0.705696    0.703560    0.000000   -0.000000   -0.000000
   30.848575    0.705732    0.706288    0.704163    0.000000   -0.000000   -0.000000
   30.877191    0.706322    0.706878    0.704763    0.000000   -0.000000   -0.000000
   30.905808    0.706910    0.707467    0.705361    0.000000   -0.000000   -0.000000
   30.934424    0.707496    0.708053    0.705958    0.000000   -0.000000   -0.000000
   30.963041    0.708081    0.708638    0.706552    0.000000   -0.000000   -0.000000
   30.991657    0.708663    0.709221    0.707145    0.000000   -0.000000   -0.000000
   31.020274    0.709244    0.709802    0.707736    0.000000   -0.000000   -0.000000
   31.048890    0.709823    0.710381    0.708325    0.000000   -0.000000   -0.000000
   31.077507    0.710400    0.710959    0.708912    0.000000   -0.000000   -0.000000
   31.106123    0.710975    0.711535    0.709497    0.000000   -0.000000   -0.000000
   31.134740    0.711549    0.712109    0.710081    0.000000   -0.000000   -0.000000
   31.163356    0.712120    0.712681    0.710663    0.000000   -0.000000   -0.000000
   31.191973    0.712691    0.713251    0.711242    0.000000   -0.000000   -0.000000
   31.220589    0.713259    0.713820    0.711820    0.000000   -0.000000   -0.000000
   31.249206    0.713825    0.714387    0.712397    0.000000   -0.000000   -0.000000
   31.277822    0.714390    0.714952    0.712971    0.000000   -0.000000   -0.000000
   31.306439    0.714953    0.715516    0.713544    0.000000   -0.000000   -0.000000
   31.335055    0.715514    0.716077    0.714115    0.000000   -0.000000   -0.000000
   31.363672    0.716074    0.716637    0.714684    0.000000   -0.000000   -0.000000
   31.392288    0.716632    0.717195    0.715251    0.000000   -0.000000   -0.000000
   31.420904    0.717188    0.717752    0.715817    0.000000   -0.000000   -0.000000
   31.449521    0.717743    0.718307    0.716380    0.000000   -0.000000   -0.000000
   31.478137    0.718295    0.718860    0.716942    0.000000   -0.000000   -0.000000
   31.506754    0.718847    0.719412    0.717503    0.000000   -0.000000   -0.000000
   31.535370    0.719396    0.719961    0.718061    0.000000   -0.000000   -0.000000
   31.563987    0.719944    0.720509    0.718618    0.000000   -0.000000   -0.000000
   31.592603    0.720490    0.721056    0.719174    0.000000   -0.000000   -0.000000
   31.621220    0.721034    0.721601    0.719727    0.000000   -0.000000   -0.000000
   31.649836    0.721577    0.722144    0.720279    0.000000   -0.000000   -0.000000
   31.678453    0.722118    0.722685    0.720829    0.000000   -0.000000   -0.000000
   31.707069    0.722658    0.723225    0.721377    0.000000   -0.000000   -0.000000
   31.735686    0.723196    0.723763    0.721924    0.000000   -0.000000   -0.000000
   31.764302    0.723732    0.724300    0.722469    0.000000   -0.000000   -0.000000
   31.792919    0.724267    0.724835    0.723013    0.000000   -0.000000   -0.000000
   31.821535    0.724800    0.725369    0.723554    0.000000   -0.000000   -0.000000
   31.850152    0.725332    0.725900    0.724094    0.000000   -0.000000   -0.000000
   31.878768    0.725862    0.726430    0.724633    0.000000   -0.000000   -0.000000
   31.907385    0.726390    0.726959    0.725170    0.000000   -0.000000   -0.000000
   31.936001    0.726917    0.727486    0.725705    0.000000   -0.000000   -0.000000
   31.964618    0.727442    0.728012    0.726239    0.000000   -0.000000   -0.000000
   31.993234    0.727965    0.728535    0.726771    0.000000   -0.000000   -0.000000
   32.021851    0.728488    0.729058    0.727301    0.000000   -0.000000   -0.000000
   32.050467    0.729008    0.729578    0.727830    0.000000   -0.000000   -0.000000
   32.079084    0.729527    0.730098    0.728357    0.000000   -0.000000   -0.000000
   32.107700    0.730044    0.730615    0.728883    0.000000   -0.000000   -0.000000
   32.136317    0.730560    0.731131    0.729407    0.000000   -0.000000   -0.000000
   32.164933    0.731075    0.731646    0.729929    0.000000   -0.000000   -0.000000
   32.193550    0.731588    0.732159    0.730450    0.000000   -0.000000   -0.000000
   32.222166    0.732099    0.732671    0.730969    0.000000   -0.000000   -0.000000
   32.250783    0.732609    0.733181    0.731487    0.000000   -0.000000   -0.000000
   32.279399    0.733117    0.733689    0.732003    0.000000   -0.000000   -0.000000
   32.308016    0.733624    0.734196    0.732518    0.000000   -0.000000   -0.000000
   32.336632    0.734129    0.734702    0.733031    0.000000   -0.000000   -0.000000
   32.365249    0.734633    0.735206    0.733543    0.000000   -0.000000   -0.000000
   32.393865    0.735136    0.735708    0.734053    0.000000   -0.000000   -0.000000
   32.422482    0.735637    0.736210    0.734562    0.000000   -0.000000   -0.000000
   32.451098    0.736136    0.736709    0.735069    0.000000   -0.000000   -0.000000
   32.479715    0.736634    0.737207    0.735574    0.000000   -0.000000   -0.000000
   32.508331    0.737131    0.737704    0.736078    0.000000   -0.000000   -0.000000
   32.536948    0.737626    0.738199    0.736581    0.000000   -0.000000   -0.000000
   32.565564    0.738119    0.738693    0.737082    0.000000   -0.000000   -0.000000
   32.594181    0.738612    0.739185    0.737582    0.000000   -0.000000   -0.000000
   32.622797    0.739102    0.739676    0.738080    0.000000   -0.000000   -0.000000
   32.651414    0.739592    0.740166    0.738577    0.000000   -0.000000   -0.000000
   32.680030    0.740080    0.740654    0.739072    0.000000   -0.000000   -0.000000
   32.708646    0.740566    0.741141    0.739566    0.000000   -0.000000   -0.000000
   32.737263    0.741051    0.741626    0.740058    0.000000   -0.000000   -0.000000
   32.765879    0.741535    0.742110    0.740549    0.000000   -0.000000   -0.000000
   32.794496    0.742018    0.742592    0.741038    0.000000   -0.000000   -0.000000
   32.823112    0.742498    0.743073    0.741527    0.000000   -0.000000   -0.000000
   32.851729    0.742978    0.743553    0.742013    0.000000   -0.000000   -0.000000
   32.880345    0.743456    0.744031    0.742498    0.000000   -0.000000   -0.000000
   32.908962    0.743933    0.744508    0.742982    0.000000   -0.000000   -0.000000
   32.937578    0.744409    0.744984    0.743465    0.000000   -0.000000   -0.000000
   32.966195    0.744883    0.745458    0.743946    0.000000   -0.000000   -0.000000
   32.994811    0.745355    0.745930    0.744425    0.000000   -0.000000   -0.000000
   33.023428    0.745827    0.746402    0.744903    0.000000   -0.000000   -0.000000
   33.052044    0.746297    0.746872    0.745380    0.000000   -0.000000   -0.000000
   33.080661    0.746765    0.747341    0.745856    0.000000   -0.000000   -0.000000
   33.109277    0.747233    0.747808    0.746330    0.000000   -0.000000   -0.000000
 
 The outermost node in the dielectric function lies at epsilon=  18.4


--------------------------------------------------------------------------------------------------------


    OPTICS:  cpu time     12.5742: real time     13.6483
    4ORBIT:  cpu time      0.0000: real time      0.0000



 total charge

# of ion       s       p       d       tot
------------------------------------------
    1        1.328   0.994   0.079   2.400
    2        1.328   0.994   0.079   2.400
    3        1.328   0.994   0.079   2.400
    4        1.328   0.994   0.079   2.400
    5        1.312   1.033   0.072   2.417
    6        1.312   1.033   0.072   2.417
    7        1.312   1.033   0.072   2.417
    8        1.312   1.033   0.072   2.417
    9        1.352   2.335   0.000   3.687
   10        1.352   2.335   0.000   3.687
   11        1.352   2.335   0.000   3.687
   12        1.352   2.335   0.000   3.687
   13        1.354   2.342   0.000   3.696
   14        1.354   2.342   0.000   3.696
   15        1.354   2.342   0.000   3.696
   16        1.354   2.342   0.000   3.696
   17        1.357   2.329   0.000   3.686
   18        1.357   2.329   0.000   3.686
   19        1.357   2.329   0.000   3.686
   20        1.357   2.329   0.000   3.686
--------------------------------------------------
tot         26.811  36.134   0.602  63.546
 
 BZINTS: Fermi energy:    4.217198;  112.000000 electrons
         Band energy:-0.207189E+03;  BLOECHL correction:    0.000000

 total amount of memory used by VASP MPI-rank0   150112. kBytes
=======================================================================

   base      :      30000. kBytes
   nonl-proj :       7748. kBytes
   fftplans  :       3638. kBytes
   grid      :       3785. kBytes
   one-center:         16. kBytes
   HF        :         67. kBytes
   nonlr-proj:      15229. kBytes
   wavefun   :       4948. kBytes
   fock_wrk  :      84681. kBytes
 
  
  
 General timing and accounting informations for this job:
 ========================================================
  
                  Total CPU time used (sec):    12362.016
                            User time (sec):    10903.092
                          System time (sec):     1458.923
                         Elapsed time (sec):    12410.762
  
                   Maximum memory used (kb):      711036.
                   Average memory used (kb):          N/A
  
                          Minor page faults:      3250059
                          Major page faults:            0
                 Voluntary context switches:        80683
