<?xml version="1.0" encoding="ISO-8859-1"?>
<modeling>
 <generator>
  <i name="program" type="string">vasp </i>
  <i name="version" type="string">6.4.2  </i>
  <i name="subversion" type="string">20Jul23 (build Mar 15 2024 16:31:38) complex                          parallel </i>
  <i name="platform" type="string">LinuxIFC </i>
  <i name="date" type="string">2025 03 27 </i>
  <i name="time" type="string">15:52:14 </i>
 </generator>
 <incar>
  <i type="string" name="PREC">Accurate</i>
  <i type="string" name="ALGO">Normal</i>
  <i type="int" name="ISPIN">     2</i>
  <i type="int" name="NELM">   200</i>
  <i name="EDIFF">      0.00001000</i>
  <i type="int" name="NSW">     0</i>
  <i name="ENCUT">    680.00000000</i>
  <i name="ENAUG">   1360.00000000</i>
  <v name="MAGMOM">      0.60000000      0.60000000</v>
  <i type="logical" name="LREAL"> F  </i>
  <i type="int" name="ISMEAR">     0</i>
  <i name="SIGMA">      0.01000000</i>
  <i type="int" name="LMAXMIX">     4</i>
  <i type="logical" name="LWAVE"> T  </i>
  <i type="logical" name="LCHARG"> T  </i>
  <i type="logical" name="LVTOT"> T  </i>
  <i type="int" name="LORBIT">    11</i>
  <i type="logical" name="LELF"> F  </i>
  <i type="logical" name="LASPH"> T  </i>
  <i type="logical" name="LAECHG"> T  </i>
  <i name="HFSCREEN">      0.20000000</i>
  <i type="logical" name="LHFCALC"> T  </i>
  <i type="string" name="GGA">Pe</i>
  <i type="string" name="PRECFOCK">Accurate</i>
  <i type="logical" name="LDAU"> F  </i>
  <i type="logical" name="LMIXTAU"> T  </i>
 </incar>
 <primitive_cell>
  <structure name="primitive_cell" >
   <crystal>
    <varray name="basis" >
     <v>       3.61541800       0.00000000       2.08736254 </v>
     <v>       1.20513900       3.40864864       2.08736254 </v>
     <v>       0.00000000       0.00000000       4.17472507 </v>
    </varray>
    <i name="volume">     51.44801605 </i>
    <varray name="rec_basis" >
     <v>       0.27659319      -0.09779044       0.00000000 </v>
     <v>       0.00000000       0.29337139       0.00000000 </v>
     <v>      -0.13829660      -0.09779048       0.23953673 </v>
    </varray>
   </crystal>
   <varray name="positions" >
    <v>       0.00000000       0.00000000       0.00000000 </v>
    <v>       0.25000000       0.25000000       0.25000000 </v>
   </varray>
  </structure>
  <varray name="primitive_index" >
   <v type="int" >        1 </v>
   <v type="int" >        2 </v>
  </varray>
 </primitive_cell>
 <kpoints>
  <varray name="kpointlist" >
   <v>       0.00000000       0.00000000       0.00000000 </v>
  </varray>
  <varray name="weights" >
   <v>       1.00000000 </v>
  </varray>
 </kpoints>
 <parameters>
  <separator name="general" >
   <i type="string" name="SYSTEM">unknown system</i>
   <i type="logical" name="LCOMPAT"> F  </i>
  </separator>
  <separator name="electronic" >
   <i type="string" name="PREC">accura</i>
   <i name="ENMAX">    680.00000000</i>
   <i name="ENAUG">   1360.00000000</i>
   <i name="EDIFF">      0.00001000</i>
   <i type="int" name="IALGO">    38</i>
   <i type="int" name="IWAVPR">    10</i>
   <i type="int" name="NBANDS">    24</i>
   <i type="int" name="NBANDSLOW">    -1</i>
   <i type="int" name="NBANDSHIGH">    -1</i>
   <i name="NELECT">     18.00000000</i>
   <i type="int" name="TURBO">     0</i>
   <i type="int" name="IRESTART">     0</i>
   <i type="int" name="NREBOOT">     0</i>
   <i type="int" name="NMIN">     0</i>
   <i name="EREF">      0.00000000</i>
   <separator name="electronic smearing" >
    <i type="int" name="ISMEAR">     0</i>
    <i name="SIGMA">      0.01000000</i>
    <i name="KSPACING">      0.50000000</i>
    <i type="logical" name="KGAMMA"> T  </i>
    <i type="logical" name="KBLOWUP"> T  </i>
   </separator>
   <separator name="electronic projectors" >
    <i type="logical" name="LREAL"> F  </i>
    <v name="ROPT">      0.00000000      0.00000000</v>
    <i type="int" name="LMAXPAW">  -100</i>
    <i type="int" name="LMAXMIX">     4</i>
    <i type="logical" name="NLSPLINE"> F  </i>
   </separator>
   <separator name="electronic startup" >
    <i type="int" name="ISTART">     0</i>
    <i type="int" name="ICHARG">     2</i>
    <i type="int" name="INIWAV">     1</i>
   </separator>
   <separator name="electronic spin" >
    <i type="int" name="ISPIN">     2</i>
    <i type="logical" name="LNONCOLLINEAR"> F  </i>
    <v name="MAGMOM">      0.60000000      0.60000000</v>
    <i name="NUPDOWN">     -1.00000000</i>
    <i type="logical" name="LSORBIT"> F  </i>
    <v name="SAXIS">      0.00000000      0.00000000      1.00000000</v>
    <i type="logical" name="LSPIRAL"> F  </i>
    <v name="QSPIRAL">      0.00000000      0.00000000      0.00000000</v>
    <i type="logical" name="LZEROZ"> F  </i>
   </separator>
   <separator name="electronic exchange-correlation" >
    <i type="logical" name="LASPH"> T  </i>
    <i type="logical" name="LMETAGGA"> F  </i>
   </separator>
   <separator name="electronic convergence" >
    <i type="int" name="NELM">   200</i>
    <i type="int" name="NELMDL">     0</i>
    <i type="int" name="NELMIN">     2</i>
    <i name="ENINI">    680.00000000</i>
    <separator name="electronic convergence detail" >
     <i type="logical" name="LDIAG"> T  </i>
     <i type="logical" name="LSUBROT"> F  </i>
     <i name="WEIMIN">      0.00000000</i>
     <i name="EBREAK">      0.00000010</i>
     <i name="DEPER">      0.30000000</i>
     <i type="int" name="NRMM">     4</i>
     <i name="TIME">      0.40000000</i>
    </separator>
   </separator>
   <separator name="electronic mixer" >
    <i name="AMIX">      0.40000000</i>
    <i name="BMIX">      1.00000000</i>
    <i name="AMIN">      0.10000000</i>
    <i name="AMIX_MAG">      1.60000000</i>
    <i name="BMIX_MAG">      1.00000000</i>
    <separator name="electronic mixer details" >
     <i type="int" name="IMIX">     1</i>
     <i type="logical" name="MIXFIRST"> F  </i>
     <i type="int" name="MAXMIX">   -45</i>
     <i name="WC">    100.00000000</i>
     <i type="int" name="INIMIX">     1</i>
     <i type="int" name="MIXPRE">     1</i>
     <i type="int" name="MREMOVE">     5</i>
    </separator>
   </separator>
   <separator name="electronic dipolcorrection" >
    <i type="logical" name="LDIPOL"> F  </i>
    <i type="logical" name="LMONO"> F  </i>
    <i type="int" name="IDIPOL">     0</i>
    <i name="EPSILON">      1.00000000</i>
    <v name="DIPOL">   -100.00000000   -100.00000000   -100.00000000</v>
    <i name="EFIELD">      0.00000000</i>
   </separator>
  </separator>
  <separator name="grids" >
   <i type="int" name="NGX">    36</i>
   <i type="int" name="NGY">    36</i>
   <i type="int" name="NGZ">    36</i>
   <i type="int" name="NGXF">    72</i>
   <i type="int" name="NGYF">    72</i>
   <i type="int" name="NGZF">    72</i>
   <i type="logical" name="ADDGRID"> F  </i>
  </separator>
  <separator name="ionic" >
   <i type="int" name="NSW">     0</i>
   <i type="int" name="IBRION">    -1</i>
   <i type="int" name="MDALGO">     0</i>
   <i type="int" name="ISIF">     0</i>
   <i name="PSTRESS">      0.00000000</i>
   <i name="EDIFFG">      0.00010000</i>
   <i type="int" name="NFREE">     0</i>
   <i name="POTIM">      0.50000000</i>
   <i name="SMASS">     -3.00000000</i>
   <i name="SCALEE">      1.00000000</i>
  </separator>
  <separator name="ionic md" >
   <i name="TEBEG">      0.00010000</i>
   <i name="TEEND">      0.00010000</i>
   <i type="int" name="NBLOCK">     1</i>
   <i type="int" name="KBLOCK">     1</i>
   <i type="int" name="NPACO">   256</i>
   <i name="APACO">     10.00000000</i>
  </separator>
  <separator name="symmetry" >
   <i type="int" name="ISYM">     3</i>
   <i name="SYMPREC">      0.00001000</i>
  </separator>
  <separator name="dos" >
   <i type="int" name="LORBIT">    11</i>
   <v name="RWIGS">     -1.00000000     -1.00000000</v>
   <i type="int" name="NEDOS">   301</i>
   <i name="EMIN">     10.00000000</i>
   <i name="EMAX">    -10.00000000</i>
   <i name="EFERMI">      0.00000000</i>
  </separator>
  <separator name="writing" >
   <i type="int" name="NWRITE">     2</i>
   <i type="logical" name="LWAVE"> T  </i>
   <i type="logical" name="LDOWNSAMPLE"> F  </i>
   <i type="logical" name="LCHARG"> T  </i>
   <i type="logical" name="LPARD"> F  </i>
   <i type="logical" name="LVTOT"> T  </i>
   <i type="logical" name="LVHAR"> F  </i>
   <i type="logical" name="LELF"> F  </i>
   <i type="logical" name="LOPTICS"> F  </i>
   <v name="STM">      0.00000000      0.00000000      0.00000000      0.00000000      0.00000000      0.00000000      0.00000000</v>
  </separator>
  <separator name="performance" >
   <i type="int" name="NPAR">    12</i>
   <i type="int" name="NSIM">     4</i>
   <i type="int" name="NBLK">    -1</i>
   <i type="logical" name="LPLANE"> T  </i>
   <i type="logical" name="LSCALAPACK"> T  </i>
   <i type="logical" name="LSCAAWARE"> T  </i>
   <i type="logical" name="LSCALU"> F  </i>
   <i type="logical" name="LASYNC"> F  </i>
   <i type="logical" name="LORBITALREAL"> F  </i>
  </separator>
  <separator name="miscellaneous" >
   <i type="int" name="IDIOT">     3</i>
   <i type="int" name="PHON_NSTRUCT">    -1</i>
   <i type="logical" name="LMUSIC"> F  </i>
   <v name="POMASS">    114.82000000     30.97400000</v>
   <v name="DARWINR">      0.00000000      0.00000000</v>
   <v name="DARWINV">      1.00000000      1.00000000</v>
   <i type="logical" name="LCORR"> T  </i>
  </separator>
  <i type="logical" name="GGA_COMPAT"> T  </i>
  <i type="logical" name="LBERRY"> F  </i>
  <i type="int" name="ICORELEVEL">     0</i>
  <i type="logical" name="LDAU"> F  </i>
  <i type="int" name="I_CONSTRAINED_M">     0</i>
  <separator name="electronic exchange-correlation" >
   <i type="string" name="GGA">PE</i>
   <i type="int" name="VOSKOWN">     0</i>
   <i type="logical" name="LHFCALC"> T  </i>
   <i type="string" name="PRECFOCK">accur.</i>
   <i type="logical" name="LSYMGRAD"> F  </i>
   <i type="logical" name="LHFONE"> F  </i>
   <i type="logical" name="LRHFCALC"> F  </i>
   <i type="logical" name="LTHOMAS"> F  </i>
   <i type="logical" name="LMODELHF"> F  </i>
   <i type="logical" name="LFOCKACE"> T  </i>
   <i name="ENCUT4O">     -1.00000000</i>
   <i type="int" name="EXXOEP">     0</i>
   <i type="int" name="FOURORBIT">     0</i>
   <i name="AEXX">      0.25000000</i>
   <i name="HFALPHA">     -1.00000000</i>
   <i name="MCALPHA">      0.00000000</i>
   <i name="ALDAX">      0.75000000</i>
   <i name="AGGAX">      0.75000000</i>
   <i name="ALDAC">      1.00000000</i>
   <i name="AGGAC">      1.00000000</i>
   <i type="int" name="NKREDX">     1</i>
   <i type="int" name="NKREDY">     1</i>
   <i type="int" name="NKREDZ">     1</i>
   <i type="logical" name="SHIFTRED"> F  </i>
   <i type="logical" name="ODDONLY"> F  </i>
   <i type="logical" name="EVENONLY"> F  </i>
   <i type="int" name="LMAXFOCK">     4</i>
   <i type="int" name="NMAXFOCKAE">     1</i>
   <i type="logical" name="LFOCKAEDFT"> F  </i>
   <i name="HFSCREEN">      0.20000000</i>
   <i name="HFSCREENC">      0.20000000</i>
   <i type="int" name="NBANDSGWLOW">     1</i>
  </separator>
  <separator name="vdW DFT" >
   <i type="logical" name="LUSE_VDW"> F  </i>
   <i type="int" name="IVDW_NL">     1</i>
   <i type="logical" name="LSPIN_VDW"> F  </i>
   <i name="Zab_VDW">     -0.84910000</i>
   <i name="PARAM1">      0.12340000</i>
   <i name="PARAM2">      1.00000000</i>
   <i name="PARAM3">      0.00000000</i>
  </separator>
  <separator name="model GW" >
   <i type="int" name="MODEL_GW">     0</i>
   <i name="MODEL_EPS0">     15.43440481</i>
   <i name="MODEL_ALPHA">      1.00000000</i>
  </separator>
  <separator name="linear response parameters" >
   <i type="logical" name="LEPSILON"> F  </i>
   <i type="logical" name="LRPA"> F  </i>
   <i type="logical" name="LNABLA"> F  </i>
   <i type="logical" name="LVEL"> F  </i>
   <i name="CSHIFT">      0.10000000</i>
   <i name="OMEGAMAX">     -1.00000000</i>
   <i name="DEG_THRESHOLD">      0.00200000</i>
   <i name="RTIME">     -0.10000000</i>
   <i name="WPLASMAI">      0.00000000</i>
   <v name="DFIELD">      0.00000000      0.00000000      0.00000000</v>
   <v name="WPLASMA">      0.00000000      0.00000000      0.00000000      0.00000000      0.00000000      0.00000000      0.00000000      0.00000000      0.00000000</v>
  </separator>
  <separator name="orbital magnetization" >
   <i type="logical" name="NUCIND"> F  </i>
   <v name="MAGPOS">      0.00000000      0.00000000      0.00000000</v>
   <i type="logical" name="LNICSALL"> T  </i>
   <i type="logical" name="ORBITALMAG"> F  </i>
   <i type="logical" name="LMAGBLOCH"> F  </i>
   <i type="logical" name="LCHIMAG"> F  </i>
   <i type="logical" name="LGAUGE"> T  </i>
   <i type="int" name="MAGATOM">     0</i>
   <v name="MAGDIPOL">      0.00000000      0.00000000      0.00000000</v>
   <v name="AVECCONST">      0.00000000      0.00000000      0.00000000</v>
  </separator>
  <separator name="response functions" >
   <i type="logical" name="LALL_IN_ONE"> F  </i>
   <i type="int" name="IALL_IN_ONE">    -1</i>
   <i type="int" name="NBANDS_WAVE">    -1</i>
   <i type="logical" name="LFINITE_TEMPERATURE"> F  </i>
   <i type="logical" name="LADDER"> F  </i>
   <i type="logical" name="LRPAFORCE"> F  </i>
   <i type="logical" name="LFXC"> F  </i>
   <i type="logical" name="LHARTREE"> T  </i>
   <i type="int" name="IBSE">     0</i>
   <v type="int" name="KPOINT">    -1     0     0     0</v>
   <i type="logical" name="LTCTC"> F  </i>
   <i type="logical" name="LTCTE"> F  </i>
   <i type="logical" name="LTETE"> F  </i>
   <i type="logical" name="LTRIPLET"> F  </i>
   <i type="logical" name="LFXCEPS"> F  </i>
   <i type="logical" name="LFXHEG"> F  </i>
   <i type="int" name="NATURALO">     2</i>
   <i type="logical" name="LHOLEGF"> F  </i>
   <i type="logical" name="L2ORDER"> F  </i>
   <i type="logical" name="LDMP1"> F  </i>
   <i type="logical" name="LMP2LT"> F  </i>
   <i type="logical" name="LSMP2LT"> F  </i>
   <i type="logical" name="LGWLF"> F  </i>
   <i name="ENCUTGW">     -1.60000002</i>
   <i name="ENCUTGWSOFT">     -1.60000002</i>
   <i name="ENCUTLF">     -1.00000000</i>
   <i type="logical" name="LESF_SPLINES"> F  </i>
   <i type="int" name="LMAXMP2">    -1</i>
   <i name="SCISSOR">      0.00000000</i>
   <i type="int" name="NOMEGA">     0</i>
   <i type="int" name="NOMEGAR">     0</i>
   <i type="int" name="NBANDSGW">    -1</i>
   <i type="int" name="NBANDSO">    -1</i>
   <i type="int" name="NBANDSV">    -1</i>
   <i type="int" name="NELMGW">     1</i>
   <i type="int" name="NELMHF">     1</i>
   <i type="int" name="DIM">     3</i>
   <i type="int" name="IESPILON">     4</i>
   <i type="int" name="ANTIRES">     0</i>
   <i name="OMEGAMAX">    -30.00000000</i>
   <i name="OMEGAMIN">    -30.00000000</i>
   <i name="OMEGATL">   -200.00000000</i>
   <i type="int" name="OMEGAGRID">     0</i>
   <i name="CSHIFT">     -0.10000000</i>
   <i type="logical" name="LSELFENERGY"> F  </i>
   <i type="logical" name="LSPECTRAL"> F  </i>
   <i type="logical" name="LSPECTRALGW"> F  </i>
   <i type="logical" name="LSINGLES"> F  </i>
   <i type="logical" name="LFERMIGW"> F  </i>
   <i type="logical" name="ODDONLYGW"> F  </i>
   <i type="logical" name="EVENONLYGW"> F  </i>
   <i type="int" name="NKREDLFX">     1</i>
   <i type="int" name="NKREDLFY">     1</i>
   <i type="int" name="NKREDLFZ">     1</i>
   <i type="int" name="MAXMEM">  2800</i>
   <i type="int" name="TELESCOPE">     0</i>
   <i type="int" name="NTAUPAR">    -1</i>
   <i type="int" name="NOMEGAPAR">    -1</i>
   <i name="DAMP_NEWTON">      0.80000001</i>
   <i name="LAMBDA">      1.00000000</i>
  </separator>
  <separator name="External order field" >
   <i name="OFIELD_KAPPA">      0.00000000</i>
   <v name="OFIELD_K">      0.00000000      0.00000000      0.00000000</v>
   <i name="OFIELD_Q6_NEAR">      0.00000000</i>
   <i name="OFIELD_Q6_FAR">      0.00000000</i>
   <i name="OFIELD_A">      0.00000000</i>
  </separator>
  <separator name="optional k-points parameters" >
   <i type="int" name="KPOINTS_OPT_MODE">     1</i>
   <i type="logical" name="LKPOINTS_OPT"> F  </i>
  </separator>
 </parameters>
 <atominfo>
  <atoms>       2 </atoms>
  <types>       2 </types>
  <array name="atoms" >
   <dimension dim="1">ion</dimension>
   <field type="string">element</field>
   <field type="int">atomtype</field>
   <set>
    <rc><c>In</c><c>   1</c></rc>
    <rc><c>P </c><c>   2</c></rc>
   </set>
  </array>
  <array name="atomtypes" >
   <dimension dim="1">type</dimension>
   <field type="int">atomspertype</field>
   <field type="string">element</field>
   <field>mass</field>
   <field>valence</field>
   <field type="string">pseudopotential</field>
   <set>
    <rc><c>   1</c><c>In</c><c>    114.82000000</c><c>     13.00000000</c><c>  PAW_PBE In_d 06Sep2000                </c></rc>
    <rc><c>   1</c><c>P </c><c>     30.97400000</c><c>      5.00000000</c><c>  PAW_PBE P 06Sep2000                   </c></rc>
   </set>
  </array>
 </atominfo>
 <structure name="initialpos" >
  <crystal>
   <varray name="basis" >
    <v>       3.61541800       0.00000000       2.08736254 </v>
    <v>       1.20513900       3.40864864       2.08736254 </v>
    <v>       0.00000000       0.00000000       4.17472507 </v>
   </varray>
   <i name="volume">     51.44801605 </i>
   <varray name="rec_basis" >
    <v>       0.27659319      -0.09779044       0.00000000 </v>
    <v>       0.00000000       0.29337139       0.00000000 </v>
    <v>      -0.13829660      -0.09779048       0.23953673 </v>
   </varray>
  </crystal>
  <varray name="positions" >
   <v>       0.00000000       0.00000000       0.00000000 </v>
   <v>       0.25000000       0.25000000       0.25000000 </v>
  </varray>
 </structure>
 <calculation>
  <scstep>
   <time name="dav">    0.05    0.06</time>
   <time name="total">    0.48    0.54</time>
   <energy>
    <i name="alphaZ">     31.71721604 </i>
    <i name="ewald">  -1211.83925518 </i>
    <i name="hartreedc">   -558.38470678 </i>
    <i name="XCdc">     45.06902050 </i>
    <i name="pawpsdc">   1520.64510051 </i>
    <i name="pawaedc">  -2615.50197305 </i>
    <i name="eentropy">     -0.00000000 </i>
    <i name="bandstr">     15.89114345 </i>
    <i name="atom">   1750.64560241 </i>
    <i name="e_fr_energy">  -1021.75785209 </i>
    <i name="e_wo_entrp">  -1021.75785209 </i>
    <i name="e_0_energy">  -1021.75785209 </i>
   </energy>
  </scstep>
  <scstep>
   <time name="dav">    0.04    0.04</time>
   <time name="total">    0.04    0.04</time>
   <energy>
    <i name="e_fr_energy">  -1146.24194749 </i>
    <i name="e_wo_entrp">  -1146.24194749 </i>
    <i name="e_0_energy">  -1146.24194749 </i>
   </energy>
  </scstep>
  <scstep>
   <time name="dav">    0.02    0.04</time>
   <time name="total">    0.02    0.04</time>
   <energy>
    <i name="e_fr_energy">  -1155.78876439 </i>
    <i name="e_wo_entrp">  -1155.78876439 </i>
    <i name="e_0_energy">  -1155.78876439 </i>
   </energy>
  </scstep>
  <scstep>
   <time name="dav">    0.02    0.04</time>
   <time name="total">    0.02    0.04</time>
   <energy>
    <i name="e_fr_energy">  -1155.97614704 </i>
    <i name="e_wo_entrp">  -1155.97614704 </i>
    <i name="e_0_energy">  -1155.97614704 </i>
   </energy>
  </scstep>
  <scstep>
   <time name="dav">    0.17    0.25</time>
   <time name="total">    1.15    1.26</time>
   <energy>
    <i name="e_fr_energy">     -0.51673138 </i>
    <i name="e_wo_entrp">     -0.51673138 </i>
    <i name="e_0_energy">     -0.51673138 </i>
   </energy>
  </scstep>
  <scstep>
   <time name="dav">    0.06    0.06</time>
   <time name="total">    1.02    1.05</time>
   <energy>
    <i name="e_fr_energy">      3.01806760 </i>
    <i name="e_wo_entrp">      3.01806760 </i>
    <i name="e_0_energy">      3.01806760 </i>
   </energy>
  </scstep>
  <scstep>
   <time name="dav">    0.05    0.05</time>
   <time name="total">    1.02    1.05</time>
   <energy>
    <i name="e_fr_energy">      3.12440846 </i>
    <i name="e_wo_entrp">      3.12440846 </i>
    <i name="e_0_energy">      3.12440846 </i>
   </energy>
  </scstep>
  <scstep>
   <time name="dav">    0.05    0.06</time>
   <time name="total">    1.02    1.04</time>
   <energy>
    <i name="e_fr_energy">      3.02494345 </i>
    <i name="e_wo_entrp">      3.02494345 </i>
    <i name="e_0_energy">      3.02494345 </i>
   </energy>
  </scstep>
  <scstep>
   <time name="dav">    0.06    0.06</time>
   <time name="total">    1.03    1.05</time>
   <energy>
    <i name="e_fr_energy">      3.02711545 </i>
    <i name="e_wo_entrp">      3.02711545 </i>
    <i name="e_0_energy">      3.02711545 </i>
   </energy>
  </scstep>
  <scstep>
   <time name="dav">    0.06    0.06</time>
   <time name="total">    1.02    1.04</time>
   <energy>
    <i name="e_fr_energy">      3.03099984 </i>
    <i name="e_wo_entrp">      3.03099984 </i>
    <i name="e_0_energy">      3.03099984 </i>
   </energy>
  </scstep>
  <scstep>
   <time name="dav">    0.05    0.05</time>
   <time name="total">    1.02    1.04</time>
   <energy>
    <i name="e_fr_energy">      3.02928450 </i>
    <i name="e_wo_entrp">      3.02928450 </i>
    <i name="e_0_energy">      3.02928450 </i>
   </energy>
  </scstep>
  <scstep>
   <time name="dav">    0.06    0.06</time>
   <time name="total">    1.02    1.05</time>
   <energy>
    <i name="e_fr_energy">      3.02795761 </i>
    <i name="e_wo_entrp">      3.02795761 </i>
    <i name="e_0_energy">      3.02795761 </i>
   </energy>
  </scstep>
  <scstep>
   <time name="dav">    0.05    0.06</time>
   <time name="total">    1.02    1.05</time>
   <energy>
    <i name="e_fr_energy">      3.02729835 </i>
    <i name="e_wo_entrp">      3.02729835 </i>
    <i name="e_0_energy">      3.02729835 </i>
   </energy>
  </scstep>
  <scstep>
   <time name="dav">    0.06    0.06</time>
   <time name="total">    1.02    1.05</time>
   <energy>
    <i name="e_fr_energy">      3.02676292 </i>
    <i name="e_wo_entrp">      3.02676292 </i>
    <i name="e_0_energy">      3.02676292 </i>
   </energy>
  </scstep>
  <scstep>
   <time name="dav">    0.06    0.06</time>
   <time name="total">    1.02    1.05</time>
   <energy>
    <i name="e_fr_energy">      3.02597495 </i>
    <i name="e_wo_entrp">      3.02597495 </i>
    <i name="e_0_energy">      3.02597495 </i>
   </energy>
  </scstep>
  <scstep>
   <time name="dav">    0.06    0.06</time>
   <time name="total">    1.03    1.05</time>
   <energy>
    <i name="e_fr_energy">      3.02427779 </i>
    <i name="e_wo_entrp">      3.02427779 </i>
    <i name="e_0_energy">      3.02427779 </i>
   </energy>
  </scstep>
  <scstep>
   <time name="dav">    0.06    0.06</time>
   <time name="total">    1.02    1.05</time>
   <energy>
    <i name="e_fr_energy">      3.02011181 </i>
    <i name="e_wo_entrp">      3.02011181 </i>
    <i name="e_0_energy">      3.02011181 </i>
   </energy>
  </scstep>
  <scstep>
   <time name="dav">    0.06    0.06</time>
   <time name="total">    1.02    1.05</time>
   <energy>
    <i name="e_fr_energy">      3.00971216 </i>
    <i name="e_wo_entrp">      3.00971216 </i>
    <i name="e_0_energy">      3.00971216 </i>
   </energy>
  </scstep>
  <scstep>
   <time name="dav">    0.06    0.06</time>
   <time name="total">    1.02    1.05</time>
   <energy>
    <i name="e_fr_energy">      2.98453567 </i>
    <i name="e_wo_entrp">      2.98453567 </i>
    <i name="e_0_energy">      2.98453567 </i>
   </energy>
  </scstep>
  <scstep>
   <time name="dav">    0.06    0.06</time>
   <time name="total">    1.03    1.05</time>
   <energy>
    <i name="e_fr_energy">      2.92848078 </i>
    <i name="e_wo_entrp">      2.92848078 </i>
    <i name="e_0_energy">      2.92848078 </i>
   </energy>
  </scstep>
  <scstep>
   <time name="dav">    0.06    0.06</time>
   <time name="total">    1.02    1.04</time>
   <energy>
    <i name="e_fr_energy">      2.82384322 </i>
    <i name="e_wo_entrp">      2.82384322 </i>
    <i name="e_0_energy">      2.82384322 </i>
   </energy>
  </scstep>
  <scstep>
   <time name="dav">    0.06    0.06</time>
   <time name="total">    1.02    1.05</time>
   <energy>
    <i name="e_fr_energy">      2.68082112 </i>
    <i name="e_wo_entrp">      2.68082112 </i>
    <i name="e_0_energy">      2.68082112 </i>
   </energy>
  </scstep>
  <scstep>
   <time name="dav">    0.06    0.06</time>
   <time name="total">    1.03    1.05</time>
   <energy>
    <i name="e_fr_energy">      2.55561242 </i>
    <i name="e_wo_entrp">      2.55561242 </i>
    <i name="e_0_energy">      2.55561242 </i>
   </energy>
  </scstep>
  <scstep>
   <time name="dav">    0.06    0.06</time>
   <time name="total">    1.03    1.05</time>
   <energy>
    <i name="e_fr_energy">      2.48925515 </i>
    <i name="e_wo_entrp">      2.48925515 </i>
    <i name="e_0_energy">      2.48925515 </i>
   </energy>
  </scstep>
  <scstep>
   <time name="dav">    0.06    0.06</time>
   <time name="total">    1.03    1.05</time>
   <energy>
    <i name="e_fr_energy">      2.46737245 </i>
    <i name="e_wo_entrp">      2.46737245 </i>
    <i name="e_0_energy">      2.46737245 </i>
   </energy>
  </scstep>
  <scstep>
   <time name="dav">    0.06    0.06</time>
   <time name="total">    1.02    1.05</time>
   <energy>
    <i name="e_fr_energy">      2.46267018 </i>
    <i name="e_wo_entrp">      2.46267018 </i>
    <i name="e_0_energy">      2.46267018 </i>
   </energy>
  </scstep>
  <scstep>
   <time name="dav">    0.06    0.06</time>
   <time name="total">    1.02    1.05</time>
   <energy>
    <i name="e_fr_energy">      2.46169352 </i>
    <i name="e_wo_entrp">      2.46169352 </i>
    <i name="e_0_energy">      2.46169352 </i>
   </energy>
  </scstep>
  <scstep>
   <time name="dav">    0.06    0.06</time>
   <time name="total">    1.03    1.05</time>
   <energy>
    <i name="e_fr_energy">      2.46092741 </i>
    <i name="e_wo_entrp">      2.46092741 </i>
    <i name="e_0_energy">      2.46092741 </i>
   </energy>
  </scstep>
  <scstep>
   <time name="dav">    0.05    0.05</time>
   <time name="total">    1.02    1.04</time>
   <energy>
    <i name="e_fr_energy">      2.46002861 </i>
    <i name="e_wo_entrp">      2.46002861 </i>
    <i name="e_0_energy">      2.46002861 </i>
   </energy>
  </scstep>
  <scstep>
   <time name="dav">    0.06    0.06</time>
   <time name="total">    1.02    1.05</time>
   <energy>
    <i name="e_fr_energy">      2.45916396 </i>
    <i name="e_wo_entrp">      2.45916396 </i>
    <i name="e_0_energy">      2.45916396 </i>
   </energy>
  </scstep>
  <scstep>
   <time name="dav">    0.06    0.06</time>
   <time name="total">    1.03    1.05</time>
   <energy>
    <i name="e_fr_energy">      2.45841421 </i>
    <i name="e_wo_entrp">      2.45841421 </i>
    <i name="e_0_energy">      2.45841421 </i>
   </energy>
  </scstep>
  <scstep>
   <time name="dav">    0.05    0.05</time>
   <time name="total">    1.02    1.04</time>
   <energy>
    <i name="e_fr_energy">      2.45777543 </i>
    <i name="e_wo_entrp">      2.45777543 </i>
    <i name="e_0_energy">      2.45777543 </i>
   </energy>
  </scstep>
  <scstep>
   <time name="dav">    0.06    0.06</time>
   <time name="total">    1.02    1.05</time>
   <energy>
    <i name="e_fr_energy">      2.45722819 </i>
    <i name="e_wo_entrp">      2.45722819 </i>
    <i name="e_0_energy">      2.45722819 </i>
   </energy>
  </scstep>
  <scstep>
   <time name="dav">    0.05    0.05</time>
   <time name="total">    1.02    1.04</time>
   <energy>
    <i name="e_fr_energy">      2.45675371 </i>
    <i name="e_wo_entrp">      2.45675371 </i>
    <i name="e_0_energy">      2.45675371 </i>
   </energy>
  </scstep>
  <scstep>
   <time name="dav">    0.06    0.06</time>
   <time name="total">    1.03    1.06</time>
   <energy>
    <i name="e_fr_energy">      2.45634016 </i>
    <i name="e_wo_entrp">      2.45634016 </i>
    <i name="e_0_energy">      2.45634016 </i>
   </energy>
  </scstep>
  <scstep>
   <time name="dav">    0.06    0.06</time>
   <time name="total">    1.04    1.06</time>
   <energy>
    <i name="e_fr_energy">      2.45597905 </i>
    <i name="e_wo_entrp">      2.45597905 </i>
    <i name="e_0_energy">      2.45597905 </i>
   </energy>
  </scstep>
  <scstep>
   <time name="dav">    0.07    0.07</time>
   <time name="total">    1.07    1.10</time>
   <energy>
    <i name="e_fr_energy">      2.45566354 </i>
    <i name="e_wo_entrp">      2.45566354 </i>
    <i name="e_0_energy">      2.45566354 </i>
   </energy>
  </scstep>
  <scstep>
   <time name="dav">    0.06    0.06</time>
   <time name="total">    1.07    1.09</time>
   <energy>
    <i name="e_fr_energy">      2.45538702 </i>
    <i name="e_wo_entrp">      2.45538702 </i>
    <i name="e_0_energy">      2.45538702 </i>
   </energy>
  </scstep>
  <scstep>
   <time name="dav">    0.06    0.06</time>
   <time name="total">    1.05    1.08</time>
   <energy>
    <i name="e_fr_energy">      2.45514629 </i>
    <i name="e_wo_entrp">      2.45514629 </i>
    <i name="e_0_energy">      2.45514629 </i>
   </energy>
  </scstep>
  <scstep>
   <time name="dav">    0.06    0.06</time>
   <time name="total">    1.03    1.06</time>
   <energy>
    <i name="e_fr_energy">      2.45493706 </i>
    <i name="e_wo_entrp">      2.45493706 </i>
    <i name="e_0_energy">      2.45493706 </i>
   </energy>
  </scstep>
  <scstep>
   <time name="dav">    0.06    0.06</time>
   <time name="total">    1.03    1.05</time>
   <energy>
    <i name="e_fr_energy">      2.45475488 </i>
    <i name="e_wo_entrp">      2.45475488 </i>
    <i name="e_0_energy">      2.45475488 </i>
   </energy>
  </scstep>
  <scstep>
   <time name="dav">    0.06    0.06</time>
   <time name="total">    1.03    1.05</time>
   <energy>
    <i name="e_fr_energy">      2.45459598 </i>
    <i name="e_wo_entrp">      2.45459598 </i>
    <i name="e_0_energy">      2.45459598 </i>
   </energy>
  </scstep>
  <scstep>
   <time name="dav">    0.05    0.05</time>
   <time name="total">    1.03    1.05</time>
   <energy>
    <i name="e_fr_energy">      2.45445832 </i>
    <i name="e_wo_entrp">      2.45445832 </i>
    <i name="e_0_energy">      2.45445832 </i>
   </energy>
  </scstep>
  <scstep>
   <time name="dav">    0.06    0.06</time>
   <time name="total">    1.02    1.04</time>
   <energy>
    <i name="e_fr_energy">      2.45433921 </i>
    <i name="e_wo_entrp">      2.45433921 </i>
    <i name="e_0_energy">      2.45433921 </i>
   </energy>
  </scstep>
  <scstep>
   <time name="dav">    0.06    0.06</time>
   <time name="total">    1.02    1.05</time>
   <energy>
    <i name="e_fr_energy">      2.45423595 </i>
    <i name="e_wo_entrp">      2.45423595 </i>
    <i name="e_0_energy">      2.45423595 </i>
   </energy>
  </scstep>
  <scstep>
   <time name="dav">    0.06    0.06</time>
   <time name="total">    1.02    1.05</time>
   <energy>
    <i name="e_fr_energy">      2.45414611 </i>
    <i name="e_wo_entrp">      2.45414611 </i>
    <i name="e_0_energy">      2.45414611 </i>
   </energy>
  </scstep>
  <scstep>
   <time name="dav">    0.05    0.05</time>
   <time name="total">    1.03    1.05</time>
   <energy>
    <i name="e_fr_energy">      2.45406878 </i>
    <i name="e_wo_entrp">      2.45406878 </i>
    <i name="e_0_energy">      2.45406878 </i>
   </energy>
  </scstep>
  <scstep>
   <time name="dav">    0.06    0.06</time>
   <time name="total">    1.02    1.04</time>
   <energy>
    <i name="e_fr_energy">      2.45400186 </i>
    <i name="e_wo_entrp">      2.45400186 </i>
    <i name="e_0_energy">      2.45400186 </i>
   </energy>
  </scstep>
  <scstep>
   <time name="dav">    0.05    0.05</time>
   <time name="total">    1.02    1.04</time>
   <energy>
    <i name="e_fr_energy">      2.45394378 </i>
    <i name="e_wo_entrp">      2.45394378 </i>
    <i name="e_0_energy">      2.45394378 </i>
   </energy>
  </scstep>
  <scstep>
   <time name="dav">    0.05    0.05</time>
   <time name="total">    1.02    1.04</time>
   <energy>
    <i name="e_fr_energy">      2.45389378 </i>
    <i name="e_wo_entrp">      2.45389378 </i>
    <i name="e_0_energy">      2.45389378 </i>
   </energy>
  </scstep>
  <scstep>
   <time name="dav">    0.06    0.06</time>
   <time name="total">    1.02    1.05</time>
   <energy>
    <i name="e_fr_energy">      2.45385064 </i>
    <i name="e_wo_entrp">      2.45385064 </i>
    <i name="e_0_energy">      2.45385064 </i>
   </energy>
  </scstep>
  <scstep>
   <time name="dav">    0.05    0.05</time>
   <time name="total">    1.02    1.04</time>
   <energy>
    <i name="e_fr_energy">      2.45381331 </i>
    <i name="e_wo_entrp">      2.45381331 </i>
    <i name="e_0_energy">      2.45381331 </i>
   </energy>
  </scstep>
  <scstep>
   <time name="dav">    0.05    0.05</time>
   <time name="total">    1.02    1.04</time>
   <energy>
    <i name="e_fr_energy">      2.45378113 </i>
    <i name="e_wo_entrp">      2.45378113 </i>
    <i name="e_0_energy">      2.45378113 </i>
   </energy>
  </scstep>
  <scstep>
   <time name="dav">    0.05    0.05</time>
   <time name="total">    1.02    1.04</time>
   <energy>
    <i name="e_fr_energy">      2.45375335 </i>
    <i name="e_wo_entrp">      2.45375335 </i>
    <i name="e_0_energy">      2.45375335 </i>
   </energy>
  </scstep>
  <scstep>
   <time name="dav">    0.05    0.05</time>
   <time name="total">    1.02    1.04</time>
   <energy>
    <i name="e_fr_energy">      2.45372944 </i>
    <i name="e_wo_entrp">      2.45372944 </i>
    <i name="e_0_energy">      2.45372944 </i>
   </energy>
  </scstep>
  <scstep>
   <time name="dav">    0.05    0.05</time>
   <time name="total">    1.02    1.04</time>
   <energy>
    <i name="e_fr_energy">      2.45370874 </i>
    <i name="e_wo_entrp">      2.45370874 </i>
    <i name="e_0_energy">      2.45370874 </i>
   </energy>
  </scstep>
  <scstep>
   <time name="dav">    0.05    0.05</time>
   <time name="total">    1.04    1.04</time>
   <energy>
    <i name="e_fr_energy">      2.45369090 </i>
    <i name="e_wo_entrp">      2.45369090 </i>
    <i name="e_0_energy">      2.45369090 </i>
   </energy>
  </scstep>
  <scstep>
   <time name="dav">    0.05    0.05</time>
   <time name="total">    1.02    1.04</time>
   <energy>
    <i name="e_fr_energy">      2.45367551 </i>
    <i name="e_wo_entrp">      2.45367551 </i>
    <i name="e_0_energy">      2.45367551 </i>
   </energy>
  </scstep>
  <scstep>
   <time name="dav">    0.05    0.05</time>
   <time name="total">    1.02    1.04</time>
   <energy>
    <i name="e_fr_energy">      2.45366230 </i>
    <i name="e_wo_entrp">      2.45366230 </i>
    <i name="e_0_energy">      2.45366230 </i>
   </energy>
  </scstep>
  <scstep>
   <time name="dav">    0.05    0.05</time>
   <time name="total">    1.02    1.04</time>
   <energy>
    <i name="e_fr_energy">      2.45365099 </i>
    <i name="e_wo_entrp">      2.45365099 </i>
    <i name="e_0_energy">      2.45365099 </i>
   </energy>
  </scstep>
  <scstep>
   <time name="dav">    0.05    0.05</time>
   <time name="total">    1.02    1.04</time>
   <energy>
    <i name="alphaZ">     31.71721604 </i>
    <i name="ewald">  -1211.83925518 </i>
    <i name="hartreedc">   -564.34478580 </i>
    <i name="XCdc">     34.83652309 </i>
    <i name="pawpsdc">   3472.70522593 </i>
    <i name="pawaedc">  -3451.08717383 </i>
    <i name="eentropy">     -0.00000000 </i>
    <i name="bandstr">   -101.98961321 </i>
    <i name="atom">   1750.64560241 </i>
    <i name="e_fr_energy">      2.45364122 </i>
    <i name="e_wo_entrp">      2.45364122 </i>
    <i name="e_0_energy">      2.45364122 </i>
   </energy>
  </scstep>
  <structure>
   <crystal>
    <varray name="basis" >
     <v>       3.61541800       0.00000000       2.08736254 </v>
     <v>       1.20513900       3.40864864       2.08736254 </v>
     <v>       0.00000000       0.00000000       4.17472507 </v>
    </varray>
    <i name="volume">     51.44801605 </i>
    <varray name="rec_basis" >
     <v>       0.27659319      -0.09779044       0.00000000 </v>
     <v>       0.00000000       0.29337139       0.00000000 </v>
     <v>      -0.13829660      -0.09779048       0.23953673 </v>
    </varray>
   </crystal>
   <varray name="positions" >
    <v>       0.00000000       0.00000000       0.00000000 </v>
    <v>       0.25000000       0.25000000       0.25000000 </v>
   </varray>
  </structure>
  <varray name="forces" >
   <v>       0.00000000       0.00000000       0.00000000 </v>
   <v>      -0.00000000      -0.00000000      -0.00000000 </v>
  </varray>
  <energy>
   <i name="e_fr_energy">      2.45364122 </i>
   <i name="e_wo_entrp">      2.45364122 </i>
   <i name="e_0_energy">      2.45364122 </i>
  </energy>
  <time name="totalsc">   61.90   63.34</time>
  <eigenvalues>
   <array>
    <dimension dim="1">band</dimension>
    <dimension dim="2">kpoint</dimension>
    <dimension dim="3">spin</dimension>
    <field>eigene</field>
    <field>occ</field>
    <set>
     <set comment="spin 1">
      <set comment="kpoint 1">
       <r>  -11.7485    1.0000 </r>
       <r>  -11.7261    1.0000 </r>
       <r>  -11.6968    1.0000 </r>
       <r>  -11.6229    1.0000 </r>
       <r>  -11.5802    1.0000 </r>
       <r>   -7.0081    1.0000 </r>
       <r>    4.2781    1.0000 </r>
       <r>    4.9951    1.0000 </r>
       <r>    5.1145    1.0000 </r>
       <r>    7.7985    0.0000 </r>
       <r>    9.9030    0.0000 </r>
       <r>   10.2353    0.0000 </r>
       <r>   10.2816    0.0000 </r>
       <r>   13.9908    0.0000 </r>
       <r>   15.6968    0.0000 </r>
       <r>   15.7831    0.0000 </r>
       <r>   16.6598    0.0000 </r>
       <r>   16.7096    0.0000 </r>
       <r>   16.8343    0.0000 </r>
       <r>   18.9672    0.0000 </r>
       <r>   28.6531    0.0000 </r>
       <r>   28.9837    0.0000 </r>
       <r>   28.9924    0.0000 </r>
       <r>   30.1495    0.0000 </r>
      </set>
     </set>
     <set comment="spin 2">
      <set comment="kpoint 1">
       <r>  -11.7481    1.0000 </r>
       <r>  -11.7265    1.0000 </r>
       <r>  -11.6969    1.0000 </r>
       <r>  -11.6230    1.0000 </r>
       <r>  -11.5803    1.0000 </r>
       <r>   -7.0080    1.0000 </r>
       <r>    4.2787    1.0000 </r>
       <r>    4.9948    1.0000 </r>
       <r>    5.1145    1.0000 </r>
       <r>    7.7987    0.0000 </r>
       <r>    9.9028    0.0000 </r>
       <r>   10.2354    0.0000 </r>
       <r>   10.2814    0.0000 </r>
       <r>   13.9907    0.0000 </r>
       <r>   15.6971    0.0000 </r>
       <r>   15.7832    0.0000 </r>
       <r>   16.6597    0.0000 </r>
       <r>   16.7090    0.0000 </r>
       <r>   16.8347    0.0000 </r>
       <r>   18.9669    0.0000 </r>
       <r>   28.6536    0.0000 </r>
       <r>   28.9827    0.0000 </r>
       <r>   28.9931    0.0000 </r>
       <r>   30.1480    0.0000 </r>
      </set>
     </set>
    </set>
   </array>
  </eigenvalues>
  <separator name="orbital magnetization" >
   <v name="MAGDIPOLOUT">      0.00000000      0.00000000      0.00000000</v>
  </separator>
  <dos>
   <i name="efermi">      5.24463542 </i>
   <total>
    <array>
     <dimension dim="1">gridpoints</dimension>
     <dimension dim="2">spin</dimension>
     <field>energy</field>
     <field>total</field>
     <field>integrated</field>
     <set>
      <set comment="spin 1">
       <r>   -13.8434     0.0000     0.0000 </r>
       <r>   -13.6898     0.0000     0.0000 </r>
       <r>   -13.5362     0.0000     0.0000 </r>
       <r>   -13.3825     0.0000     0.0000 </r>
       <r>   -13.2289     0.0000     0.0000 </r>
       <r>   -13.0753     0.0000     0.0000 </r>
       <r>   -12.9216     0.0000     0.0000 </r>
       <r>   -12.7680     0.0000     0.0000 </r>
       <r>   -12.6144     0.0000     0.0000 </r>
       <r>   -12.4608     0.0000     0.0000 </r>
       <r>   -12.3071     0.0000     0.0000 </r>
       <r>   -12.1535     0.0000     0.0000 </r>
       <r>   -11.9999     0.0000     0.0000 </r>
       <r>   -11.8463     0.0000     0.0000 </r>
       <r>   -11.6926    17.7331     2.7243 </r>
       <r>   -11.5390     6.5093     5.0000 </r>
       <r>   -11.3854     0.0000     5.0000 </r>
       <r>   -11.2318     0.0000     5.0000 </r>
       <r>   -11.0781     0.0000     5.0000 </r>
       <r>   -10.9245     0.0000     5.0000 </r>
       <r>   -10.7709     0.0000     5.0000 </r>
       <r>   -10.6173     0.0000     5.0000 </r>
       <r>   -10.4636     0.0000     5.0000 </r>
       <r>   -10.3100     0.0000     5.0000 </r>
       <r>   -10.1564     0.0000     5.0000 </r>
       <r>   -10.0028     0.0000     5.0000 </r>
       <r>    -9.8491     0.0000     5.0000 </r>
       <r>    -9.6955     0.0000     5.0000 </r>
       <r>    -9.5419     0.0000     5.0000 </r>
       <r>    -9.3882     0.0000     5.0000 </r>
       <r>    -9.2346     0.0000     5.0000 </r>
       <r>    -9.0810     0.0000     5.0000 </r>
       <r>    -8.9274     0.0000     5.0000 </r>
       <r>    -8.7737     0.0000     5.0000 </r>
       <r>    -8.6201     0.0000     5.0000 </r>
       <r>    -8.4665     0.0000     5.0000 </r>
       <r>    -8.3129     0.0000     5.0000 </r>
       <r>    -8.1592     0.0000     5.0000 </r>
       <r>    -8.0056     0.0000     5.0000 </r>
       <r>    -7.8520     0.0000     5.0000 </r>
       <r>    -7.6984     0.0000     5.0000 </r>
       <r>    -7.5447     0.0000     5.0000 </r>
       <r>    -7.3911     0.0000     5.0000 </r>
       <r>    -7.2375     0.0000     5.0000 </r>
       <r>    -7.0839     0.0000     5.0000 </r>
       <r>    -6.9302     6.5093     6.0000 </r>
       <r>    -6.7766     0.0000     6.0000 </r>
       <r>    -6.6230     0.0000     6.0000 </r>
       <r>    -6.4694     0.0000     6.0000 </r>
       <r>    -6.3157     0.0000     6.0000 </r>
       <r>    -6.1621     0.0000     6.0000 </r>
       <r>    -6.0085     0.0000     6.0000 </r>
       <r>    -5.8548     0.0000     6.0000 </r>
       <r>    -5.7012     0.0000     6.0000 </r>
       <r>    -5.5476     0.0000     6.0000 </r>
       <r>    -5.3940     0.0000     6.0000 </r>
       <r>    -5.2403     0.0000     6.0000 </r>
       <r>    -5.0867     0.0000     6.0000 </r>
       <r>    -4.9331     0.0000     6.0000 </r>
       <r>    -4.7795     0.0000     6.0000 </r>
       <r>    -4.6258     0.0000     6.0000 </r>
       <r>    -4.4722     0.0000     6.0000 </r>
       <r>    -4.3186     0.0000     6.0000 </r>
       <r>    -4.1650     0.0000     6.0000 </r>
       <r>    -4.0113     0.0000     6.0000 </r>
       <r>    -3.8577     0.0000     6.0000 </r>
       <r>    -3.7041     0.0000     6.0000 </r>
       <r>    -3.5505     0.0000     6.0000 </r>
       <r>    -3.3968     0.0000     6.0000 </r>
       <r>    -3.2432     0.0000     6.0000 </r>
       <r>    -3.0896     0.0000     6.0000 </r>
       <r>    -2.9360     0.0000     6.0000 </r>
       <r>    -2.7823     0.0000     6.0000 </r>
       <r>    -2.6287     0.0000     6.0000 </r>
       <r>    -2.4751     0.0000     6.0000 </r>
       <r>    -2.3214     0.0000     6.0000 </r>
       <r>    -2.1678     0.0000     6.0000 </r>
       <r>    -2.0142     0.0000     6.0000 </r>
       <r>    -1.8606     0.0000     6.0000 </r>
       <r>    -1.7069     0.0000     6.0000 </r>
       <r>    -1.5533     0.0000     6.0000 </r>
       <r>    -1.3997     0.0000     6.0000 </r>
       <r>    -1.2461     0.0000     6.0000 </r>
       <r>    -1.0924     0.0000     6.0000 </r>
       <r>    -0.9388     0.0000     6.0000 </r>
       <r>    -0.7852     0.0000     6.0000 </r>
       <r>    -0.6316     0.0000     6.0000 </r>
       <r>    -0.4779     0.0000     6.0000 </r>
       <r>    -0.3243     0.0000     6.0000 </r>
       <r>    -0.1707     0.0000     6.0000 </r>
       <r>    -0.0171     0.0000     6.0000 </r>
       <r>     0.1366     0.0000     6.0000 </r>
       <r>     0.2902     0.0000     6.0000 </r>
       <r>     0.4438     0.0000     6.0000 </r>
       <r>     0.5974     0.0000     6.0000 </r>
       <r>     0.7511     0.0000     6.0000 </r>
       <r>     0.9047     0.0000     6.0000 </r>
       <r>     1.0583     0.0000     6.0000 </r>
       <r>     1.2120     0.0000     6.0000 </r>
       <r>     1.3656     0.0000     6.0000 </r>
       <r>     1.5192     0.0000     6.0000 </r>
       <r>     1.6728     0.0000     6.0000 </r>
       <r>     1.8265     0.0000     6.0000 </r>
       <r>     1.9801     0.0000     6.0000 </r>
       <r>     2.1337     0.0000     6.0000 </r>
       <r>     2.2873     0.0000     6.0000 </r>
       <r>     2.4410     0.0000     6.0000 </r>
       <r>     2.5946     0.0000     6.0000 </r>
       <r>     2.7482     0.0000     6.0000 </r>
       <r>     2.9018     0.0000     6.0000 </r>
       <r>     3.0555     0.0000     6.0000 </r>
       <r>     3.2091     0.0000     6.0000 </r>
       <r>     3.3627     0.0000     6.0000 </r>
       <r>     3.5163     0.0000     6.0000 </r>
       <r>     3.6700     0.0000     6.0000 </r>
       <r>     3.8236     0.0000     6.0000 </r>
       <r>     3.9772     0.0000     6.0000 </r>
       <r>     4.1308     0.0000     6.0000 </r>
       <r>     4.2845     5.3148     6.8165 </r>
       <r>     4.4381     0.0000     7.0000 </r>
       <r>     4.5917     0.0000     7.0000 </r>
       <r>     4.7454     0.0000     7.0000 </r>
       <r>     4.8990     0.0000     7.0000 </r>
       <r>     5.0526     6.5093     8.0000 </r>
       <r>     5.2062     0.0000     9.0000 </r>
       <r>     5.3599     0.0000     9.0000 </r>
       <r>     5.5135     0.0000     9.0000 </r>
       <r>     5.6671     0.0000     9.0000 </r>
       <r>     5.8207     0.0000     9.0000 </r>
       <r>     5.9744     0.0000     9.0000 </r>
       <r>     6.1280     0.0000     9.0000 </r>
       <r>     6.2816     0.0000     9.0000 </r>
       <r>     6.4352     0.0000     9.0000 </r>
       <r>     6.5889     0.0000     9.0000 </r>
       <r>     6.7425     0.0000     9.0000 </r>
       <r>     6.8961     0.0000     9.0000 </r>
       <r>     7.0497     0.0000     9.0000 </r>
       <r>     7.2034     0.0000     9.0000 </r>
       <r>     7.3570     0.0000     9.0000 </r>
       <r>     7.5106     0.0000     9.0000 </r>
       <r>     7.6642     0.0000     9.0000 </r>
       <r>     7.8179     6.4892     9.9969 </r>
       <r>     7.9715     0.0000    10.0000 </r>
       <r>     8.1251     0.0000    10.0000 </r>
       <r>     8.2788     0.0000    10.0000 </r>
       <r>     8.4324     0.0000    10.0000 </r>
       <r>     8.5860     0.0000    10.0000 </r>
       <r>     8.7396     0.0000    10.0000 </r>
       <r>     8.8933     0.0000    10.0000 </r>
       <r>     9.0469     0.0000    10.0000 </r>
       <r>     9.2005     0.0000    10.0000 </r>
       <r>     9.3541     0.0000    10.0000 </r>
       <r>     9.5078     0.0000    10.0000 </r>
       <r>     9.6614     0.0000    10.0000 </r>
       <r>     9.8150     0.0000    10.0000 </r>
       <r>     9.9686     6.5093    11.0000 </r>
       <r>    10.1223     0.0000    11.0000 </r>
       <r>    10.2759     7.8672    12.2086 </r>
       <r>    10.4295     0.0000    13.0000 </r>
       <r>    10.5831     0.0000    13.0000 </r>
       <r>    10.7368     0.0000    13.0000 </r>
       <r>    10.8904     0.0000    13.0000 </r>
       <r>    11.0440     0.0000    13.0000 </r>
       <r>    11.1976     0.0000    13.0000 </r>
       <r>    11.3513     0.0000    13.0000 </r>
       <r>    11.5049     0.0000    13.0000 </r>
       <r>    11.6585     0.0000    13.0000 </r>
       <r>    11.8121     0.0000    13.0000 </r>
       <r>    11.9658     0.0000    13.0000 </r>
       <r>    12.1194     0.0000    13.0000 </r>
       <r>    12.2730     0.0000    13.0000 </r>
       <r>    12.4267     0.0000    13.0000 </r>
       <r>    12.5803     0.0000    13.0000 </r>
       <r>    12.7339     0.0000    13.0000 </r>
       <r>    12.8875     0.0000    13.0000 </r>
       <r>    13.0412     0.0000    13.0000 </r>
       <r>    13.1948     0.0000    13.0000 </r>
       <r>    13.3484     0.0000    13.0000 </r>
       <r>    13.5020     0.0000    13.0000 </r>
       <r>    13.6557     0.0000    13.0000 </r>
       <r>    13.8093     0.0000    13.0000 </r>
       <r>    13.9629     0.0003    13.0000 </r>
       <r>    14.1165     0.0000    14.0000 </r>
       <r>    14.2702     0.0000    14.0000 </r>
       <r>    14.4238     0.0000    14.0000 </r>
       <r>    14.5774     0.0000    14.0000 </r>
       <r>    14.7310     0.0000    14.0000 </r>
       <r>    14.8847     0.0000    14.0000 </r>
       <r>    15.0383     0.0000    14.0000 </r>
       <r>    15.1919     0.0000    14.0000 </r>
       <r>    15.3455     0.0000    14.0000 </r>
       <r>    15.4992     0.0000    14.0000 </r>
       <r>    15.6528     0.0000    14.0000 </r>
       <r>    15.8064     6.5061    15.9995 </r>
       <r>    15.9601     0.0000    16.0000 </r>
       <r>    16.1137     0.0000    16.0000 </r>
       <r>    16.2673     0.0000    16.0000 </r>
       <r>    16.4209     0.0000    16.0000 </r>
       <r>    16.5746     0.0000    16.0000 </r>
       <r>    16.7282    12.9911    17.9958 </r>
       <r>    16.8818     6.5093    19.0000 </r>
       <r>    17.0354     0.0000    19.0000 </r>
       <r>    17.1891     0.0000    19.0000 </r>
       <r>    17.3427     0.0000    19.0000 </r>
       <r>    17.4963     0.0000    19.0000 </r>
       <r>    17.6499     0.0000    19.0000 </r>
       <r>    17.8036     0.0000    19.0000 </r>
       <r>    17.9572     0.0000    19.0000 </r>
       <r>    18.1108     0.0000    19.0000 </r>
       <r>    18.2644     0.0000    19.0000 </r>
       <r>    18.4181     0.0000    19.0000 </r>
       <r>    18.5717     0.0000    19.0000 </r>
       <r>    18.7253     0.0000    19.0000 </r>
       <r>    18.8789     0.0000    19.0000 </r>
       <r>    19.0326     6.5093    20.0000 </r>
       <r>    19.1862     0.0000    20.0000 </r>
       <r>    19.3398     0.0000    20.0000 </r>
       <r>    19.4935     0.0000    20.0000 </r>
       <r>    19.6471     0.0000    20.0000 </r>
       <r>    19.8007     0.0000    20.0000 </r>
       <r>    19.9543     0.0000    20.0000 </r>
       <r>    20.1080     0.0000    20.0000 </r>
       <r>    20.2616     0.0000    20.0000 </r>
       <r>    20.4152     0.0000    20.0000 </r>
       <r>    20.5688     0.0000    20.0000 </r>
       <r>    20.7225     0.0000    20.0000 </r>
       <r>    20.8761     0.0000    20.0000 </r>
       <r>    21.0297     0.0000    20.0000 </r>
       <r>    21.1833     0.0000    20.0000 </r>
       <r>    21.3370     0.0000    20.0000 </r>
       <r>    21.4906     0.0000    20.0000 </r>
       <r>    21.6442     0.0000    20.0000 </r>
       <r>    21.7978     0.0000    20.0000 </r>
       <r>    21.9515     0.0000    20.0000 </r>
       <r>    22.1051     0.0000    20.0000 </r>
       <r>    22.2587     0.0000    20.0000 </r>
       <r>    22.4123     0.0000    20.0000 </r>
       <r>    22.5660     0.0000    20.0000 </r>
       <r>    22.7196     0.0000    20.0000 </r>
       <r>    22.8732     0.0000    20.0000 </r>
       <r>    23.0269     0.0000    20.0000 </r>
       <r>    23.1805     0.0000    20.0000 </r>
       <r>    23.3341     0.0000    20.0000 </r>
       <r>    23.4877     0.0000    20.0000 </r>
       <r>    23.6414     0.0000    20.0000 </r>
       <r>    23.7950     0.0000    20.0000 </r>
       <r>    23.9486     0.0000    20.0000 </r>
       <r>    24.1022     0.0000    20.0000 </r>
       <r>    24.2559     0.0000    20.0000 </r>
       <r>    24.4095     0.0000    20.0000 </r>
       <r>    24.5631     0.0000    20.0000 </r>
       <r>    24.7167     0.0000    20.0000 </r>
       <r>    24.8704     0.0000    20.0000 </r>
       <r>    25.0240     0.0000    20.0000 </r>
       <r>    25.1776     0.0000    20.0000 </r>
       <r>    25.3312     0.0000    20.0000 </r>
       <r>    25.4849     0.0000    20.0000 </r>
       <r>    25.6385     0.0000    20.0000 </r>
       <r>    25.7921     0.0000    20.0000 </r>
       <r>    25.9457     0.0000    20.0000 </r>
       <r>    26.0994     0.0000    20.0000 </r>
       <r>    26.2530     0.0000    20.0000 </r>
       <r>    26.4066     0.0000    20.0000 </r>
       <r>    26.5603     0.0000    20.0000 </r>
       <r>    26.7139     0.0000    20.0000 </r>
       <r>    26.8675     0.0000    20.0000 </r>
       <r>    27.0211     0.0000    20.0000 </r>
       <r>    27.1748     0.0000    20.0000 </r>
       <r>    27.3284     0.0000    20.0000 </r>
       <r>    27.4820     0.0000    20.0000 </r>
       <r>    27.6356     0.0000    20.0000 </r>
       <r>    27.7893     0.0000    20.0000 </r>
       <r>    27.9429     0.0000    20.0000 </r>
       <r>    28.0965     0.0000    20.0000 </r>
       <r>    28.2501     0.0000    20.0000 </r>
       <r>    28.4038     0.0000    20.0000 </r>
       <r>    28.5574     0.0000    20.0000 </r>
       <r>    28.7110     6.5093    21.0000 </r>
       <r>    28.8646     0.0000    21.0000 </r>
       <r>    29.0183    13.0178    22.9999 </r>
       <r>    29.1719     0.0000    23.0000 </r>
       <r>    29.3255     0.0000    23.0000 </r>
       <r>    29.4791     0.0000    23.0000 </r>
       <r>    29.6328     0.0000    23.0000 </r>
       <r>    29.7864     0.0000    23.0000 </r>
       <r>    29.9400     0.0000    23.0000 </r>
       <r>    30.0937     0.0000    23.0000 </r>
       <r>    30.2473     0.0000    24.0000 </r>
       <r>    30.4009     0.0000    24.0000 </r>
       <r>    30.5545     0.0000    24.0000 </r>
       <r>    30.7082     0.0000    24.0000 </r>
       <r>    30.8618     0.0000    24.0000 </r>
       <r>    31.0154     0.0000    24.0000 </r>
       <r>    31.1690     0.0000    24.0000 </r>
       <r>    31.3227     0.0000    24.0000 </r>
       <r>    31.4763     0.0000    24.0000 </r>
       <r>    31.6299     0.0000    24.0000 </r>
       <r>    31.7835     0.0000    24.0000 </r>
       <r>    31.9372     0.0000    24.0000 </r>
       <r>    32.0908     0.0000    24.0000 </r>
       <r>    32.2444     0.0000    24.0000 </r>
      </set>
      <set comment="spin 2">
       <r>   -13.8434     0.0000     0.0000 </r>
       <r>   -13.6898     0.0000     0.0000 </r>
       <r>   -13.5362     0.0000     0.0000 </r>
       <r>   -13.3825     0.0000     0.0000 </r>
       <r>   -13.2289     0.0000     0.0000 </r>
       <r>   -13.0753     0.0000     0.0000 </r>
       <r>   -12.9216     0.0000     0.0000 </r>
       <r>   -12.7680     0.0000     0.0000 </r>
       <r>   -12.6144     0.0000     0.0000 </r>
       <r>   -12.4608     0.0000     0.0000 </r>
       <r>   -12.3071     0.0000     0.0000 </r>
       <r>   -12.1535     0.0000     0.0000 </r>
       <r>   -11.9999     0.0000     0.0000 </r>
       <r>   -11.8463     0.0000     0.0000 </r>
       <r>   -11.6926    17.7367     2.7248 </r>
       <r>   -11.5390     6.5093     5.0000 </r>
       <r>   -11.3854     0.0000     5.0000 </r>
       <r>   -11.2318     0.0000     5.0000 </r>
       <r>   -11.0781     0.0000     5.0000 </r>
       <r>   -10.9245     0.0000     5.0000 </r>
       <r>   -10.7709     0.0000     5.0000 </r>
       <r>   -10.6173     0.0000     5.0000 </r>
       <r>   -10.4636     0.0000     5.0000 </r>
       <r>   -10.3100     0.0000     5.0000 </r>
       <r>   -10.1564     0.0000     5.0000 </r>
       <r>   -10.0028     0.0000     5.0000 </r>
       <r>    -9.8491     0.0000     5.0000 </r>
       <r>    -9.6955     0.0000     5.0000 </r>
       <r>    -9.5419     0.0000     5.0000 </r>
       <r>    -9.3882     0.0000     5.0000 </r>
       <r>    -9.2346     0.0000     5.0000 </r>
       <r>    -9.0810     0.0000     5.0000 </r>
       <r>    -8.9274     0.0000     5.0000 </r>
       <r>    -8.7737     0.0000     5.0000 </r>
       <r>    -8.6201     0.0000     5.0000 </r>
       <r>    -8.4665     0.0000     5.0000 </r>
       <r>    -8.3129     0.0000     5.0000 </r>
       <r>    -8.1592     0.0000     5.0000 </r>
       <r>    -8.0056     0.0000     5.0000 </r>
       <r>    -7.8520     0.0000     5.0000 </r>
       <r>    -7.6984     0.0000     5.0000 </r>
       <r>    -7.5447     0.0000     5.0000 </r>
       <r>    -7.3911     0.0000     5.0000 </r>
       <r>    -7.2375     0.0000     5.0000 </r>
       <r>    -7.0839     0.0000     5.0000 </r>
       <r>    -6.9302     6.5093     6.0000 </r>
       <r>    -6.7766     0.0000     6.0000 </r>
       <r>    -6.6230     0.0000     6.0000 </r>
       <r>    -6.4694     0.0000     6.0000 </r>
       <r>    -6.3157     0.0000     6.0000 </r>
       <r>    -6.1621     0.0000     6.0000 </r>
       <r>    -6.0085     0.0000     6.0000 </r>
       <r>    -5.8548     0.0000     6.0000 </r>
       <r>    -5.7012     0.0000     6.0000 </r>
       <r>    -5.5476     0.0000     6.0000 </r>
       <r>    -5.3940     0.0000     6.0000 </r>
       <r>    -5.2403     0.0000     6.0000 </r>
       <r>    -5.0867     0.0000     6.0000 </r>
       <r>    -4.9331     0.0000     6.0000 </r>
       <r>    -4.7795     0.0000     6.0000 </r>
       <r>    -4.6258     0.0000     6.0000 </r>
       <r>    -4.4722     0.0000     6.0000 </r>
       <r>    -4.3186     0.0000     6.0000 </r>
       <r>    -4.1650     0.0000     6.0000 </r>
       <r>    -4.0113     0.0000     6.0000 </r>
       <r>    -3.8577     0.0000     6.0000 </r>
       <r>    -3.7041     0.0000     6.0000 </r>
       <r>    -3.5505     0.0000     6.0000 </r>
       <r>    -3.3968     0.0000     6.0000 </r>
       <r>    -3.2432     0.0000     6.0000 </r>
       <r>    -3.0896     0.0000     6.0000 </r>
       <r>    -2.9360     0.0000     6.0000 </r>
       <r>    -2.7823     0.0000     6.0000 </r>
       <r>    -2.6287     0.0000     6.0000 </r>
       <r>    -2.4751     0.0000     6.0000 </r>
       <r>    -2.3214     0.0000     6.0000 </r>
       <r>    -2.1678     0.0000     6.0000 </r>
       <r>    -2.0142     0.0000     6.0000 </r>
       <r>    -1.8606     0.0000     6.0000 </r>
       <r>    -1.7069     0.0000     6.0000 </r>
       <r>    -1.5533     0.0000     6.0000 </r>
       <r>    -1.3997     0.0000     6.0000 </r>
       <r>    -1.2461     0.0000     6.0000 </r>
       <r>    -1.0924     0.0000     6.0000 </r>
       <r>    -0.9388     0.0000     6.0000 </r>
       <r>    -0.7852     0.0000     6.0000 </r>
       <r>    -0.6316     0.0000     6.0000 </r>
       <r>    -0.4779     0.0000     6.0000 </r>
       <r>    -0.3243     0.0000     6.0000 </r>
       <r>    -0.1707     0.0000     6.0000 </r>
       <r>    -0.0171     0.0000     6.0000 </r>
       <r>     0.1366     0.0000     6.0000 </r>
       <r>     0.2902     0.0000     6.0000 </r>
       <r>     0.4438     0.0000     6.0000 </r>
       <r>     0.5974     0.0000     6.0000 </r>
       <r>     0.7511     0.0000     6.0000 </r>
       <r>     0.9047     0.0000     6.0000 </r>
       <r>     1.0583     0.0000     6.0000 </r>
       <r>     1.2120     0.0000     6.0000 </r>
       <r>     1.3656     0.0000     6.0000 </r>
       <r>     1.5192     0.0000     6.0000 </r>
       <r>     1.6728     0.0000     6.0000 </r>
       <r>     1.8265     0.0000     6.0000 </r>
       <r>     1.9801     0.0000     6.0000 </r>
       <r>     2.1337     0.0000     6.0000 </r>
       <r>     2.2873     0.0000     6.0000 </r>
       <r>     2.4410     0.0000     6.0000 </r>
       <r>     2.5946     0.0000     6.0000 </r>
       <r>     2.7482     0.0000     6.0000 </r>
       <r>     2.9018     0.0000     6.0000 </r>
       <r>     3.0555     0.0000     6.0000 </r>
       <r>     3.2091     0.0000     6.0000 </r>
       <r>     3.3627     0.0000     6.0000 </r>
       <r>     3.5163     0.0000     6.0000 </r>
       <r>     3.6700     0.0000     6.0000 </r>
       <r>     3.8236     0.0000     6.0000 </r>
       <r>     3.9772     0.0000     6.0000 </r>
       <r>     4.1308     0.0000     6.0000 </r>
       <r>     4.2845     5.1582     6.7924 </r>
       <r>     4.4381     0.0000     7.0000 </r>
       <r>     4.5917     0.0000     7.0000 </r>
       <r>     4.7454     0.0000     7.0000 </r>
       <r>     4.8990     0.0000     7.0000 </r>
       <r>     5.0526     6.5093     8.0000 </r>
       <r>     5.2062     0.0000     9.0000 </r>
       <r>     5.3599     0.0000     9.0000 </r>
       <r>     5.5135     0.0000     9.0000 </r>
       <r>     5.6671     0.0000     9.0000 </r>
       <r>     5.8207     0.0000     9.0000 </r>
       <r>     5.9744     0.0000     9.0000 </r>
       <r>     6.1280     0.0000     9.0000 </r>
       <r>     6.2816     0.0000     9.0000 </r>
       <r>     6.4352     0.0000     9.0000 </r>
       <r>     6.5889     0.0000     9.0000 </r>
       <r>     6.7425     0.0000     9.0000 </r>
       <r>     6.8961     0.0000     9.0000 </r>
       <r>     7.0497     0.0000     9.0000 </r>
       <r>     7.2034     0.0000     9.0000 </r>
       <r>     7.3570     0.0000     9.0000 </r>
       <r>     7.5106     0.0000     9.0000 </r>
       <r>     7.6642     0.0000     9.0000 </r>
       <r>     7.8179     6.4876     9.9967 </r>
       <r>     7.9715     0.0000    10.0000 </r>
       <r>     8.1251     0.0000    10.0000 </r>
       <r>     8.2788     0.0000    10.0000 </r>
       <r>     8.4324     0.0000    10.0000 </r>
       <r>     8.5860     0.0000    10.0000 </r>
       <r>     8.7396     0.0000    10.0000 </r>
       <r>     8.8933     0.0000    10.0000 </r>
       <r>     9.0469     0.0000    10.0000 </r>
       <r>     9.2005     0.0000    10.0000 </r>
       <r>     9.3541     0.0000    10.0000 </r>
       <r>     9.5078     0.0000    10.0000 </r>
       <r>     9.6614     0.0000    10.0000 </r>
       <r>     9.8150     0.0000    10.0000 </r>
       <r>     9.9686     6.5093    11.0000 </r>
       <r>    10.1223     0.0000    11.0000 </r>
       <r>    10.2759     7.9288    12.2181 </r>
       <r>    10.4295     0.0000    13.0000 </r>
       <r>    10.5831     0.0000    13.0000 </r>
       <r>    10.7368     0.0000    13.0000 </r>
       <r>    10.8904     0.0000    13.0000 </r>
       <r>    11.0440     0.0000    13.0000 </r>
       <r>    11.1976     0.0000    13.0000 </r>
       <r>    11.3513     0.0000    13.0000 </r>
       <r>    11.5049     0.0000    13.0000 </r>
       <r>    11.6585     0.0000    13.0000 </r>
       <r>    11.8121     0.0000    13.0000 </r>
       <r>    11.9658     0.0000    13.0000 </r>
       <r>    12.1194     0.0000    13.0000 </r>
       <r>    12.2730     0.0000    13.0000 </r>
       <r>    12.4267     0.0000    13.0000 </r>
       <r>    12.5803     0.0000    13.0000 </r>
       <r>    12.7339     0.0000    13.0000 </r>
       <r>    12.8875     0.0000    13.0000 </r>
       <r>    13.0412     0.0000    13.0000 </r>
       <r>    13.1948     0.0000    13.0000 </r>
       <r>    13.3484     0.0000    13.0000 </r>
       <r>    13.5020     0.0000    13.0000 </r>
       <r>    13.6557     0.0000    13.0000 </r>
       <r>    13.8093     0.0000    13.0000 </r>
       <r>    13.9629     0.0003    13.0000 </r>
       <r>    14.1165     0.0000    14.0000 </r>
       <r>    14.2702     0.0000    14.0000 </r>
       <r>    14.4238     0.0000    14.0000 </r>
       <r>    14.5774     0.0000    14.0000 </r>
       <r>    14.7310     0.0000    14.0000 </r>
       <r>    14.8847     0.0000    14.0000 </r>
       <r>    15.0383     0.0000    14.0000 </r>
       <r>    15.1919     0.0000    14.0000 </r>
       <r>    15.3455     0.0000    14.0000 </r>
       <r>    15.4992     0.0000    14.0000 </r>
       <r>    15.6528     0.0000    14.0000 </r>
       <r>    15.8064     6.5060    15.9995 </r>
       <r>    15.9601     0.0000    16.0000 </r>
       <r>    16.1137     0.0000    16.0000 </r>
       <r>    16.2673     0.0000    16.0000 </r>
       <r>    16.4209     0.0000    16.0000 </r>
       <r>    16.5746     0.0000    16.0000 </r>
       <r>    16.7282    12.9968    17.9967 </r>
       <r>    16.8818     6.5093    19.0000 </r>
       <r>    17.0354     0.0000    19.0000 </r>
       <r>    17.1891     0.0000    19.0000 </r>
       <r>    17.3427     0.0000    19.0000 </r>
       <r>    17.4963     0.0000    19.0000 </r>
       <r>    17.6499     0.0000    19.0000 </r>
       <r>    17.8036     0.0000    19.0000 </r>
       <r>    17.9572     0.0000    19.0000 </r>
       <r>    18.1108     0.0000    19.0000 </r>
       <r>    18.2644     0.0000    19.0000 </r>
       <r>    18.4181     0.0000    19.0000 </r>
       <r>    18.5717     0.0000    19.0000 </r>
       <r>    18.7253     0.0000    19.0000 </r>
       <r>    18.8789     0.0000    19.0000 </r>
       <r>    19.0326     6.5093    20.0000 </r>
       <r>    19.1862     0.0000    20.0000 </r>
       <r>    19.3398     0.0000    20.0000 </r>
       <r>    19.4935     0.0000    20.0000 </r>
       <r>    19.6471     0.0000    20.0000 </r>
       <r>    19.8007     0.0000    20.0000 </r>
       <r>    19.9543     0.0000    20.0000 </r>
       <r>    20.1080     0.0000    20.0000 </r>
       <r>    20.2616     0.0000    20.0000 </r>
       <r>    20.4152     0.0000    20.0000 </r>
       <r>    20.5688     0.0000    20.0000 </r>
       <r>    20.7225     0.0000    20.0000 </r>
       <r>    20.8761     0.0000    20.0000 </r>
       <r>    21.0297     0.0000    20.0000 </r>
       <r>    21.1833     0.0000    20.0000 </r>
       <r>    21.3370     0.0000    20.0000 </r>
       <r>    21.4906     0.0000    20.0000 </r>
       <r>    21.6442     0.0000    20.0000 </r>
       <r>    21.7978     0.0000    20.0000 </r>
       <r>    21.9515     0.0000    20.0000 </r>
       <r>    22.1051     0.0000    20.0000 </r>
       <r>    22.2587     0.0000    20.0000 </r>
       <r>    22.4123     0.0000    20.0000 </r>
       <r>    22.5660     0.0000    20.0000 </r>
       <r>    22.7196     0.0000    20.0000 </r>
       <r>    22.8732     0.0000    20.0000 </r>
       <r>    23.0269     0.0000    20.0000 </r>
       <r>    23.1805     0.0000    20.0000 </r>
       <r>    23.3341     0.0000    20.0000 </r>
       <r>    23.4877     0.0000    20.0000 </r>
       <r>    23.6414     0.0000    20.0000 </r>
       <r>    23.7950     0.0000    20.0000 </r>
       <r>    23.9486     0.0000    20.0000 </r>
       <r>    24.1022     0.0000    20.0000 </r>
       <r>    24.2559     0.0000    20.0000 </r>
       <r>    24.4095     0.0000    20.0000 </r>
       <r>    24.5631     0.0000    20.0000 </r>
       <r>    24.7167     0.0000    20.0000 </r>
       <r>    24.8704     0.0000    20.0000 </r>
       <r>    25.0240     0.0000    20.0000 </r>
       <r>    25.1776     0.0000    20.0000 </r>
       <r>    25.3312     0.0000    20.0000 </r>
       <r>    25.4849     0.0000    20.0000 </r>
       <r>    25.6385     0.0000    20.0000 </r>
       <r>    25.7921     0.0000    20.0000 </r>
       <r>    25.9457     0.0000    20.0000 </r>
       <r>    26.0994     0.0000    20.0000 </r>
       <r>    26.2530     0.0000    20.0000 </r>
       <r>    26.4066     0.0000    20.0000 </r>
       <r>    26.5603     0.0000    20.0000 </r>
       <r>    26.7139     0.0000    20.0000 </r>
       <r>    26.8675     0.0000    20.0000 </r>
       <r>    27.0211     0.0000    20.0000 </r>
       <r>    27.1748     0.0000    20.0000 </r>
       <r>    27.3284     0.0000    20.0000 </r>
       <r>    27.4820     0.0000    20.0000 </r>
       <r>    27.6356     0.0000    20.0000 </r>
       <r>    27.7893     0.0000    20.0000 </r>
       <r>    27.9429     0.0000    20.0000 </r>
       <r>    28.0965     0.0000    20.0000 </r>
       <r>    28.2501     0.0000    20.0000 </r>
       <r>    28.4038     0.0000    20.0000 </r>
       <r>    28.5574     0.0000    20.0000 </r>
       <r>    28.7110     6.5093    21.0000 </r>
       <r>    28.8646     0.0000    21.0000 </r>
       <r>    29.0183    13.0174    22.9998 </r>
       <r>    29.1719     0.0000    23.0000 </r>
       <r>    29.3255     0.0000    23.0000 </r>
       <r>    29.4791     0.0000    23.0000 </r>
       <r>    29.6328     0.0000    23.0000 </r>
       <r>    29.7864     0.0000    23.0000 </r>
       <r>    29.9400     0.0000    23.0000 </r>
       <r>    30.0937     0.0000    23.0000 </r>
       <r>    30.2473     0.0000    24.0000 </r>
       <r>    30.4009     0.0000    24.0000 </r>
       <r>    30.5545     0.0000    24.0000 </r>
       <r>    30.7082     0.0000    24.0000 </r>
       <r>    30.8618     0.0000    24.0000 </r>
       <r>    31.0154     0.0000    24.0000 </r>
       <r>    31.1690     0.0000    24.0000 </r>
       <r>    31.3227     0.0000    24.0000 </r>
       <r>    31.4763     0.0000    24.0000 </r>
       <r>    31.6299     0.0000    24.0000 </r>
       <r>    31.7835     0.0000    24.0000 </r>
       <r>    31.9372     0.0000    24.0000 </r>
       <r>    32.0908     0.0000    24.0000 </r>
       <r>    32.2444     0.0000    24.0000 </r>
      </set>
     </set>
    </array>
   </total>
   <partial>
    <array>
     <dimension dim="1">gridpoints</dimension>
     <dimension dim="2">spin</dimension>
     <dimension dim="3">ion</dimension>
     <field>energy</field>
     <field>    s</field>
     <field>   py</field>
     <field>   pz</field>
     <field>   px</field>
     <field>  dxy</field>
     <field>  dyz</field>
     <field>  dz2</field>
     <field>  dxz</field>
     <field>x2-y2</field>
     <set>
      <set comment="ion 1">
       <set comment="spin 1">
        <r>   -13.8434     0.0000     0.0000     0.0000     0.0000     0.0000     0.0000     0.0000     0.0000     0.0000 </r>
        <r>   -13.6898     0.0000     0.0000     0.0000     0.0000     0.0000     0.0000     0.0000     0.0000     0.0000 </r>
        <r>   -13.5362     0.0000     0.0000     0.0000     0.0000     0.0000     0.0000     0.0000     0.0000     0.0000 </r>
        <r>   -13.3825     0.0000     0.0000     0.0000     0.0000     0.0000     0.0000     0.0000     0.0000     0.0000 </r>
        <r>   -13.2289     0.0000     0.0000     0.0000     0.0000     0.0000     0.0000     0.0000     0.0000     0.0000 </r>
        <r>   -13.0753     0.0000     0.0000     0.0000     0.0000     0.0000     0.0000     0.0000     0.0000     0.0000 </r>
        <r>   -12.9216     0.0000     0.0000     0.0000     0.0000     0.0000     0.0000     0.0000     0.0000     0.0000 </r>
        <r>   -12.7680     0.0000     0.0000     0.0000     0.0000     0.0000     0.0000     0.0000     0.0000     0.0000 </r>
        <r>   -12.6144     0.0000     0.0000     0.0000     0.0000     0.0000     0.0000     0.0000     0.0000     0.0000 </r>
        <r>   -12.4608     0.0000     0.0000     0.0000     0.0000     0.0000     0.0000     0.0000     0.0000     0.0000 </r>
        <r>   -12.3071     0.0000     0.0000     0.0000     0.0000     0.0000     0.0000     0.0000     0.0000     0.0000 </r>
        <r>   -12.1535     0.0000     0.0000     0.0000     0.0000     0.0000     0.0000     0.0000     0.0000     0.0000 </r>
        <r>   -11.9999     0.0000     0.0000     0.0000     0.0000     0.0000     0.0000     0.0000     0.0000     0.0000 </r>
        <r>   -11.8463     0.0000     0.0000     0.0000     0.0000     0.0000     0.0000     0.0000     0.0000     0.0000 </r>
        <r>   -11.6926     0.0005     0.0006     0.0006     0.0006     3.1323     3.1323     3.6267     3.5278     3.8244 </r>
        <r>   -11.5390     0.0002     0.0000     0.0000     0.0000     1.4792     1.4792     1.1659     1.2285     1.0405 </r>
        <r>   -11.3854     0.0000     0.0000     0.0000     0.0000     0.0000     0.0000     0.0000     0.0000     0.0000 </r>
        <r>   -11.2318     0.0000     0.0000     0.0000     0.0000     0.0000     0.0000     0.0000     0.0000     0.0000 </r>
        <r>   -11.0781     0.0000     0.0000     0.0000     0.0000     0.0000     0.0000     0.0000     0.0000     0.0000 </r>
        <r>   -10.9245     0.0000     0.0000     0.0000     0.0000     0.0000     0.0000     0.0000     0.0000     0.0000 </r>
        <r>   -10.7709     0.0000     0.0000     0.0000     0.0000     0.0000     0.0000     0.0000     0.0000     0.0000 </r>
        <r>   -10.6173     0.0000     0.0000     0.0000     0.0000     0.0000     0.0000     0.0000     0.0000     0.0000 </r>
        <r>   -10.4636     0.0000     0.0000     0.0000     0.0000     0.0000     0.0000     0.0000     0.0000     0.0000 </r>
        <r>   -10.3100     0.0000     0.0000     0.0000     0.0000     0.0000     0.0000     0.0000     0.0000     0.0000 </r>
        <r>   -10.1564     0.0000     0.0000     0.0000     0.0000     0.0000     0.0000     0.0000     0.0000     0.0000 </r>
        <r>   -10.0028     0.0000     0.0000     0.0000     0.0000     0.0000     0.0000     0.0000     0.0000     0.0000 </r>
        <r>    -9.8491     0.0000     0.0000     0.0000     0.0000     0.0000     0.0000     0.0000     0.0000     0.0000 </r>
        <r>    -9.6955     0.0000     0.0000     0.0000     0.0000     0.0000     0.0000     0.0000     0.0000     0.0000 </r>
        <r>    -9.5419     0.0000     0.0000     0.0000     0.0000     0.0000     0.0000     0.0000     0.0000     0.0000 </r>
        <r>    -9.3882     0.0000     0.0000     0.0000     0.0000     0.0000     0.0000     0.0000     0.0000     0.0000 </r>
        <r>    -9.2346     0.0000     0.0000     0.0000     0.0000     0.0000     0.0000     0.0000     0.0000     0.0000 </r>
        <r>    -9.0810     0.0000     0.0000     0.0000     0.0000     0.0000     0.0000     0.0000     0.0000     0.0000 </r>
        <r>    -8.9274     0.0000     0.0000     0.0000     0.0000     0.0000     0.0000     0.0000     0.0000     0.0000 </r>
        <r>    -8.7737     0.0000     0.0000     0.0000     0.0000     0.0000     0.0000     0.0000     0.0000     0.0000 </r>
        <r>    -8.6201     0.0000     0.0000     0.0000     0.0000     0.0000     0.0000     0.0000     0.0000     0.0000 </r>
        <r>    -8.4665     0.0000     0.0000     0.0000     0.0000     0.0000     0.0000     0.0000     0.0000     0.0000 </r>
        <r>    -8.3129     0.0000     0.0000     0.0000     0.0000     0.0000     0.0000     0.0000     0.0000     0.0000 </r>
        <r>    -8.1592     0.0000     0.0000     0.0000     0.0000     0.0000     0.0000     0.0000     0.0000     0.0000 </r>
        <r>    -8.0056     0.0000     0.0000     0.0000     0.0000     0.0000     0.0000     0.0000     0.0000     0.0000 </r>
        <r>    -7.8520     0.0000     0.0000     0.0000     0.0000     0.0000     0.0000     0.0000     0.0000     0.0000 </r>
        <r>    -7.6984     0.0000     0.0000     0.0000     0.0000     0.0000     0.0000     0.0000     0.0000     0.0000 </r>
        <r>    -7.5447     0.0000     0.0000     0.0000     0.0000     0.0000     0.0000     0.0000     0.0000     0.0000 </r>
        <r>    -7.3911     0.0000     0.0000     0.0000     0.0000     0.0000     0.0000     0.0000     0.0000     0.0000 </r>
        <r>    -7.2375     0.0000     0.0000     0.0000     0.0000     0.0000     0.0000     0.0000     0.0000     0.0000 </r>
        <r>    -7.0839     0.0000     0.0000     0.0000     0.0000     0.0000     0.0000     0.0000     0.0000     0.0000 </r>
        <r>    -6.9302     1.4574     0.0000     0.0000     0.0000     0.0011     0.0011     0.0015     0.0014     0.0016 </r>
        <r>    -6.7766     0.0000     0.0000     0.0000     0.0000     0.0000     0.0000     0.0000     0.0000     0.0000 </r>
        <r>    -6.6230     0.0000     0.0000     0.0000     0.0000     0.0000     0.0000     0.0000     0.0000     0.0000 </r>
        <r>    -6.4694     0.0000     0.0000     0.0000     0.0000     0.0000     0.0000     0.0000     0.0000     0.0000 </r>
        <r>    -6.3157     0.0000     0.0000     0.0000     0.0000     0.0000     0.0000     0.0000     0.0000     0.0000 </r>
        <r>    -6.1621     0.0000     0.0000     0.0000     0.0000     0.0000     0.0000     0.0000     0.0000     0.0000 </r>
        <r>    -6.0085     0.0000     0.0000     0.0000     0.0000     0.0000     0.0000     0.0000     0.0000     0.0000 </r>
        <r>    -5.8548     0.0000     0.0000     0.0000     0.0000     0.0000     0.0000     0.0000     0.0000     0.0000 </r>
        <r>    -5.7012     0.0000     0.0000     0.0000     0.0000     0.0000     0.0000     0.0000     0.0000     0.0000 </r>
        <r>    -5.5476     0.0000     0.0000     0.0000     0.0000     0.0000     0.0000     0.0000     0.0000     0.0000 </r>
        <r>    -5.3940     0.0000     0.0000     0.0000     0.0000     0.0000     0.0000     0.0000     0.0000     0.0000 </r>
        <r>    -5.2403     0.0000     0.0000     0.0000     0.0000     0.0000     0.0000     0.0000     0.0000     0.0000 </r>
        <r>    -5.0867     0.0000     0.0000     0.0000     0.0000     0.0000     0.0000     0.0000     0.0000     0.0000 </r>
        <r>    -4.9331     0.0000     0.0000     0.0000     0.0000     0.0000     0.0000     0.0000     0.0000     0.0000 </r>
        <r>    -4.7795     0.0000     0.0000     0.0000     0.0000     0.0000     0.0000     0.0000     0.0000     0.0000 </r>
        <r>    -4.6258     0.0000     0.0000     0.0000     0.0000     0.0000     0.0000     0.0000     0.0000     0.0000 </r>
        <r>    -4.4722     0.0000     0.0000     0.0000     0.0000     0.0000     0.0000     0.0000     0.0000     0.0000 </r>
        <r>    -4.3186     0.0000     0.0000     0.0000     0.0000     0.0000     0.0000     0.0000     0.0000     0.0000 </r>
        <r>    -4.1650     0.0000     0.0000     0.0000     0.0000     0.0000     0.0000     0.0000     0.0000     0.0000 </r>
        <r>    -4.0113     0.0000     0.0000     0.0000     0.0000     0.0000     0.0000     0.0000     0.0000     0.0000 </r>
        <r>    -3.8577     0.0000     0.0000     0.0000     0.0000     0.0000     0.0000     0.0000     0.0000     0.0000 </r>
        <r>    -3.7041     0.0000     0.0000     0.0000     0.0000     0.0000     0.0000     0.0000     0.0000     0.0000 </r>
        <r>    -3.5505     0.0000     0.0000     0.0000     0.0000     0.0000     0.0000     0.0000     0.0000     0.0000 </r>
        <r>    -3.3968     0.0000     0.0000     0.0000     0.0000     0.0000     0.0000     0.0000     0.0000     0.0000 </r>
        <r>    -3.2432     0.0000     0.0000     0.0000     0.0000     0.0000     0.0000     0.0000     0.0000     0.0000 </r>
        <r>    -3.0896     0.0000     0.0000     0.0000     0.0000     0.0000     0.0000     0.0000     0.0000     0.0000 </r>
        <r>    -2.9360     0.0000     0.0000     0.0000     0.0000     0.0000     0.0000     0.0000     0.0000     0.0000 </r>
        <r>    -2.7823     0.0000     0.0000     0.0000     0.0000     0.0000     0.0000     0.0000     0.0000     0.0000 </r>
        <r>    -2.6287     0.0000     0.0000     0.0000     0.0000     0.0000     0.0000     0.0000     0.0000     0.0000 </r>
        <r>    -2.4751     0.0000     0.0000     0.0000     0.0000     0.0000     0.0000     0.0000     0.0000     0.0000 </r>
        <r>    -2.3214     0.0000     0.0000     0.0000     0.0000     0.0000     0.0000     0.0000     0.0000     0.0000 </r>
        <r>    -2.1678     0.0000     0.0000     0.0000     0.0000     0.0000     0.0000     0.0000     0.0000     0.0000 </r>
        <r>    -2.0142     0.0000     0.0000     0.0000     0.0000     0.0000     0.0000     0.0000     0.0000     0.0000 </r>
        <r>    -1.8606     0.0000     0.0000     0.0000     0.0000     0.0000     0.0000     0.0000     0.0000     0.0000 </r>
        <r>    -1.7069     0.0000     0.0000     0.0000     0.0000     0.0000     0.0000     0.0000     0.0000     0.0000 </r>
        <r>    -1.5533     0.0000     0.0000     0.0000     0.0000     0.0000     0.0000     0.0000     0.0000     0.0000 </r>
        <r>    -1.3997     0.0000     0.0000     0.0000     0.0000     0.0000     0.0000     0.0000     0.0000     0.0000 </r>
        <r>    -1.2461     0.0000     0.0000     0.0000     0.0000     0.0000     0.0000     0.0000     0.0000     0.0000 </r>
[...]
        <r>    25.6385     0.0000     0.0000     0.0000     0.0000     0.0000     0.0000     0.0000     0.0000     0.0000 </r>
        <r>    25.7921     0.0000     0.0000     0.0000     0.0000     0.0000     0.0000     0.0000     0.0000     0.0000 </r>
        <r>    25.9457     0.0000     0.0000     0.0000     0.0000     0.0000     0.0000     0.0000     0.0000     0.0000 </r>
        <r>    26.0994     0.0000     0.0000     0.0000     0.0000     0.0000     0.0000     0.0000     0.0000     0.0000 </r>
        <r>    26.2530     0.0000     0.0000     0.0000     0.0000     0.0000     0.0000     0.0000     0.0000     0.0000 </r>
        <r>    26.4066     0.0000     0.0000     0.0000     0.0000     0.0000     0.0000     0.0000     0.0000     0.0000 </r>
        <r>    26.5603     0.0000     0.0000     0.0000     0.0000     0.0000     0.0000     0.0000     0.0000     0.0000 </r>
        <r>    26.7139     0.0000     0.0000     0.0000     0.0000     0.0000     0.0000     0.0000     0.0000     0.0000 </r>
        <r>    26.8675     0.0000     0.0000     0.0000     0.0000     0.0000     0.0000     0.0000     0.0000     0.0000 </r>
        <r>    27.0211     0.0000     0.0000     0.0000     0.0000     0.0000     0.0000     0.0000     0.0000     0.0000 </r>
        <r>    27.1748     0.0000     0.0000     0.0000     0.0000     0.0000     0.0000     0.0000     0.0000     0.0000 </r>
        <r>    27.3284     0.0000     0.0000     0.0000     0.0000     0.0000     0.0000     0.0000     0.0000     0.0000 </r>
        <r>    27.4820     0.0000     0.0000     0.0000     0.0000     0.0000     0.0000     0.0000     0.0000     0.0000 </r>
        <r>    27.6356     0.0000     0.0000     0.0000     0.0000     0.0000     0.0000     0.0000     0.0000     0.0000 </r>
        <r>    27.7893     0.0000     0.0000     0.0000     0.0000     0.0000     0.0000     0.0000     0.0000     0.0000 </r>
        <r>    27.9429     0.0000     0.0000     0.0000     0.0000     0.0000     0.0000     0.0000     0.0000     0.0000 </r>
        <r>    28.0965     0.0000     0.0000     0.0000     0.0000     0.0000     0.0000     0.0000     0.0000     0.0000 </r>
        <r>    28.2501     0.0000     0.0000     0.0000     0.0000     0.0000     0.0000     0.0000     0.0000     0.0000 </r>
        <r>    28.4038     0.0000     0.0000     0.0000     0.0000     0.0000     0.0000     0.0000     0.0000     0.0000 </r>
        <r>    28.5574     0.0000     0.0000     0.0000     0.0000     0.0000     0.0000     0.0000     0.0000     0.0000 </r>
        <r>    28.7110     0.0000     0.0867     0.0867     0.0867     0.0000     0.0000     0.0000     0.0000     0.0000 </r>
        <r>    28.8646     0.0000     0.0000     0.0000     0.0000     0.0000     0.0000     0.0000     0.0000     0.0000 </r>
        <r>    29.0183     0.0001     0.0945     0.0945     0.0945     0.0000     0.0000     0.0000     0.0000     0.0000 </r>
        <r>    29.1719     0.0000     0.0000     0.0000     0.0000     0.0000     0.0000     0.0000     0.0000     0.0000 </r>
        <r>    29.3255     0.0000     0.0000     0.0000     0.0000     0.0000     0.0000     0.0000     0.0000     0.0000 </r>
        <r>    29.4791     0.0000     0.0000     0.0000     0.0000     0.0000     0.0000     0.0000     0.0000     0.0000 </r>
        <r>    29.6328     0.0000     0.0000     0.0000     0.0000     0.0000     0.0000     0.0000     0.0000     0.0000 </r>
        <r>    29.7864     0.0000     0.0000     0.0000     0.0000     0.0000     0.0000     0.0000     0.0000     0.0000 </r>
        <r>    29.9400     0.0000     0.0000     0.0000     0.0000     0.0000     0.0000     0.0000     0.0000     0.0000 </r>
        <r>    30.0937     0.0000     0.0000     0.0000     0.0000     0.0000     0.0000     0.0000     0.0000     0.0000 </r>
        <r>    30.2473     0.0000     0.0000     0.0000     0.0000     0.0000     0.0000     0.0000     0.0000     0.0000 </r>
        <r>    30.4009     0.0000     0.0000     0.0000     0.0000     0.0000     0.0000     0.0000     0.0000     0.0000 </r>
        <r>    30.5545     0.0000     0.0000     0.0000     0.0000     0.0000     0.0000     0.0000     0.0000     0.0000 </r>
        <r>    30.7082     0.0000     0.0000     0.0000     0.0000     0.0000     0.0000     0.0000     0.0000     0.0000 </r>
        <r>    30.8618     0.0000     0.0000     0.0000     0.0000     0.0000     0.0000     0.0000     0.0000     0.0000 </r>
        <r>    31.0154     0.0000     0.0000     0.0000     0.0000     0.0000     0.0000     0.0000     0.0000     0.0000 </r>
        <r>    31.1690     0.0000     0.0000     0.0000     0.0000     0.0000     0.0000     0.0000     0.0000     0.0000 </r>
        <r>    31.3227     0.0000     0.0000     0.0000     0.0000     0.0000     0.0000     0.0000     0.0000     0.0000 </r>
        <r>    31.4763     0.0000     0.0000     0.0000     0.0000     0.0000     0.0000     0.0000     0.0000     0.0000 </r>
        <r>    31.6299     0.0000     0.0000     0.0000     0.0000     0.0000     0.0000     0.0000     0.0000     0.0000 </r>
        <r>    31.7835     0.0000     0.0000     0.0000     0.0000     0.0000     0.0000     0.0000     0.0000     0.0000 </r>
        <r>    31.9372     0.0000     0.0000     0.0000     0.0000     0.0000     0.0000     0.0000     0.0000     0.0000 </r>
        <r>    32.0908     0.0000     0.0000     0.0000     0.0000     0.0000     0.0000     0.0000     0.0000     0.0000 </r>
        <r>    32.2444     0.0000     0.0000     0.0000     0.0000     0.0000     0.0000     0.0000     0.0000     0.0000 </r>
       </set>
      </set>
     </set>
    </array>
   </partial>
  </dos>
  <projected>
   <eigenvalues>
    <array>
     <dimension dim="1">band</dimension>
     <dimension dim="2">kpoint</dimension>
     <dimension dim="3">spin</dimension>
     <field>eigene</field>
     <field>occ</field>
     <set>
      <set comment="spin 1">
       <set comment="kpoint 1">
        <r>  -11.7485    1.0000 </r>
        <r>  -11.7261    1.0000 </r>
        <r>  -11.6968    1.0000 </r>
        <r>  -11.6229    1.0000 </r>
        <r>  -11.5802    1.0000 </r>
        <r>   -7.0081    1.0000 </r>
        <r>    4.2781    1.0000 </r>
        <r>    4.9951    1.0000 </r>
        <r>    5.1145    1.0000 </r>
        <r>    7.7985    0.0000 </r>
        <r>    9.9030    0.0000 </r>
        <r>   10.2353    0.0000 </r>
        <r>   10.2816    0.0000 </r>
        <r>   13.9908    0.0000 </r>
        <r>   15.6968    0.0000 </r>
        <r>   15.7831    0.0000 </r>
        <r>   16.6598    0.0000 </r>
        <r>   16.7096    0.0000 </r>
        <r>   16.8343    0.0000 </r>
        <r>   18.9672    0.0000 </r>
        <r>   28.6531    0.0000 </r>
        <r>   28.9837    0.0000 </r>
        <r>   28.9924    0.0000 </r>
        <r>   30.1495    0.0000 </r>
       </set>
      </set>
      <set comment="spin 2">
       <set comment="kpoint 1">
        <r>  -11.7481    1.0000 </r>
        <r>  -11.7265    1.0000 </r>
        <r>  -11.6969    1.0000 </r>
        <r>  -11.6230    1.0000 </r>
        <r>  -11.5803    1.0000 </r>
        <r>   -7.0080    1.0000 </r>
        <r>    4.2787    1.0000 </r>
        <r>    4.9948    1.0000 </r>
        <r>    5.1145    1.0000 </r>
        <r>    7.7987    0.0000 </r>
        <r>    9.9028    0.0000 </r>
        <r>   10.2354    0.0000 </r>
        <r>   10.2814    0.0000 </r>
        <r>   13.9907    0.0000 </r>
        <r>   15.6971    0.0000 </r>
        <r>   15.7832    0.0000 </r>
        <r>   16.6597    0.0000 </r>
        <r>   16.7090    0.0000 </r>
        <r>   16.8347    0.0000 </r>
        <r>   18.9669    0.0000 </r>
        <r>   28.6536    0.0000 </r>
        <r>   28.9827    0.0000 </r>
        <r>   28.9931    0.0000 </r>
        <r>   30.1480    0.0000 </r>
       </set>
      </set>
     </set>
    </array>
   </eigenvalues>
   <array>
    <dimension dim="1">ion</dimension>
    <dimension dim="2">band</dimension>
    <dimension dim="3">kpoint</dimension>
    <dimension dim="4">spin</dimension>
    <field>    s</field>
    <field>   py</field>
    <field>   pz</field>
    <field>   px</field>
    <field>  dxy</field>
    <field>  dyz</field>
    <field>  dz2</field>
    <field>  dxz</field>
    <field>x2-y2</field>
    <set>
     <set comment="spin1">
      <set comment="kpoint 1">
       <set comment="band 1">
        <r>  0.0001  0.0000  0.0000  0.0000  0.0940  0.1334  0.0071  0.2478  0.4894 </r>
        <r>  0.0002  0.0012  0.0015  0.0010  0.0000  0.0000  0.0000  0.0000  0.0000 </r>
       </set>
       <set comment="band 2">
        <r>  0.0000  0.0000  0.0000  0.0000  0.2093  0.1123  0.3546  0.2348  0.0615 </r>
        <r>  0.0000  0.0000  0.0013  0.0023  0.0000  0.0000  0.0000  0.0000  0.0000 </r>
       </set>
       <set comment="band 3">
        <r>  0.0000  0.0001  0.0000  0.0000  0.0339  0.0751  0.3503  0.1689  0.3449 </r>
        <r>  0.0000  0.0023  0.0009  0.0003  0.0000  0.0000  0.0000  0.0000  0.0000 </r>
       </set>
       <set comment="band 4">
        <r>  0.0000  0.0000  0.0000  0.0000  0.4840  0.1699  0.1990  0.0757  0.0537 </r>
        <r>  0.0000  0.0000  0.0000  0.0000  0.0000  0.0000  0.0000  0.0000  0.0000 </r>
       </set>
       <set comment="band 5">
        <r>  0.0000  0.0000  0.0000  0.0000  0.1579  0.4882  0.0642  0.2483  0.0236 </r>
        <r>  0.0000  0.0000  0.0000  0.0000  0.0000  0.0000  0.0000  0.0000  0.0000 </r>
       </set>
       <set comment="band 6">
        <r>  0.2239  0.0000  0.0000  0.0000  0.0000  0.0000  0.0000  0.0005  0.0005 </r>
        <r>  0.3151  0.0010  0.0014  0.0006  0.0000  0.0000  0.0000  0.0000  0.0000 </r>
       </set>
       <set comment="band 7">
        <r>  0.1470  0.0160  0.0224  0.0096  0.0022  0.0054  0.0000  0.0122  0.0174 </r>
        <r>  0.1297  0.0743  0.1052  0.0435  0.0000  0.0000  0.0000  0.0000  0.0000 </r>
       </set>
       <set comment="band 8">
        <r>  0.0000  0.0000  0.0314  0.0872  0.0152  0.0056  0.0233  0.0113  0.0069 </r>
        <r>  0.0001  0.0001  0.0970  0.2592  0.0000  0.0000  0.0000  0.0000  0.0000 </r>
       </set>
       <set comment="band 9">
        <r>  0.0000  0.0542  0.0204  0.0068  0.0018  0.0054  0.0243  0.0108  0.0225 </r>
        <r>  0.0000  0.2521  0.0948  0.0316  0.0000  0.0000  0.0000  0.0000  0.0000 </r>
       </set>
       <set comment="band 10">
        <r>  0.1602  0.0145  0.0210  0.0080  0.0013  0.0036  0.0000  0.0108  0.0137 </r>
        <r>  0.2183  0.0475  0.0697  0.0251  0.0000  0.0000  0.0000  0.0000  0.0000 </r>
       </set>
       <set comment="band 11">
        <r>  0.0000  0.2639  0.0989  0.0330  0.0001  0.0002  0.0011  0.0005  0.0010 </r>
        <r>  0.0000  0.0118  0.0044  0.0015  0.0000  0.0000  0.0000  0.0000  0.0000 </r>
       </set>
       <set comment="band 12">
        <r>  0.0000  0.0004  0.1022  0.2493  0.0032  0.0012  0.0049  0.0024  0.0015 </r>
        <r>  0.0000  0.0000  0.0106  0.0279  0.0000  0.0000  0.0000  0.0000  0.0000 </r>
       </set>
       <set comment="band 13">
        <r>  0.0004  0.1278  0.1788  0.0779  0.0007  0.0016  0.0000  0.0016  0.0032 </r>
        <r>  0.0006  0.0074  0.0099  0.0051  0.0000  0.0000  0.0000  0.0000  0.0000 </r>
       </set>
       <set comment="band 14">
        <r>  0.3489  0.0000  0.0000  0.0000  0.0000  0.0000  0.0000  0.0000  0.0001 </r>
        <r>  0.0013  0.0000  0.0000  0.0000  0.0000  0.0000  0.0000  0.0000  0.0000 </r>
       </set>
       <set comment="band 15">
        <r>  0.0000  0.0001  0.0002  0.0000  0.0303  0.0918  0.0095  0.0234  0.0001 </r>
        <r>  0.0000  0.0001  0.0002  0.0001  0.0000  0.0000  0.0000  0.0000  0.0000 </r>
       </set>
       <set comment="band 16">
        <r>  0.0000  0.0000  0.0000  0.0000  0.0811  0.0272  0.0307  0.0134  0.0100 </r>
        <r>  0.0000  0.0000  0.0000  0.0000  0.0000  0.0000  0.0000  0.0000  0.0000 </r>
       </set>
       <set comment="band 17">
        <r>  0.0000  0.0000  0.0118  0.0304  0.0128  0.0042  0.0188  0.0100  0.0054 </r>
        <r>  0.0000  0.0000  0.0046  0.0118  0.0000  0.0000  0.0000  0.0000  0.0000 </r>
       </set>
       <set comment="band 18">
        <r>  0.0005  0.0141  0.0201  0.0083  0.0005  0.0007  0.0007  0.0277  0.0262 </r>
        <r>  0.0000  0.0056  0.0080  0.0033  0.0000  0.0000  0.0000  0.0000  0.0000 </r>
       </set>
       <set comment="band 19">
        <r>  0.0000  0.0347  0.0129  0.0043  0.0017  0.0047  0.0214  0.0096  0.0201 </r>
        <r>  0.0000  0.0081  0.0030  0.0010  0.0000  0.0000  0.0000  0.0000  0.0000 </r>
       </set>
       <set comment="band 20">
        <r>  0.0417  0.0003  0.0005  0.0002  0.0000  0.0001  0.0000  0.0001  0.0001 </r>
        <r>  0.0368  0.0000  0.0000  0.0000  0.0000  0.0000  0.0000  0.0000  0.0000 </r>
       </set>
       <set comment="band 21">
        <r>  0.0000  0.0000  0.0265  0.0911  0.0116  0.0032  0.0165  0.0069  0.0062 </r>
        <r>  0.0000  0.0000  0.0089  0.0310  0.0000  0.0000  0.0000  0.0000  0.0000 </r>
       </set>
       <set comment="band 22">
        <r>  0.0000  0.0339  0.0543  0.0151  0.0051  0.0181  0.0002  0.0150  0.0229 </r>
        <r>  0.0000  0.0116  0.0183  0.0052  0.0000  0.0000  0.0000  0.0000  0.0000 </r>
       </set>
       <set comment="band 23">
        <r>  0.0000  0.0370  0.0133  0.0044  0.0027  0.0077  0.0356  0.0157  0.0336 </r>
        <r>  0.0000  0.0057  0.0020  0.0007  0.0000  0.0000  0.0000  0.0000  0.0000 </r>
       </set>
       <set comment="band 24">
        <r>  0.0000  0.0048  0.0011  0.0015  0.0002  0.0004  0.0005  0.0002  0.0004 </r>
        <r>  0.0000  0.0021  0.0003  0.0012  0.0000  0.0000  0.0000  0.0000  0.0000 </r>
       </set>
      </set>
     </set>
     <set comment="spin2">
      <set comment="kpoint 1">
       <set comment="band 1">
        <r>  0.0001  0.0000  0.0001  0.0000  0.0594  0.1465  0.0005  0.3125  0.4529 </r>
        <r>  0.0002  0.0012  0.0018  0.0007  0.0000  0.0000  0.0000  0.0000  0.0000 </r>
       </set>
       <set comment="band 2">
        <r>  0.0000  0.0000  0.0000  0.0000  0.0326  0.0771  0.3537  0.1687  0.3404 </r>
        <r>  0.0000  0.0024  0.0009  0.0003  0.0000  0.0000  0.0000  0.0000  0.0000 </r>
       </set>
       <set comment="band 3">
        <r>  0.0000  0.0000  0.0000  0.0001  0.2391  0.0857  0.3613  0.1818  0.1053 </r>
        <r>  0.0000  0.0000  0.0009  0.0025  0.0000  0.0000  0.0000  0.0000  0.0000 </r>
       </set>
       <set comment="band 4">
        <r>  0.0000  0.0000  0.0000  0.0000  0.4854  0.1684  0.1957  0.0772  0.0555 </r>
        <r>  0.0000  0.0000  0.0000  0.0000  0.0000  0.0000  0.0000  0.0000  0.0000 </r>
       </set>
       <set comment="band 5">
        <r>  0.0000  0.0000  0.0000  0.0000  0.1626  0.5011  0.0640  0.2355  0.0190 </r>
        <r>  0.0000  0.0000  0.0000  0.0000  0.0000  0.0000  0.0000  0.0000  0.0000 </r>
       </set>
       <set comment="band 6">
        <r>  0.2239  0.0000  0.0000  0.0000  0.0001  0.0004  0.0000  0.0001  0.0003 </r>
        <r>  0.3151  0.0010  0.0015  0.0005  0.0000  0.0000  0.0000  0.0000  0.0000 </r>
       </set>
       <set comment="band 7">
        <r>  0.1471  0.0160  0.0231  0.0088  0.0024  0.0066  0.0000  0.0116  0.0167 </r>
        <r>  0.1299  0.0745  0.1085  0.0398  0.0000  0.0000  0.0000  0.0000  0.0000 </r>
       </set>
       <set comment="band 8">
        <r>  0.0000  0.0791  0.0297  0.0099  0.0017  0.0052  0.0234  0.0104  0.0216 </r>
        <r>  0.0000  0.2372  0.0893  0.0298  0.0000  0.0000  0.0000  0.0000  0.0000 </r>
       </set>
       <set comment="band 9">
        <r>  0.0000  0.0000  0.0216  0.0598  0.0159  0.0058  0.0243  0.0114  0.0075 </r>
        <r>  0.0000  0.0001  0.1000  0.2783  0.0000  0.0000  0.0000  0.0000  0.0000 </r>
       </set>
       <set comment="band 10">
        <r>  0.1600  0.0145  0.0212  0.0078  0.0023  0.0060  0.0000  0.0082  0.0129 </r>
        <r>  0.2181  0.0475  0.0686  0.0263  0.0000  0.0000  0.0000  0.0000  0.0000 </r>
       </set>
       <set comment="band 11">
        <r>  0.0000  0.0000  0.0972  0.2986  0.0008  0.0002  0.0011  0.0005  0.0004 </r>
        <r>  0.0000  0.0000  0.0043  0.0134  0.0000  0.0000  0.0000  0.0000  0.0000 </r>
       </set>
       <set comment="band 12">
        <r>  0.0000  0.2339  0.0883  0.0294  0.0004  0.0011  0.0049  0.0022  0.0046 </r>
        <r>  0.0000  0.0257  0.0097  0.0032  0.0000  0.0000  0.0000  0.0000  0.0000 </r>
       </set>
       <set comment="band 13">
        <r>  0.0004  0.1287  0.1938  0.0622  0.0002  0.0007  0.0000  0.0029  0.0032 </r>
        <r>  0.0006  0.0075  0.0112  0.0036  0.0000  0.0000  0.0000  0.0000  0.0000 </r>
       </set>
       <set comment="band 14">
        <r>  0.3489  0.0000  0.0000  0.0000  0.0000  0.0000  0.0000  0.0001  0.0001 </r>
        <r>  0.0013  0.0000  0.0000  0.0000  0.0000  0.0000  0.0000  0.0000  0.0000 </r>
       </set>
       <set comment="band 15">
        <r>  0.0000  0.0001  0.0001  0.0000  0.0203  0.0601  0.0092  0.0550  0.0104 </r>
        <r>  0.0000  0.0001  0.0002  0.0000  0.0000  0.0000  0.0000  0.0000  0.0000 </r>
       </set>
       <set comment="band 16">
        <r>  0.0000  0.0000  0.0000  0.0000  0.0813  0.0270  0.0303  0.0136  0.0102 </r>
        <r>  0.0000  0.0000  0.0000  0.0000  0.0000  0.0000  0.0000  0.0000  0.0000 </r>
       </set>
       <set comment="band 17">
        <r>  0.0000  0.0281  0.0106  0.0035  0.0014  0.0044  0.0193  0.0085  0.0177 </r>
        <r>  0.0000  0.0109  0.0041  0.0014  0.0000  0.0000  0.0000  0.0000  0.0000 </r>
       </set>
       <set comment="band 18">
        <r>  0.0005  0.0142  0.0231  0.0053  0.0064  0.0239  0.0009  0.0080  0.0167 </r>
        <r>  0.0000  0.0057  0.0091  0.0022  0.0000  0.0000  0.0000  0.0000  0.0000 </r>
       </set>
       <set comment="band 19">
        <r>  0.0000  0.0000  0.0111  0.0408  0.0154  0.0038  0.0212  0.0084  0.0086 </r>
        <r>  0.0000  0.0000  0.0025  0.0096  0.0000  0.0000  0.0000  0.0000  0.0000 </r>
       </set>
       <set comment="band 20">
        <r>  0.0417  0.0003  0.0005  0.0002  0.0000  0.0000  0.0000  0.0001  0.0001 </r>
        <r>  0.0368  0.0000  0.0000  0.0000  0.0000  0.0000  0.0000  0.0000  0.0000 </r>
       </set>
       <set comment="band 21">
        <r>  0.0000  0.0785  0.0293  0.0098  0.0013  0.0036  0.0165  0.0075  0.0156 </r>
        <r>  0.0000  0.0267  0.0100  0.0033  0.0000  0.0000  0.0000  0.0000  0.0000 </r>
       </set>
       <set comment="band 22">
        <r>  0.0000  0.0324  0.0623  0.0060  0.0000  0.0075  0.0011  0.0354  0.0189 </r>
        <r>  0.0000  0.0110  0.0198  0.0029  0.0000  0.0000  0.0000  0.0000  0.0000 </r>
       </set>
       <set comment="band 23">
        <r>  0.0000  0.0020  0.0035  0.0518  0.0256  0.0048  0.0347  0.0069  0.0217 </r>
        <r>  0.0000  0.0006  0.0002  0.0090  0.0000  0.0000  0.0000  0.0000  0.0000 </r>
       </set>
       <set comment="band 24">
        <r>  0.0000  0.0000  0.0027  0.0048  0.0005  0.0000  0.0007  0.0001  0.0002 </r>
        <r>  0.0000  0.0000  0.0015  0.0016  0.0000  0.0000  0.0000  0.0000  0.0000 </r>
       </set>
      </set>
     </set>
    </set>
   </array>
  </projected>
 </calculation>
 <structure name="finalpos" >
  <crystal>
   <varray name="basis" >
    <v>       3.61541800       0.00000000       2.08736254 </v>
    <v>       1.20513900       3.40864864       2.08736254 </v>
    <v>       0.00000000       0.00000000       4.17472507 </v>
   </varray>
   <i name="volume">     51.44801605 </i>
   <varray name="rec_basis" >
    <v>       0.27659319      -0.09779044       0.00000000 </v>
    <v>       0.00000000       0.29337139       0.00000000 </v>
    <v>      -0.13829660      -0.09779048       0.23953673 </v>
   </varray>
  </crystal>
  <varray name="positions" >
   <v>       0.00000000       0.00000000       0.00000000 </v>
   <v>       0.25000000       0.25000000       0.25000000 </v>
  </varray>
 </structure>
</modeling>
