 vasp.6.4.2 20Jul23 (build Mar 15 2024 16:31:38) complex                        
  
 executed on             LinuxIFC date 2025.03.31  18:27:15
 running  120 mpi-ranks, on    3 nodes
 distrk:  each k-point on  120 cores,    1 groups
 distr:  one band on NCORE=  20 cores,    6 groups


--------------------------------------------------------------------------------------------------------


 INCAR:
   ALGO = Normal
   EDIFF = 1e-05
   ENAUG = 1360
   ENCUT = 680
   GGA = Pe
   HFSCREEN = 0.2
   ISMEAR = -5
   ISPIN = 2
   LAECHG = True
   LASPH = True
   LCHARG = True
   LDAU = False
   LELF = False
   LHFCALC = True
   LMAXMIX = 6
   LMIXTAU = True
   LORBIT = 11
   LREAL = False
   LVTOT = True
   LWAVE = False
   MAGMOM = 36*0.0
   NCORE = 20
   NELM = 200
   NSW = 0
   PREC = Accurate
   PRECFOCK = Accurate
   SIGMA = 0.2

 POTCAR:    PAW_PBE Tl_d 06Sep2000                
 POTCAR:    PAW_PBE Cu 22Jun2005                  
 POTCAR:    PAW_PBE Se 06Sep2000                  
 WARNING: For LVTOT=.TRUE., VASP.5.x writes the TOTAL local potential to the
     file LOCPOT. If you want only the Hartree contributions, use LVHAR=.TRUE.
     instead. 

 POTCAR:    PAW_PBE Tl_d 06Sep2000                
   VRHFIN =Tl:                                                                                      
   LEXCH  = PE                                                                                      
   EATOM  =  1391.8071 eV,  102.2949 Ry                                                             
                                                                                                    
   TITEL  = PAW_PBE Tl_d 06Sep2000                                                                  
   LULTRA =        F    use ultrasoft PP ?                                                          
   IUNSCR =        1    unscreen: 0-lin 1-nonlin 2-no                                               
   RPACOR =    2.200    partial core radius                                                         
   POMASS =  204.380; ZVAL   =   13.000    mass and valenz                                          
   RCORE  =    2.500    outmost cutoff radius                                                       
   RWIGS  =    3.260; RWIGS  =    1.725    wigner-seitz radius (au A)                               
   ENMAX  =  237.053; ENMIN  =  177.789 eV                                                          
   ICORE  =        3    local potential                                                             
   LCOR   =        T    correct aug charges                                                         
   LPAW   =        T    paw PP                                                                      
   EAUG   =  395.511                                                                                
   DEXC   =    0.000                                                                                
   RMAX   =    2.553    core radius for proj-oper                                                   
   RAUG   =    1.300    factor for augmentation sphere                                              
   RDEP   =    2.630    radius for radial grids                                                     
   RDEPT  =    2.133    core radius for aug-charge                                                  
                                                                                                    
   Atomic configuration                                                                             
   16 entries                                                                                       
     n  l   j            E        occ.                                                              
     1  0  0.50    -85594.3226   2.0000                                                             
     2  0  0.50    -15237.2711   2.0000                                                             
     2  1  1.50    -13100.9674   6.0000                                                             
     3  0  0.50     -3637.0868   2.0000                                                             
     3  1  1.50     -3022.5362   6.0000                                                             
     3  2  2.50     -2387.1749  10.0000                                                             
     4  0  0.50      -811.8534   2.0000                                                             
     4  1  1.50      -610.4868   6.0000                                                             
     4  2  2.50      -374.8241  10.0000                                                             
     4  3  3.50      -114.0438  14.0000                                                             
     5  0  0.50      -130.9408   2.0000                                                             
     5  1  1.50       -76.0548   6.0000                                                             
     5  2  2.50       -15.4864  10.0000                                                             
     6  0  0.50        -9.5437   2.0000                                                             
     6  1  1.50        -2.3700   1.0000                                                             
     5  3  2.50        -2.7212   0.0000                                                             
   Description                                                                                      
     l       E           TYP  RCUT    TYP  RCUT                                                     
     2    -15.4863948     23  2.500                                                                 
     2    -16.8469774     23  2.500                                                                 
     0     -9.5436777     23  2.500                                                                 
     0     13.6058260     23  2.500                                                                 
     1     -2.3700287     23  2.500                                                                 
     1     13.6058260     23  2.500                                                                 
     3     -1.3605826      7  2.500                                                                 
  local pseudopotential read in
  partial core-charges read in
  partial kinetic energy density read in
  atomic valenz-charges read in
  non local Contribution for L=           2  read in
    real space projection operators read in
  non local Contribution for L=           2  read in
    real space projection operators read in
  non local Contribution for L=           0  read in
    real space projection operators read in
  non local Contribution for L=           0  read in
    real space projection operators read in
  non local Contribution for L=           1  read in
    real space projection operators read in
  non local Contribution for L=           1  read in
    real space projection operators read in
    PAW grid and wavefunctions read in
 
   number of l-projection  operators is LMAX  =           6
   number of lm-projection operators is LMMAX =          18
 
 POTCAR:    PAW_PBE Cu 22Jun2005                  
   VRHFIN =Cu: d10 p1                                                                               
   LEXCH  = PE                                                                                      
   EATOM  =  1390.9808 eV,  102.2342 Ry                                                             
                                                                                                    
   TITEL  = PAW_PBE Cu 22Jun2005                                                                    
   LULTRA =        F    use ultrasoft PP ?                                                          
   IUNSCR =        1    unscreen: 0-lin 1-nonlin 2-no                                               
   RPACOR =    2.000    partial core radius                                                         
   POMASS =   63.546; ZVAL   =   11.000    mass and valenz                                          
   RCORE  =    2.300    outmost cutoff radius                                                       
   RWIGS  =    2.200; RWIGS  =    1.164    wigner-seitz radius (au A)                               
   ENMAX  =  295.446; ENMIN  =  221.585 eV                                                          
   ICORE  =        3    local potential                                                             
   LCOR   =        T    correct aug charges                                                         
   LPAW   =        T    paw PP                                                                      
   EAUG   =  586.980                                                                                
   DEXC   =    0.000                                                                                
   RMAX   =    2.344    core radius for proj-oper                                                   
   RAUG   =    1.300    factor for augmentation sphere                                              
   RDEP   =    2.302    radius for radial grids                                                     
   RDEPT  =    1.771    core radius for aug-charge                                                  
                                                                                                    
   Atomic configuration                                                                             
    9 entries                                                                                       
     n  l   j            E        occ.                                                              
     1  0  0.50     -8850.2468   2.0000                                                             
     2  0  0.50     -1062.3498   2.0000                                                             
     2  1  1.50      -916.8226   6.0000                                                             
     3  0  0.50      -114.6929   2.0000                                                             
     3  1  1.50       -72.1325   6.0000                                                             
     3  2  2.50        -5.0394  10.0000                                                             
     4  0  0.50        -4.6097   1.0000                                                             
     4  1  0.50        -4.0817   0.0000                                                             
     4  3  2.50        -1.3606   0.0000                                                             
   Description                                                                                      
     l       E           TYP  RCUT    TYP  RCUT                                                     
     2     -5.0393973     23  2.200                                                                 
     2     10.8846608     23  2.200                                                                 
     0     -4.6097109     23  2.200                                                                 
     0      8.2520465     23  2.200                                                                 
     1     -2.7211652     23  2.200                                                                 
     1     21.7055443     23  2.200                                                                 
     3      2.7211652     23  2.300                                                                 
  local pseudopotential read in
  partial core-charges read in
  partial kinetic energy density read in
  atomic valenz-charges read in
  non local Contribution for L=           2  read in
    real space projection operators read in
  non local Contribution for L=           2  read in
    real space projection operators read in
  non local Contribution for L=           0  read in
    real space projection operators read in
  non local Contribution for L=           0  read in
    real space projection operators read in
  non local Contribution for L=           1  read in
    real space projection operators read in
  non local Contribution for L=           1  read in
    real space projection operators read in
    PAW grid and wavefunctions read in
 
   number of l-projection  operators is LMAX  =           6
   number of lm-projection operators is LMMAX =          18
 
 POTCAR:    PAW_PBE Se 06Sep2000                  
   VRHFIN =Se: s2p4                                                                                 
   LEXCH  = PE                                                                                      
   EATOM  =   257.1286 eV,   18.8984 Ry                                                             
                                                                                                    
   TITEL  = PAW_PBE Se 06Sep2000                                                                    
   LULTRA =        F    use ultrasoft PP ?                                                          
   IUNSCR =        1    unscreen: 0-lin 1-nonlin 2-no                                               
   RPACOR =    1.900    partial core radius                                                         
   POMASS =   78.960; ZVAL   =    6.000    mass and valenz                                          
   RCORE  =    2.100    outmost cutoff radius                                                       
   RWIGS  =    2.200; RWIGS  =    1.164    wigner-seitz radius (au A)                               
   ENMAX  =  211.555; ENMIN  =  158.666 eV                                                          
   ICORE  =        3    local potential                                                             
   LCOR   =        T    correct aug charges                                                         
   LPAW   =        T    paw PP                                                                      
   EAUG   =  446.842                                                                                
   DEXC   =    0.000                                                                                
   RMAX   =    2.147    core radius for proj-oper                                                   
   RAUG   =    1.300    factor for augmentation sphere                                              
   RDEP   =    2.177    radius for radial grids                                                     
   RDEPT  =    1.928    core radius for aug-charge                                                  
                                                                                                    
   Atomic configuration                                                                             
   10 entries                                                                                       
     n  l   j            E        occ.                                                              
     1  0  0.50    -12503.4787   2.0000                                                             
     2  0  0.50     -1606.9547   2.0000                                                             
     2  1  1.50     -1413.3140   6.0000                                                             
     3  0  0.50      -213.4885   2.0000                                                             
     3  1  1.50      -152.9538   6.0000                                                             
     3  2  2.50       -53.1221  10.0000                                                             
     4  0  0.50       -17.2865   2.0000                                                             
     4  1  0.50        -6.5110   4.0000                                                             
     4  2  2.50        -6.8029   0.0000                                                             
     4  3  2.50        -6.8029   0.0000                                                             
   Description                                                                                      
     l       E           TYP  RCUT    TYP  RCUT                                                     
     0    -17.2865377     23  2.100                                                                 
     0    -15.3094411     23  2.100                                                                 
     1     -6.5110275     23  2.100                                                                 
     1     -0.0695192     23  2.100                                                                 
     2     -6.8029130     23  2.100                                                                 
     3     -1.3605826      7  2.100                                                                 
  local pseudopotential read in
  partial core-charges read in
  partial kinetic energy density read in
  atomic valenz-charges read in
  non local Contribution for L=           0  read in
    real space projection operators read in
  non local Contribution for L=           0  read in
    real space projection operators read in
  non local Contribution for L=           1  read in
    real space projection operators read in
  non local Contribution for L=           1  read in
    real space projection operators read in
  non local Contribution for L=           2  read in
    real space projection operators read in
    PAW grid and wavefunctions read in
 
   number of l-projection  operators is LMAX  =           5
   number of lm-projection operators is LMMAX =          13
 
 -----------------------------------------------------------------------------
|                                                                             |
|               ----> ADVICE to this user running VASP <----                  |
|                                                                             |
|     You have a (more or less) 'large supercell' and for larger cells it     |
|     might be more efficient to use real-space projection operators.         |
|     Therefore, try LREAL= Auto in the INCAR file.                           |
|     Mind: For very accurate calculation, you might also keep the            |
|     reciprocal projection scheme (i.e. LREAL=.FALSE.).                      |
|                                                                             |
 -----------------------------------------------------------------------------

  PAW_PBE Tl_d 06Sep2000                :
 energy of atom  1       EATOM=-1391.8071
 kinetic energy error for atom=    0.0012 (will be added to EATOM!!)
  PAW_PBE Cu 22Jun2005                  :
 energy of atom  2       EATOM=-1390.9808
 kinetic energy error for atom=    0.0018 (will be added to EATOM!!)
  PAW_PBE Se 06Sep2000                  :
 energy of atom  3       EATOM= -257.1286
 kinetic energy error for atom=    0.0004 (will be added to EATOM!!)
 
 
 POSCAR: Tl4 Cu20 Se12
  positions in direct lattice
  No initial velocities read in
 exchange correlation table for  LEXCH =        8
   RHO(1)=    0.500       N(1)  =     2000
   RHO(2)=  100.500       N(2)  =     4000
 


--------------------------------------------------------------------------------------------------------


 ion  position               nearest neighbor table
   1  0.397  0.603  0.500-  27 3.29  28 3.29  27 3.29  28 3.29  31 3.33  36 3.33  31 3.33  36 3.33
                             2 3.76
   2  0.603  0.397  0.500-  27 3.29  28 3.29  27 3.29  28 3.29  32 3.33  35 3.33  32 3.33  35 3.33
                             1 3.76
   3  0.103  0.103  0.000-  25 3.29  26 3.29  25 3.29  26 3.29  29 3.33  33 3.33  29 3.33  33 3.33
                             4 3.76
   4  0.897  0.897  0.000-  25 3.29  26 3.29  25 3.29  26 3.29  30 3.33  34 3.33  30 3.33  34 3.33
                             3 3.76
   5  0.311  0.311  0.500-  27 2.41  27 2.41  33 2.54  29 2.54  15 2.66  15 2.66  11 2.66  11 2.66

   6  0.689  0.689  0.500-  28 2.41  28 2.41  34 2.54  30 2.54  16 2.66  16 2.66  12 2.66  12 2.66

   7  0.189  0.811  0.000-  25 2.41  25 2.41  36 2.54  31 2.54  14 2.66   9 2.66  14 2.66   9 2.66

   8  0.811  0.189  0.000-  26 2.41  26 2.41  35 2.54  32 2.54  10 2.66  13 2.66  13 2.66  10 2.66

   9  0.085  0.708  0.500-  25 2.40  17 2.55  34 2.57  31 2.57  31 2.57  24 2.65  24 2.65   7 2.66
                             7 2.66
  10  0.915  0.292  0.500-  26 2.40  18 2.55  33 2.57  32 2.57  32 2.57  23 2.65  23 2.65   8 2.66
                             8 2.66
  11  0.415  0.208  0.000-  27 2.40  19 2.55  35 2.57  29 2.57  29 2.57  21 2.65  21 2.65   5 2.66
                             5 2.66
  12  0.585  0.792  0.000-  28 2.40  20 2.55  36 2.57  30 2.57  30 2.57  22 2.65  22 2.65   6 2.66
                             6 2.66
  13  0.708  0.085  0.500-  26 2.40  21 2.55  30 2.57  35 2.57  35 2.57  20 2.65  20 2.65   8 2.66
                             8 2.66
  14  0.292  0.915  0.500-  25 2.40  22 2.55  29 2.57  36 2.57  36 2.57  19 2.65  19 2.65   7 2.66
                             7 2.66
  15  0.208  0.415  0.000-  27 2.40  23 2.55  31 2.57  33 2.57  33 2.57  17 2.65  17 2.65   5 2.66
                             5 2.66
  16  0.792  0.585  0.000-  28 2.40  24 2.55  32 2.57  34 2.57  34 2.57  18 2.65  18 2.65   6 2.66
                             6 2.66
  17  0.099  0.511  0.500-  33 2.50  31 2.54  31 2.54   9 2.55  18 2.57  24 2.62  24 2.62  23 2.62
                            23 2.62  15 2.65  15 2.65
  18  0.901  0.489  0.500-  34 2.50  32 2.54  32 2.54  10 2.55  17 2.57  24 2.62  24 2.62  23 2.62
                            23 2.62  16 2.65  16 2.65
  19  0.401  0.011  0.000-  36 2.50  29 2.54  29 2.54  11 2.55  20 2.57  21 2.62  21 2.62  22 2.62
                            22 2.62  14 2.65  14 2.65
  20  0.599  0.989  0.000-  35 2.50  30 2.54  30 2.54  12 2.55  19 2.57  22 2.62  22 2.62  21 2.62
                            21 2.62  13 2.65  13 2.65
  21  0.511  0.099  0.500-  29 2.50  35 2.54  35 2.54  13 2.55  22 2.57  19 2.62  19 2.62  20 2.62
                            20 2.62  11 2.65  11 2.65
  22  0.489  0.901  0.500-  30 2.50  36 2.54  36 2.54  14 2.55  21 2.57  20 2.62  20 2.62  19 2.62
                            19 2.62  12 2.65  12 2.65
  23  0.011  0.401  0.000-  32 2.50  33 2.54  33 2.54  15 2.55  24 2.57  17 2.62  17 2.62  18 2.62
                            18 2.62  10 2.65  10 2.65
  24  0.989  0.599  0.000-  31 2.50  34 2.54  34 2.54  16 2.55  23 2.57  18 2.62  18 2.62  17 2.62
                            17 2.62   9 2.65   9 2.65
  25  0.106  0.894  0.500-   9 2.40  14 2.40   7 2.41   7 2.41   3 3.29   4 3.29   4 3.29   3 3.29

  26  0.894  0.106  0.500-  10 2.40  13 2.40   8 2.41   8 2.41   3 3.29   4 3.29   4 3.29   3 3.29

  27  0.394  0.394  0.000-  11 2.40  15 2.40   5 2.41   5 2.41   2 3.29   1 3.29   1 3.29   2 3.29

  28  0.606  0.606  0.000-  12 2.40  16 2.40   6 2.41   6 2.41   1 3.29   2 3.29   2 3.29   1 3.29

  29  0.317  0.113  0.500-  21 2.50   5 2.54  19 2.54  19 2.54  14 2.57  11 2.57  11 2.57   3 3.33
                             3 3.33
  30  0.683  0.887  0.500-  22 2.50   6 2.54  20 2.54  20 2.54  13 2.57  12 2.57  12 2.57   4 3.33
                             4 3.33
  31  0.183  0.613  0.000-  24 2.50   7 2.54  17 2.54  17 2.54  15 2.57   9 2.57   9 2.57   1 3.33
                             1 3.33
  32  0.817  0.387  0.000-  23 2.50   8 2.54  18 2.54  18 2.54  16 2.57  10 2.57  10 2.57   2 3.33
                             2 3.33
  33  0.113  0.317  0.500-  17 2.50   5 2.54  23 2.54  23 2.54  10 2.57  15 2.57  15 2.57   3 3.33
                             3 3.33
  34  0.887  0.683  0.500-  18 2.50   6 2.54  24 2.54  24 2.54   9 2.57  16 2.57  16 2.57   4 3.33
                             4 3.33
  35  0.613  0.183  0.000-  20 2.50   8 2.54  21 2.54  21 2.54  11 2.57  13 2.57  13 2.57   2 3.33
                             2 3.33
  36  0.387  0.817  0.000-  19 2.50   7 2.54  22 2.54  22 2.54  12 2.57  14 2.57  14 2.57   1 3.33
                             1 3.33
 
  LATTYP: Found a simple tetragonal cell.
 ALAT       =    12.8608205449
 C/A-ratio  =     0.2925081495
  
  Lattice vectors:
  
 A1 = (  12.8608205449,   0.0000000000,   0.0000000000)
 A2 = (  -0.0000000000,  12.8608205449,   0.0000000000)
 A3 = (   0.0000000000,   0.0000000000,   3.7618948191)


Analysis of symmetry for initial positions (statically):
=====================================================================
 Subroutine PRICEL returns:
 Original cell was already a primitive cell.
 

 Routine SETGRP: Setting up the symmetry group for a 
 simple tetragonal supercell.


 Subroutine GETGRP returns: Found 16 space group operations
 (whereof  8 operations were pure point group operations)
 out of a pool of 16 trial point group operations.


The static configuration has the point symmetry D_2h.
 The point group associated with its full space group is D_4h.


Analysis of symmetry for dynamics (positions and initial velocities):
=====================================================================
 Subroutine PRICEL returns:
 Original cell was already a primitive cell.
 

 Routine SETGRP: Setting up the symmetry group for a 
 simple tetragonal supercell.


 Subroutine GETGRP returns: Found 16 space group operations
 (whereof  8 operations were pure point group operations)
 out of a pool of 16 trial point group operations.


The dynamic configuration has the point symmetry D_2h.
 The point group associated with its full space group is D_4h.


Analysis of structural, dynamic, and magnetic symmetry:
=====================================================================
 Subroutine PRICEL returns:
 Original cell was already a primitive cell.
 

 Routine SETGRP: Setting up the symmetry group for a 
 simple tetragonal supercell.


 Subroutine GETGRP returns: Found 16 space group operations
 (whereof  8 operations were pure point group operations)
 out of a pool of 16 trial point group operations.


The overall configuration has the point symmetry D_2h.
 The point group associated with its full space group is D_4h.


 Subroutine INISYM returns: Found 16 space group operations
 (whereof  8 operations are pure point group operations),
 and found     1 'primitive' translations


----------------------------------------------------------------------------------------

                                     Primitive cell                                     

  volume of cell :     622.2201

  direct lattice vectors                    reciprocal lattice vectors
    12.860820545  0.000000000  0.000000000     0.077755536  0.000000000  0.000000000
    -0.000000000 12.860820545  0.000000000     0.000000000  0.077755536  0.000000000
     0.000000000  0.000000000  3.761894819    -0.000000000 -0.000000000  0.265823487

  length of vectors
    12.860820545 12.860820545  3.761894819     0.077755536  0.077755536  0.265823487

  position of ions in fractional coordinates (direct lattice)
     0.396561698  0.603438302  0.500000000
     0.603438302  0.396561698  0.500000000
     0.103438302  0.103438302  0.000000000
     0.896561698  0.896561698  0.000000000
     0.310531130  0.310531130  0.500000000
     0.689468870  0.689468870  0.500000000
     0.189468870  0.810531130  0.000000000
     0.810531130  0.189468870  0.000000000
     0.085154878  0.707981745  0.500000000
     0.914845122  0.292018255  0.500000000
     0.414845122  0.207981745  0.000000000
     0.585154878  0.792018255  0.000000000
     0.707981745  0.085154878  0.500000000
     0.292018255  0.914845122  0.500000000
     0.207981745  0.414845122  0.000000000
     0.792018255  0.585154878  0.000000000
     0.099435746  0.510554399  0.500000000
     0.900564254  0.489445601  0.500000000
     0.400564254  0.010554399  0.000000000
     0.599435746  0.989445601  0.000000000
     0.510554399  0.099435746  0.500000000
     0.489445601  0.900564254  0.500000000
     0.010554399  0.400564254  0.000000000
     0.989445601  0.599435746  0.000000000
     0.106380954  0.893619046  0.500000000
     0.893619046  0.106380954  0.500000000
     0.393619046  0.393619046  0.000000000
     0.606380954  0.606380954  0.000000000
     0.316542232  0.113283092  0.500000000
     0.683457768  0.886716908  0.500000000
     0.183457768  0.613283092  0.000000000
     0.816542232  0.386716908  0.000000000
     0.113283092  0.316542232  0.500000000
     0.886716908  0.683457768  0.500000000
     0.613283092  0.183457768  0.000000000
     0.386716908  0.816542232  0.000000000

  ion indices of the primitive-cell ions
   primitive index   ion index
                 1           1
                 2           2
                 3           3
                 4           4
                 5           5
                 6           6
                 7           7
                 8           8
                 9           9
                10          10
                11          11
                12          12
                13          13
                14          14
                15          15
                16          16
                17          17
                18          18
                19          19
                20          20
                21          21
                22          22
                23          23
                24          24
                25          25
                26          26
                27          27
                28          28
                29          29
                30          30
                31          31
                32          32
                33          33
                34          34
                35          35
                36          36

----------------------------------------------------------------------------------------

 
 
 KPOINTS: pymatgen with grid density = 918 / numbe

Automatic generation of k-mesh.
 Grid dimensions read from file:
 generate k-points for:    1    1    6

 Generating k-lattice:

  Cartesian coordinates                     Fractional coordinates (reciprocal lattice)
     0.077755536  0.000000000  0.000000000     1.000000000  0.000000000  0.000000000
     0.000000000  0.077755536  0.000000000     0.000000000  1.000000000  0.000000000
    -0.000000000 -0.000000000  0.044303915     0.000000000  0.000000000  0.166666667

  Length of vectors
     0.077755536  0.077755536  0.044303915

  Shift w.r.t. Gamma in fractional coordinates (k-lattice)
     0.000000000  0.000000000  0.000000000

 TETIRR: Found      9 inequivalent tetrahedra from       36
 
 Subroutine IBZKPT returns following result:
 ===========================================
 
 Found      4 irreducible k-points:
 
 Following reciprocal coordinates:
            Coordinates               Weight
  0.000000  0.000000  0.000000      1.000000
 -0.000000 -0.000000  0.166667      2.000000
 -0.000000 -0.000000  0.333333      2.000000
 -0.000000 -0.000000  0.500000      1.000000
 
 Following cartesian coordinates:
            Coordinates               Weight
  0.000000  0.000000  0.000000      1.000000
 -0.000000 -0.000000  0.044304      2.000000
 -0.000000 -0.000000  0.088608      2.000000
 -0.000000 -0.000000  0.132912      1.000000
 
 
 Subroutine IBZKPT_HF returns following result:
 ==============================================
 
 Found      6 k-points in 1st BZ
 the following      6 k-points will be used (e.g. in the exchange kernel)
 Following reciprocal coordinates:   # in IRBZ
  0.000000  0.000000  0.000000    0.16666667   1 t-inv F
 -0.000000 -0.000000  0.166667    0.16666667   2 t-inv F
 -0.000000 -0.000000  0.333333    0.16666667   3 t-inv F
 -0.000000 -0.000000  0.500000    0.16666667   4 t-inv F
  0.000000  0.000000 -0.166667    0.16666667   2 t-inv F
  0.000000  0.000000 -0.333333    0.16666667   3 t-inv F


--------------------------------------------------------------------------------------------------------




 Dimension of arrays:
   k-points           NKPTS =      4   k-points in BZ     NKDIM =      6   number of bands    NBANDS=    210
   number of dos      NEDOS =    301   number of ions     NIONS =     36
   non local maximal  LDIM  =      6   non local SUM 2l+1 LMDIM =     18
   total plane-waves  NPLWV = 401408
   max r-space proj   IRMAX =      1   max aug-charges    IRDMAX=  33980
   dimension x,y,z NGX =   112 NGY =  112 NGZ =   32
   dimension x,y,z NGXF=   224 NGYF=  224 NGZF=   64
   support grid    NGXF=   224 NGYF=  224 NGZF=   64
   ions per type =               4  20  12
   NGX,Y,Z   is equivalent  to a cutoff of  14.48, 14.48, 14.14 a.u.
   NGXF,Y,Z  is equivalent  to a cutoff of  28.96, 28.96, 28.28 a.u.

 SYSTEM =  unknown system                          
 POSCAR =  Tl4 Cu20 Se12                           

 Startparameter for this run:
   NWRITE =      2    write-flag & timer
   PREC   = accura    normal or accurate (medium, high low for compatibility)
   ISTART =      0    job   : 0-new  1-cont  2-samecut
   ICHARG =      2    charge: 1-file 2-atom 10-const
   ISPIN  =      2    spin polarized calculation?
   LNONCOLLINEAR =      F non collinear calculations
   LSORBIT =      F    spin-orbit coupling
   INIWAV =      1    electr: 0-lowe 1-rand  2-diag
   LASPH  =      T    aspherical Exc in radial PAW
 Electronic Relaxation 1
   ENCUT  =  680.0 eV  49.98 Ry    7.07 a.u.  27.35 27.35  8.00*2*pi/ulx,y,z
   ENINI  =  680.0     initial cutoff
   ENAUG  = 1360.0 eV  augmentation charge cutoff
   NELM   =    200;   NELMIN=  2; NELMDL= -5     # of ELM steps 
   EDIFF  = 0.1E-04   stopping-criterion for ELM
   LREAL  =      F    real-space projection
   NLSPLINE    = F    spline interpolate recip. space projectors
   LCOMPAT=      F    compatible to vasp.4.4
   GGA_COMPAT  = T    GGA compatible to vasp.4.4-vasp.4.6
   LMAXPAW     = -100 max onsite density
   LMAXMIX     =    6 max onsite mixed and CHGCAR
   VOSKOWN=      0    Vosko Wilk Nusair interpolation
   ROPT   =    0.00000   0.00000   0.00000
 Ionic relaxation
   EDIFFG = 0.1E-03   stopping-criterion for IOM
   NSW    =      0    number of steps for IOM
   NBLOCK =      1;   KBLOCK =      1    inner block; outer block 
   IBRION =     -1    ionic relax: 0-MD 1-quasi-New 2-CG
   NFREE  =      0    steps in history (QN), initial steepest desc. (CG)
   ISIF   =      0    stress and relaxation
   IWAVPR =     10    prediction:  0-non 1-charg 2-wave 3-comb
   ISYM   =      3    0-nonsym 1-usesym 2-fastsym
   LCORR  =      T    Harris-Foulkes like correction to forces

   POTIM  = 0.5000    time-step for ionic-motion
   TEIN   =    0.0    initial temperature
   TEBEG  =    0.0;   TEEND  =   0.0 temperature during run
   SMASS  =  -3.00    Nose mass-parameter (am)
   estimated Nose-frequenzy (Omega)   =  0.10E-29 period in steps = 0.13E+47 mass=  -0.378E-26a.u.
   SCALEE = 1.0000    scale energy and forces
   NPACO  =    256;   APACO  = 10.0  distance and # of slots for P.C.
   PSTRESS=    0.0 pullay stress

  Mass of Ions in am
   POMASS = 204.38 63.55 78.96
  Ionic Valenz
   ZVAL   =  13.00 11.00  6.00
  Atomic Wigner-Seitz radii
   RWIGS  =  -1.00 -1.00 -1.00
  virtual crystal weights 
   VCA    =   1.00  1.00  1.00
   NELECT =     344.0000    total number of electrons
   NUPDOWN=      -1.0000    fix difference up-down

 DOS related values:
   EMIN   =  10.00;   EMAX   =-10.00  energy-range for DOS
   EFERMI =   0.00;   METHOD = LEGACY      
   ISMEAR =    -5;   SIGMA  =   0.20  broadening in eV -4-tet -1-fermi 0-gaus

 Electronic relaxation 2 (details)
   IALGO  =     38    algorithm
   LDIAG  =      T    sub-space diagonalisation (order eigenvalues)
   LSUBROT=      F    optimize rotation matrix (better conditioning)
   TURBO    =      0    0=normal 1=particle mesh
   IRESTART =      0    0=no restart 2=restart with 2 vectors
   NREBOOT  =      0    no. of reboots
   NMIN     =      0    reboot dimension
   EREF     =   0.00    reference energy to select bands
   IMIX   =      1    mixing-type and parameters
     AMIX     =   0.40;   BMIX     =  1.00
     AMIX_MAG =   1.60;   BMIX_MAG =  1.00
     AMIN     =   0.10
     WC   =   100.;   INIMIX=   1;  MIXPRE=   1;  MAXMIX= -45

 Intra band minimization:
   WEIMIN = 0.0000     energy-eigenvalue tresh-hold
   EBREAK =  0.12E-07  absolut break condition
   DEPER  =   0.30     relativ break condition  

   TIME   =   0.40     timestep for ELM

  volume/ion in A,a.u.               =      17.28       116.64
  Fermi-wavevector in a.u.,A,eV,Ry     =   1.343630  2.539092 24.563158  1.805341
  Thomas-Fermi vector in A             =   2.471688
 
 Write flags
   LWAVE        =      F    write WAVECAR
   LDOWNSAMPLE  =      F    k-point downsampling of WAVECAR
   LCHARG       =      T    write CHGCAR
   LVTOT        =      T    write LOCPOT, total local potential
   LVHAR        =      F    write LOCPOT, Hartree potential only
   LELF         =      F    write electronic localiz. function (ELF)
   LORBIT       =     11    0 simple, 1 ext, 2 COOP (PROOUT), +10 PAW based schemes


 Dipole corrections
   LMONO  =      F    monopole corrections only (constant potential shift)
   LDIPOL =      F    correct potential (dipole corrections)
   IDIPOL =      0    1-x, 2-y, 3-z, 4-all directions 
   EPSILON=  1.0000000 bulk dielectric constant

 Exchange correlation treatment:
   GGA     =    PE    GGA type
   LEXCH   =     8    internal setting for exchange type
   LIBXC   =     F    Libxc                    
   VOSKOWN =     0    Vosko Wilk Nusair interpolation
   EXXOEP  =     0    0=HF, 1=EXX-LHF (local Hartree Fock) 2=EXX OEP
   LHFCALC =     T    Hartree Fock is set to
   LSYMGRAD=     F    symmetrize gradient (conserves proper symmetry)
   PRECFOCK=accur.    Normal, Fast or Accurate (Low or Medium for compatibility)
   LRHFCALC=     F    long range Hartree Fock
   LRSCOR  =     F    long range correlation only (use DFT for short range part)
   LTHOMAS =     F    Thomas Fermi screening in HF
   LMODELHF=     F    short range full HF, long range fraction AEXX
   FOCKCORR=     1    mode to apply convergence corrections
   LFOCKACE=     T    use Adeptively-Compressed-Exchange operator
   ENCUT4O =  -1.0   cutoff for four orbital integrals eV
   LMAXFOCK=     4    L truncation for augmentation on plane wave grid
   LMAXFOCKAE=  -1    L truncation for all-electron charge restoration on plane wave grid
   NMAXFOCKAE=   1    number of basis functions for all-electron charge restoration
   LFOCKAEDFT=     F  apply the AE augmentation even for DFT
   NKREDX  =     1    reduce k-point grid by
   NKREDY  =     1    reduce k-point grid by
   NKREDZ  =     1    reduce k-point grid by
   SHIFTRED=     F    shift reduced grid of Gamma
   HFKIDENT=     F    idential grid for each k-point
   ODDONLY =     F    use only odd q-grid points
   EVENONLY=     F    use only even q-grid points
   HFALPHA =   -1.0000 decay constant for conv. correction
   MCALPHA =    0.0000 extent of test-charge in conv. correction in multipole expansion
   AEXX    =    0.2500 exact exchange contribution
   HFSCREEN=    0.2000 screening length (either q_TF or 0.3 A-1)
   HFSCREENC=   0.2000 screening length for correlation (either q_TF or 0.3 A-1)
   HFRCUT  =    0.0000 spherical cutoff for potential kernel
   ALDAX   =    0.7500 LDA exchange part
   AGGAX   =    0.7500 GGA exchange part
   ALDAC   =    1.0000 LDA correlation
   AGGAC   =    1.0000 GGA correlation
   ENCUTFOCK=  -1.0 apply spherical cutoff to Coloumb kernel
   NBANDSGWLOW=     1    first orbital included in HF term
   NBLOCK_FOCK=    64    blocking factor in FOCK_ACC

 Linear response parameters
   LEPSILON=     F    determine dielectric tensor
   LRPA    =     F    only Hartree local field effects (RPA)
   LNABLA  =     F    use nabla operator in PAW spheres
   LVEL    =     F    velocity operator in full k-point grid
   CSHIFT  =0.1000    complex shift for real part using Kramers Kronig
   OMEGAMAX=  -1.0    maximum frequency
   DEG_THRESHOLD= 0.2000000E-02 threshold for treating states as degnerate
   RTIME   =   -0.100 relaxation time in fs
  (WPLASMAI=    0.000 imaginary part of plasma frequency in eV, 0.658/RTIME)
   DFIELD  = 0.0000000 0.0000000 0.0000000 field for delta impulse in time
 
  Optional k-point grid parameters
   LKPOINTS_OPT  =     F    use optional k-point grid
   KPOINTS_OPT_MODE=     1    mode for optional k-point grid
 
 Orbital magnetization related:
   ORBITALMAG=     F  switch on orbital magnetization
   LCHIMAG   =     F  perturbation theory with respect to B field
   DQ        =  0.001000  dq finite difference perturbation B field
   LLRAUG    =     F  two centre corrections for induced B field
   LBONE     =     F  B-component reconstruction in AE one-centre
   LVGVCALC  =     T  calculate vGv susceptibility
   LVGVAPPL  =     F  apply vGv susceptibility instead of pGv for G=0

 Random number generation:
   RANDOM_GENERATOR = DEFAULT
   PCG_SEED         = not used


--------------------------------------------------------------------------------------------------------


 Static calculation
 charge density and potential will be updated during run
 spin polarized calculation
 Variant of blocked Davidson
 Davidson routine will perform the subspace rotation
 perform sub-space diagonalisation
    after iterative eigenvector-optimisation
 Kerker-like  mixing scheme
 using additional bands           38
 reciprocal scheme for non local part
 use partial core corrections
 calculate Harris-corrections to forces 
   (improved forces if not selfconsistent)
 use gradient corrections 
 use of overlap-Matrix (Vanderbilt PP)
 Fermi weights with tetrahedron method with Bloechl corrections


--------------------------------------------------------------------------------------------------------


  energy-cutoff  :      680.00
  volume of cell :      622.22
      direct lattice vectors                 reciprocal lattice vectors
    12.860820545  0.000000000  0.000000000     0.077755536  0.000000000  0.000000000
    -0.000000000 12.860820545  0.000000000     0.000000000  0.077755536  0.000000000
     0.000000000  0.000000000  3.761894819    -0.000000000 -0.000000000  0.265823487

  length of vectors
    12.860820545 12.860820545  3.761894819     0.077755536  0.077755536  0.265823487


 
 k-points in units of 2pi/SCALE and weight: pymatgen with grid density = 918 / numbe
   0.00000000  0.00000000  0.00000000       0.167
  -0.00000000 -0.00000000  0.04430391       0.333
  -0.00000000 -0.00000000  0.08860783       0.333
  -0.00000000 -0.00000000  0.13291174       0.167
 
 k-points in reciprocal lattice and weights: pymatgen with grid density = 918 / numbe
   0.00000000  0.00000000  0.00000000       0.167
  -0.00000000 -0.00000000  0.16666667       0.333
  -0.00000000 -0.00000000  0.33333333       0.333
  -0.00000000 -0.00000000  0.50000000       0.167
 
 position of ions in fractional coordinates (direct lattice) 
   0.39656170  0.60343830  0.50000000
   0.60343830  0.39656170  0.50000000
   0.10343830  0.10343830  0.00000000
   0.89656170  0.89656170  0.00000000
   0.31053113  0.31053113  0.50000000
   0.68946887  0.68946887  0.50000000
   0.18946887  0.81053113  0.00000000
   0.81053113  0.18946887  0.00000000
   0.08515488  0.70798175  0.50000000
   0.91484512  0.29201825  0.50000000
   0.41484512  0.20798175  0.00000000
   0.58515488  0.79201825  0.00000000
   0.70798175  0.08515488  0.50000000
   0.29201825  0.91484512  0.50000000
   0.20798175  0.41484512  0.00000000
   0.79201825  0.58515488  0.00000000
   0.09943575  0.51055440  0.50000000
   0.90056425  0.48944560  0.50000000
   0.40056425  0.01055440  0.00000000
   0.59943575  0.98944560  0.00000000
   0.51055440  0.09943575  0.50000000
   0.48944560  0.90056425  0.50000000
   0.01055440  0.40056425  0.00000000
   0.98944560  0.59943575  0.00000000
   0.10638095  0.89361905  0.50000000
   0.89361905  0.10638095  0.50000000
   0.39361905  0.39361905  0.00000000
   0.60638095  0.60638095  0.00000000
   0.31654223  0.11328309  0.50000000
   0.68345777  0.88671691  0.50000000
   0.18345777  0.61328309  0.00000000
   0.81654223  0.38671691  0.00000000
   0.11328309  0.31654223  0.50000000
   0.88671691  0.68345777  0.50000000
   0.61328309  0.18345777  0.00000000
   0.38671691  0.81654223  0.00000000
 
 position of ions in cartesian coordinates  (Angst):
   5.10010883  7.76071172  1.88094741
   7.76071172  5.10010883  1.88094741
   1.33030144  1.33030144  0.00000000
  11.53051910 11.53051910  0.00000000
   3.99368514  3.99368514  1.88094741
   8.86713541  8.86713541  1.88094741
   2.43672513 10.42409541  0.00000000
  10.42409541  2.43672513  0.00000000
   1.09516160  9.10522617  1.88094741
  11.76565894  3.75559437  1.88094741
   5.33524867  2.67481590  0.00000000
   7.52557187 10.18600464  0.00000000
   9.10522617  1.09516160  1.88094741
   3.75559437 11.76565894  1.88094741
   2.67481590  5.33524867  0.00000000
  10.18600464  7.52557187  0.00000000
   1.27882529  6.56614850  1.88094741
  11.58199526  6.29467204  1.88094741
   5.15158499  0.13573823  0.00000000
   7.70923556 12.72508231  0.00000000
   6.56614850  1.27882529  1.88094741
   6.29467204 11.58199526  1.88094741
   0.13573823  5.15158499  0.00000000
  12.72508231  7.70923556  0.00000000
   1.36814636 11.49267418  1.88094741
  11.49267418  1.36814636  1.88094741
   5.06226391  5.06226391  0.00000000
   7.79855663  7.79855663  0.00000000
   4.07099284  1.45691351  1.88094741
   8.78982770 11.40390703  1.88094741
   2.35941743  7.88732378  0.00000000
  10.50140311  4.97349676  0.00000000
   1.45691351  4.07099284  1.88094741
  11.40390703  8.78982770  1.88094741
   7.88732378  2.35941743  0.00000000
   4.97349676 10.50140311  0.00000000
 


--------------------------------------------------------------------------------------------------------


 k-point   1 :   0.0000 0.0000 0.0000  plane waves:   25023
 k-point   2 :  -0.0000-0.0000 0.1667  plane waves:   25048
 k-point   3 :  -0.0000-0.0000 0.3333  plane waves:   25104
 k-point   4 :  -0.0000-0.0000 0.5000  plane waves:   25032

 maximum and minimum number of plane-waves per node :      1316     1202

 maximum number of plane-waves:     25104
 maximum index in each direction: 
   IXMAX=   27   IYMAX=   27   IZMAX=    7
   IXMIN=  -27   IYMIN=  -27   IZMIN=   -8


 parallel 3D FFT for wavefunctions:
    minimum data exchange during FFTs selected (reduces bandwidth)
 parallel 3D FFT for charge:
    minimum data exchange during FFTs selected (reduces bandwidth)

 
 Radii for the augmentation spheres in the non-local exchange
 for species   1 augmentation radius   1.436 (default was   1.149)
       energy cutoff for augmentation   2720.0
 for species   2 augmentation radius   1.179 (default was   0.943)
       energy cutoff for augmentation   2720.0
 for species   3 augmentation radius   1.351 (default was   1.081)
       energy cutoff for augmentation   2720.0

 real space projection operators:
  total allocation   :      39125.00 KBytes
  max/ min on nodes  :       2090.23       1814.06

 Maximum index for augmentation-charges in exchange          545
  SETUP_FOCK is finished

 total amount of memory used by VASP MPI-rank0    53494. kBytes
=======================================================================

   base      :      30000. kBytes
   nonl-proj :       3055. kBytes
   fftplans  :       2327. kBytes
   grid      :       4329. kBytes
   one-center:         62. kBytes
   HF        :        129. kBytes
   nonlr-proj:       7491. kBytes
   wavefun   :       6101. kBytes
 
     INWAV:  cpu time      0.0001: real time      0.0005
 initial charge density was supplied:
 charge density of overlapping atoms calculated
 number of electron     344.0000000 magnetization       0.0000000
 keeping initial charge density in first step


--------------------------------------------------------------------------------------------------------


 Maximum index for augmentation-charges          806 (set IRDMAX)


--------------------------------------------------------------------------------------------------------


 First call to EWALD:  gamma=   0.208
 Maximum number of real-space cells 2x 2x 6
 Maximum number of reciprocal cells 4x 4x 1

    FEWALD:  cpu time      0.0022: real time      0.0023


--------------------------------------- Ionic step        1  -------------------------------------------




--------------------------------------- Iteration      1(   1)  ---------------------------------------


    POTLOK:  cpu time      0.0873: real time      0.0893
    SETDIJ:  cpu time      0.4032: real time      0.4044
     EDDAV:  cpu time      2.4629: real time      2.5489
 BZINTS: Fermi energy:   33.075911;  344.000000 electrons
         Band energy: 0.444548E+04;  BLOECHL correction:   -0.327605
       DOS:  cpu time      0.0075: real time      0.0075
    --------------------------------------------
      LOOP:  cpu time      2.9608: real time      3.0502

 eigenvalue-minimisations  :  3372
 total energy-change (2. order) :-0.2034203E+05  (-0.1720783E+05)
 number of electron     344.0000000 magnetization       0.0000000
 augmentation part      344.0000000 magnetization       0.0000000

 Free energy of the ion-electron system (eV)
  ---------------------------------------------------
  alpha Z        PSCENC =      1369.24157313
  Ewald energy   TEWEN  =    -23810.64517069
  -Hartree energ DENC   =    -14168.96470651
  -exchange      EXHF   =         0.00000000
  -V(xc)+E(xc)   XCENC  =      1012.83189152
  PAW double counting   =     32076.20786345   -57669.93998220
  entropy T*S    EENTRO =         0.00000000
  eigenvalues    EBANDS =      4445.48128276
  atomic energy  EATOM  =     36403.75672706
  Solvation  Ediel_sol  =         0.00000000
  ---------------------------------------------------
  free energy    TOTEN  =    -20342.03052149 eV

  energy without entropy =   -20342.03052149  energy(sigma->0) =   -20342.03052149
  exchange ACFDT corr.  =         0.00000000  see jH, gK, PRB 81, 115126


--------------------------------------------------------------------------------------------------------




--------------------------------------- Iteration      1(   2)  ---------------------------------------


     EDDAV:  cpu time      2.2636: real time      2.2727
 BZINTS: Fermi energy:   13.738913;  344.000000 electrons
         Band energy: 0.851893E+03;  BLOECHL correction:   -0.263606
       DOS:  cpu time      0.0058: real time      0.0058
    --------------------------------------------
      LOOP:  cpu time      2.2693: real time      2.2785

 eigenvalue-minimisations  :  3360
 total energy-change (2. order) :-0.3593588E+04  (-0.3432833E+04)
 number of electron     344.0000000 magnetization       0.0000000
 augmentation part      344.0000000 magnetization       0.0000000

 Free energy of the ion-electron system (eV)
  ---------------------------------------------------
  alpha Z        PSCENC =      1369.24157313
  Ewald energy   TEWEN  =    -23810.64517069
  -Hartree energ DENC   =    -14168.96470651
  -exchange      EXHF   =         0.00000000
  -V(xc)+E(xc)   XCENC  =      1012.83189152
  PAW double counting   =     32076.20786345   -57669.93998220
  entropy T*S    EENTRO =         0.00000000
  eigenvalues    EBANDS =       851.89323574
  atomic energy  EATOM  =     36403.75672706
  Solvation  Ediel_sol  =         0.00000000
  ---------------------------------------------------
  free energy    TOTEN  =    -23935.61856851 eV

  energy without entropy =   -23935.61856851  energy(sigma->0) =   -23935.61856851
  exchange ACFDT corr.  =         0.00000000  see jH, gK, PRB 81, 115126


--------------------------------------------------------------------------------------------------------




--------------------------------------- Iteration      1(   3)  ---------------------------------------


     EDDAV:  cpu time      2.0582: real time      2.0798
 BZINTS: Fermi energy:    6.886829;  344.000000 electrons
         Band energy:-0.428041E+02;  BLOECHL correction:   -0.072033
       DOS:  cpu time      0.0059: real time      0.0059
    --------------------------------------------
      LOOP:  cpu time      2.0641: real time      2.0857

 eigenvalue-minimisations  :  3360
 total energy-change (2. order) :-0.8946974E+03  (-0.8442796E+03)
 number of electron     344.0000000 magnetization       0.0000000
 augmentation part      344.0000000 magnetization       0.0000000

 Free energy of the ion-electron system (eV)
  ---------------------------------------------------
  alpha Z        PSCENC =      1369.24157313
  Ewald energy   TEWEN  =    -23810.64517069
  -Hartree energ DENC   =    -14168.96470651
  -exchange      EXHF   =         0.00000000
  -V(xc)+E(xc)   XCENC  =      1012.83189152
  PAW double counting   =     32076.20786345   -57669.93998220
  entropy T*S    EENTRO =         0.00000000
  eigenvalues    EBANDS =       -42.80411777
  atomic energy  EATOM  =     36403.75672706
  Solvation  Ediel_sol  =         0.00000000
  ---------------------------------------------------
  free energy    TOTEN  =    -24830.31592202 eV

  energy without entropy =   -24830.31592202  energy(sigma->0) =   -24830.31592202
  exchange ACFDT corr.  =         0.00000000  see jH, gK, PRB 81, 115126


--------------------------------------------------------------------------------------------------------




--------------------------------------- Iteration      1(   4)  ---------------------------------------


     EDDAV:  cpu time      2.7329: real time      2.7584
 BZINTS: Fermi energy:    4.850810;  344.000000 electrons
         Band energy:-0.161976E+03;  BLOECHL correction:    0.000000
       DOS:  cpu time      0.0022: real time      0.0023
    --------------------------------------------
      LOOP:  cpu time      2.7351: real time      2.7606

 eigenvalue-minimisations  :  4800
 total energy-change (2. order) :-0.1191718E+03  (-0.1146431E+03)
 number of electron     344.0000000 magnetization       0.0000000
 augmentation part      344.0000000 magnetization       0.0000000

 Free energy of the ion-electron system (eV)
  ---------------------------------------------------
  alpha Z        PSCENC =      1369.24157313
  Ewald energy   TEWEN  =    -23810.64517069
  -Hartree energ DENC   =    -14168.96470651
  -exchange      EXHF   =         0.00000000
  -V(xc)+E(xc)   XCENC  =      1012.83189152
  PAW double counting   =     32076.20786345   -57669.93998220
  entropy T*S    EENTRO =         0.00000000
  eigenvalues    EBANDS =      -161.97591662
  atomic energy  EATOM  =     36403.75672706
  Solvation  Ediel_sol  =         0.00000000
  ---------------------------------------------------
  free energy    TOTEN  =    -24949.48772086 eV

  energy without entropy =   -24949.48772086  energy(sigma->0) =   -24949.48772086
  exchange ACFDT corr.  =         0.00000000  see jH, gK, PRB 81, 115126


--------------------------------------------------------------------------------------------------------




--------------------------------------- Iteration      1(   5)  ---------------------------------------


    POTLOK:  cpu time      0.1050: real time      0.1164
    SETDIJ:  cpu time      0.9454: real time      0.9477
     EDDAV:  cpu time    440.5449: real time    441.6929
 BZINTS: Fermi energy:    5.672941;  344.000000 electrons
         Band energy: 0.119866E+03;  BLOECHL correction:    0.000000
       DOS:  cpu time      0.0023: real time      0.0025
    CHARGE:  cpu time      0.1359: real time      0.1363
    MIXING:  cpu time      0.0006: real time      0.0006
    --------------------------------------------
      LOOP:  cpu time    441.7340: real time    442.8964

 eigenvalue-minimisations  :  4068
 total energy-change (2. order) : 0.2480270E+05  (-0.2323906E+02)
 number of electron     344.0000002 magnetization       0.0000000
 augmentation part      149.1032567 magnetization       0.0012680

 Free energy of the ion-electron system (eV)
  ---------------------------------------------------
  alpha Z        PSCENC =      1369.24157313
  Ewald energy   TEWEN  =    -23810.64517069
  -Hartree energ DENC   =    -14168.96470651
  -exchange      EXHF   =       853.99647470
  -V(xc)+E(xc)   XCENC  =       757.95753728
  PAW double counting   =     32317.32920485   -33989.32256299
  entropy T*S    EENTRO =         0.00000000
  eigenvalues    EBANDS =       119.86628740
  atomic energy  EATOM  =     36403.75672706
  Solvation  Ediel_sol  =         0.00000000
  ---------------------------------------------------
  free energy    TOTEN  =      -146.78463577 eV

  energy without entropy =     -146.78463577  energy(sigma->0) =     -146.78463577
  exchange ACFDT corr.  =         0.00000000  see jH, gK, PRB 81, 115126


--------------------------------------------------------------------------------------------------------




--------------------------------------- Iteration      1(   6)  ---------------------------------------


    POTLOK:  cpu time      0.0977: real time      0.1099
    SETDIJ:  cpu time      0.9810: real time      0.9834
     EDDAV:  cpu time    441.3807: real time    442.5398
 BZINTS: Fermi energy:    5.692351;  344.000000 electrons
         Band energy: 0.247785E+02;  BLOECHL correction:    0.000000
       DOS:  cpu time      0.0025: real time      0.0027
    CHARGE:  cpu time      0.1277: real time      0.1280
    MIXING:  cpu time      0.0010: real time      0.0010
    --------------------------------------------
      LOOP:  cpu time    442.5907: real time    443.7649

 eigenvalue-minimisations  :  5208
 total energy-change (2. order) :-0.5417336E-01  (-0.9629108E+00)
 number of electron     344.0000004 magnetization      -0.0000000
 augmentation part      149.6360093 magnetization      -0.0001034

 Free energy of the ion-electron system (eV)
  ---------------------------------------------------
  alpha Z        PSCENC =      1369.24157313
  Ewald energy   TEWEN  =    -23810.64517069
  -Hartree energ DENC   =    -14036.77636273
  -exchange      EXHF   =       822.39909445
  -V(xc)+E(xc)   XCENC  =       754.70672034
  PAW double counting   =     34375.23627248   -36049.53614349
  entropy T*S    EENTRO =         0.00000000
  eigenvalues    EBANDS =        24.77848033
  atomic energy  EATOM  =     36403.75672706
  Solvation  Ediel_sol  =         0.00000000
  ---------------------------------------------------
  free energy    TOTEN  =      -146.83880913 eV

  energy without entropy =     -146.83880913  energy(sigma->0) =     -146.83880913
  exchange ACFDT corr.  =         0.00000000  see jH, gK, PRB 81, 115126


--------------------------------------------------------------------------------------------------------




--------------------------------------- Iteration      1(   7)  ---------------------------------------


    POTLOK:  cpu time      0.1310: real time      0.1417
    SETDIJ:  cpu time      0.9802: real time      0.9826
     EDDAV:  cpu time    442.0831: real time    443.2073
 BZINTS: Fermi energy:    5.755472;  344.000000 electrons
         Band energy:-0.243590E+02;  BLOECHL correction:    0.000000
       DOS:  cpu time      0.0028: real time      0.0029
    CHARGE:  cpu time      0.1286: real time      0.1291
    MIXING:  cpu time      0.0005: real time      0.0005
    --------------------------------------------
      LOOP:  cpu time    443.3260: real time    444.4640

 eigenvalue-minimisations  :  5004
 total energy-change (2. order) : 0.4832772E+00  (-0.4906758E+00)
 number of electron     344.0000004 magnetization       0.0000000
 augmentation part      150.7239549 magnetization      -0.0006101

 Free energy of the ion-electron system (eV)
  ---------------------------------------------------
  alpha Z        PSCENC =      1369.24157313
  Ewald energy   TEWEN  =    -23810.64517069
  -Hartree energ DENC   =    -13975.42258815
  -exchange      EXHF   =       822.84568979
  -V(xc)+E(xc)   XCENC  =       753.15641983
  PAW double counting   =     35706.30387149   -37391.23307581
  entropy T*S    EENTRO =         0.00000000
  eigenvalues    EBANDS =       -24.35897860
  atomic energy  EATOM  =     36403.75672706
  Solvation  Ediel_sol  =         0.00000000
  ---------------------------------------------------
  free energy    TOTEN  =      -146.35553195 eV

  energy without entropy =     -146.35553195  energy(sigma->0) =     -146.35553195
  exchange ACFDT corr.  =         0.00000000  see jH, gK, PRB 81, 115126


--------------------------------------------------------------------------------------------------------




--------------------------------------- Iteration      1(   8)  ---------------------------------------


    POTLOK:  cpu time      0.0982: real time      0.1120
    SETDIJ:  cpu time      0.9778: real time      0.9802
     EDDAV:  cpu time    443.1860: real time    444.3714
 BZINTS: Fermi energy:    5.843568;  344.000000 electrons
         Band energy:-0.426058E+01;  BLOECHL correction:    0.000000
       DOS:  cpu time      0.0023: real time      0.0024
    CHARGE:  cpu time      0.1282: real time      0.1285
    MIXING:  cpu time      0.0006: real time      0.0006
    --------------------------------------------
      LOOP:  cpu time    444.3931: real time    445.5952

 eigenvalue-minimisations  :  5112
 total energy-change (2. order) : 0.3344967E-02  (-0.1453376E+00)
 number of electron     344.0000005 magnetization      -0.0000000
 augmentation part      150.6994818 magnetization      -0.0002680

 Free energy of the ion-electron system (eV)
  ---------------------------------------------------
  alpha Z        PSCENC =      1369.24157313
  Ewald energy   TEWEN  =    -23810.64517069
  -Hartree energ DENC   =    -13978.09339522
  -exchange      EXHF   =       825.05101191
  -V(xc)+E(xc)   XCENC  =       753.40936045
  PAW double counting   =     36583.96262953   -38288.77433992
  entropy T*S    EENTRO =         0.00000000
  eigenvalues    EBANDS =        -4.26058324
  atomic energy  EATOM  =     36403.75672706
  Solvation  Ediel_sol  =         0.00000000
  ---------------------------------------------------
  free energy    TOTEN  =      -146.35218698 eV

  energy without entropy =     -146.35218698  energy(sigma->0) =     -146.35218698
  exchange ACFDT corr.  =         0.00000000  see jH, gK, PRB 81, 115126


--------------------------------------------------------------------------------------------------------




--------------------------------------- Iteration      1(   9)  ---------------------------------------


    POTLOK:  cpu time      0.1125: real time      0.1276
    SETDIJ:  cpu time      0.9840: real time      0.9864
     EDDAV:  cpu time    443.2415: real time    444.3880
 BZINTS: Fermi energy:    5.840141;  344.000000 electrons
         Band energy: 0.252339E+01;  BLOECHL correction:    0.000000
       DOS:  cpu time      0.0025: real time      0.0026
    CHARGE:  cpu time      0.1375: real time      0.1378
    MIXING:  cpu time      0.0010: real time      0.0010
    --------------------------------------------
      LOOP:  cpu time    444.4789: real time    445.6435

 eigenvalue-minimisations  :  5172
 total energy-change (2. order) : 0.4272114E-01  (-0.1073333E-01)
 number of electron     344.0000005 magnetization       0.0000000
 augmentation part      150.5582332 magnetization      -0.0001481

 Free energy of the ion-electron system (eV)
  ---------------------------------------------------
  alpha Z        PSCENC =      1369.24157313
  Ewald energy   TEWEN  =    -23810.64517069
  -Hartree energ DENC   =    -13973.81415744
  -exchange      EXHF   =       824.17104180
  -V(xc)+E(xc)   XCENC  =       753.37223155
  PAW double counting   =     37199.89490744   -38914.81000770
  entropy T*S    EENTRO =         0.00000000
  eigenvalues    EBANDS =         2.52338902
  atomic energy  EATOM  =     36403.75672706
  Solvation  Ediel_sol  =         0.00000000
  ---------------------------------------------------
  free energy    TOTEN  =      -146.30946584 eV

  energy without entropy =     -146.30946584  energy(sigma->0) =     -146.30946584
  exchange ACFDT corr.  =         0.00000000  see jH, gK, PRB 81, 115126


--------------------------------------------------------------------------------------------------------




--------------------------------------- Iteration      1(  10)  ---------------------------------------


    POTLOK:  cpu time      0.1717: real time      0.1842
    SETDIJ:  cpu time      0.9819: real time      0.9844
     EDDAV:  cpu time    443.6838: real time    444.8780
 BZINTS: Fermi energy:    5.847921;  344.000000 electrons
         Band energy:-0.127296E+01;  BLOECHL correction:    0.000000
       DOS:  cpu time      0.0024: real time      0.0025
    CHARGE:  cpu time      0.1374: real time      0.1377
    MIXING:  cpu time      0.0006: real time      0.0006
    --------------------------------------------
      LOOP:  cpu time    444.9778: real time    446.1875

 eigenvalue-minimisations  :  5088
 total energy-change (2. order) : 0.1933933E-01  (-0.3706152E-02)
 number of electron     344.0000005 magnetization      -0.0000000
 augmentation part      150.5571618 magnetization      -0.0001075

 Free energy of the ion-electron system (eV)
  ---------------------------------------------------
  alpha Z        PSCENC =      1369.24157313
  Ewald energy   TEWEN  =    -23810.64517069
  -Hartree energ DENC   =    -13964.95680984
  -exchange      EXHF   =       823.74068572
  -V(xc)+E(xc)   XCENC  =       753.18291799
  PAW double counting   =     37564.68958475   -39284.02667288
  entropy T*S    EENTRO =         0.00000000
  eigenvalues    EBANDS =        -1.27296174
  atomic energy  EATOM  =     36403.75672706
  Solvation  Ediel_sol  =         0.00000000
  ---------------------------------------------------
  free energy    TOTEN  =      -146.29012651 eV

  energy without entropy =     -146.29012651  energy(sigma->0) =     -146.29012651
  exchange ACFDT corr.  =         0.00000000  see jH, gK, PRB 81, 115126


--------------------------------------------------------------------------------------------------------




--------------------------------------- Iteration      1(  11)  ---------------------------------------


    POTLOK:  cpu time      0.1627: real time      0.1771
    SETDIJ:  cpu time      1.0150: real time      1.0176
     EDDAV:  cpu time    444.9434: real time    446.1599
 BZINTS: Fermi energy:    5.832872;  344.000000 electrons
         Band energy:-0.298021E+01;  BLOECHL correction:    0.000000
       DOS:  cpu time      0.0025: real time      0.0027
    CHARGE:  cpu time      0.1423: real time      0.1429
    MIXING:  cpu time      0.0005: real time      0.0005
    --------------------------------------------
      LOOP:  cpu time    446.2664: real time    447.5006

 eigenvalue-minimisations  :  5124
 total energy-change (2. order) : 0.5474127E-02  (-0.1029617E-02)
 number of electron     344.0000006 magnetization       0.0000000
 augmentation part      150.5713469 magnetization      -0.0000330

 Free energy of the ion-electron system (eV)
  ---------------------------------------------------
  alpha Z        PSCENC =      1369.24157313
  Ewald energy   TEWEN  =    -23810.64517069
  -Hartree energ DENC   =    -13960.33908480
  -exchange      EXHF   =       823.91382828
  -V(xc)+E(xc)   XCENC  =       753.10804211
  PAW double counting   =     37764.20636152   -39486.54672073
  entropy T*S    EENTRO =         0.00000000
  eigenvalues    EBANDS =        -2.98020826
  atomic energy  EATOM  =     36403.75672706
  Solvation  Ediel_sol  =         0.00000000
  ---------------------------------------------------
  free energy    TOTEN  =      -146.28465238 eV

  energy without entropy =     -146.28465238  energy(sigma->0) =     -146.28465238
  exchange ACFDT corr.  =         0.00000000  see jH, gK, PRB 81, 115126


--------------------------------------------------------------------------------------------------------




--------------------------------------- Iteration      1(  12)  ---------------------------------------


    POTLOK:  cpu time      0.1021: real time      0.1153
    SETDIJ:  cpu time      0.9843: real time      0.9868
     EDDAV:  cpu time    443.8241: real time    444.9995
 BZINTS: Fermi energy:    5.825930;  344.000000 electrons
         Band energy:-0.267571E+01;  BLOECHL correction:    0.000000
       DOS:  cpu time      0.0024: real time      0.0025
    CHARGE:  cpu time      0.1321: real time      0.1325
    MIXING:  cpu time      0.0005: real time      0.0005
    --------------------------------------------
      LOOP:  cpu time    445.0456: real time    446.2371

 eigenvalue-minimisations  :  4968
 total energy-change (2. order) : 0.1926821E-02  (-0.1626708E-03)
 number of electron     344.0000006 magnetization      -0.0000000
 augmentation part      150.5620562 magnetization      -0.0000013

 Free energy of the ion-electron system (eV)
  ---------------------------------------------------
  alpha Z        PSCENC =      1369.24157313
  Ewald energy   TEWEN  =    -23810.64517069
  -Hartree energ DENC   =    -13958.63964790
  -exchange      EXHF   =       824.05336953
  -V(xc)+E(xc)   XCENC  =       753.10137564
  PAW double counting   =     37872.67511909   -39597.15036106
  entropy T*S    EENTRO =         0.00000000
  eigenvalues    EBANDS =        -2.67571036
  atomic energy  EATOM  =     36403.75672706
  Solvation  Ediel_sol  =         0.00000000
  ---------------------------------------------------
  free energy    TOTEN  =      -146.28272556 eV

  energy without entropy =     -146.28272556  energy(sigma->0) =     -146.28272556
  exchange ACFDT corr.  =         0.00000000  see jH, gK, PRB 81, 115126


--------------------------------------------------------------------------------------------------------




--------------------------------------- Iteration      1(  13)  ---------------------------------------


    POTLOK:  cpu time      0.0971: real time      0.1076
    SETDIJ:  cpu time      0.9805: real time      0.9830
     EDDAV:  cpu time    444.0285: real time    449.2145
 BZINTS: Fermi energy:    5.821913;  344.000000 electrons
         Band energy:-0.273433E+01;  BLOECHL correction:    0.000000
       DOS:  cpu time      0.0097: real time      0.0343
    CHARGE:  cpu time      0.1398: real time      0.4250
    MIXING:  cpu time      0.0019: real time      0.0019
    --------------------------------------------
      LOOP:  cpu time    445.2579: real time    450.7667

 eigenvalue-minimisations  :  4392
 total energy-change (2. order) : 0.6441061E-03  (-0.7084390E-04)
 number of electron     344.0000006 magnetization       0.0000000
 augmentation part      150.5551376 magnetization       0.0000047

 Free energy of the ion-electron system (eV)
  ---------------------------------------------------
  alpha Z        PSCENC =      1369.24157313
  Ewald energy   TEWEN  =    -23810.64517069
  -Hartree energ DENC   =    -13957.38180954
  -exchange      EXHF   =       824.04409030
  -V(xc)+E(xc)   XCENC  =       753.08833323
  PAW double counting   =     37934.23171340   -39659.88320946
  entropy T*S    EENTRO =         0.00000000
  eigenvalues    EBANDS =        -2.73432887
  atomic energy  EATOM  =     36403.75672706
  Solvation  Ediel_sol  =         0.00000000
  ---------------------------------------------------
  free energy    TOTEN  =      -146.28208145 eV

  energy without entropy =     -146.28208145  energy(sigma->0) =     -146.28208145
  exchange ACFDT corr.  =         0.00000000  see jH, gK, PRB 81, 115126


--------------------------------------------------------------------------------------------------------




--------------------------------------- Iteration      1(  14)  ---------------------------------------


    POTLOK:  cpu time      0.1530: real time      0.2204
    SETDIJ:  cpu time      0.9752: real time      0.9783
     EDDAV:  cpu time    444.9316: real time    446.0832
 BZINTS: Fermi energy:    5.819218;  344.000000 electrons
         Band energy:-0.299438E+01;  BLOECHL correction:    0.000000
       DOS:  cpu time      0.0066: real time      0.0066
    CHARGE:  cpu time      0.1495: real time      0.1498
    MIXING:  cpu time      0.0014: real time      0.0014
    --------------------------------------------
      LOOP:  cpu time    446.2168: real time    447.4394

 eigenvalue-minimisations  :  5340
 total energy-change (2. order) : 0.1975040E-03  (-0.1884331E-04)
 number of electron     344.0000006 magnetization      -0.0000000
 augmentation part      150.5564223 magnetization       0.0000027

 Free energy of the ion-electron system (eV)
  ---------------------------------------------------
  alpha Z        PSCENC =      1369.24157313
  Ewald energy   TEWEN  =    -23810.64517069
  -Hartree energ DENC   =    -13956.46800262
  -exchange      EXHF   =       824.03469857
  -V(xc)+E(xc)   XCENC  =       753.07344735
  PAW double counting   =     37968.78338659   -39695.06416802
  entropy T*S    EENTRO =         0.00000000
  eigenvalues    EBANDS =        -2.99437533
  atomic energy  EATOM  =     36403.75672706
  Solvation  Ediel_sol  =         0.00000000
  ---------------------------------------------------
  free energy    TOTEN  =      -146.28188395 eV

  energy without entropy =     -146.28188395  energy(sigma->0) =     -146.28188395
  exchange ACFDT corr.  =         0.00000000  see jH, gK, PRB 81, 115126


--------------------------------------------------------------------------------------------------------




--------------------------------------- Iteration      1(  15)  ---------------------------------------


    POTLOK:  cpu time      0.1184: real time      0.1201
    SETDIJ:  cpu time      0.9875: real time      0.9900
     EDDAV:  cpu time    445.0957: real time    446.2398
 BZINTS: Fermi energy:    5.817180;  344.000000 electrons
         Band energy:-0.301611E+01;  BLOECHL correction:    0.000000
       DOS:  cpu time      0.0072: real time      0.0072
    CHARGE:  cpu time      0.1531: real time      0.1535
    MIXING:  cpu time      0.0017: real time      0.0017
    --------------------------------------------
      LOOP:  cpu time    446.3635: real time    447.5123

 eigenvalue-minimisations  :  4704
 total energy-change (2. order) : 0.4735163E-04  (-0.9635243E-05)
 number of electron     344.0000006 magnetization      -0.0000000
 augmentation part      150.5565373 magnetization       0.0000025

 Free energy of the ion-electron system (eV)
  ---------------------------------------------------
  alpha Z        PSCENC =      1369.24157313
  Ewald energy   TEWEN  =    -23810.64517069
  -Hartree energ DENC   =    -13956.04262845
  -exchange      EXHF   =       824.04414180
  -V(xc)+E(xc)   XCENC  =       753.06719420
  PAW double counting   =     37988.18395547   -39714.87152377
  entropy T*S    EENTRO =         0.00000000
  eigenvalues    EBANDS =        -3.01610535
  atomic energy  EATOM  =     36403.75672706
  Solvation  Ediel_sol  =         0.00000000
  ---------------------------------------------------
  free energy    TOTEN  =      -146.28183660 eV

  energy without entropy =     -146.28183660  energy(sigma->0) =     -146.28183660
  exchange ACFDT corr.  =         0.00000000  see jH, gK, PRB 81, 115126


--------------------------------------------------------------------------------------------------------




--------------------------------------- Iteration      1(  16)  ---------------------------------------


    POTLOK:  cpu time      0.1576: real time      0.1592
    SETDIJ:  cpu time      1.0329: real time      1.0355
     EDDAV:  cpu time    444.4988: real time    445.6469
 BZINTS: Fermi energy:    5.815181;  344.000000 electrons
         Band energy:-0.300347E+01;  BLOECHL correction:    0.000000
       DOS:  cpu time      0.0024: real time      0.0025
    --------------------------------------------
      LOOP:  cpu time    445.6917: real time    446.8441

 eigenvalue-minimisations  :  2928
 total energy-change (2. order) : 0.9153016E-05  (-0.2840292E-05)
 number of electron     344.0000006 magnetization      -0.0000000
 augmentation part      150.5565373 magnetization       0.0000025

 Free energy of the ion-electron system (eV)
  ---------------------------------------------------
  alpha Z        PSCENC =      1369.24157313
  Ewald energy   TEWEN  =    -23810.64517069
  -Hartree energ DENC   =    -13955.80985155
  -exchange      EXHF   =       824.04588826
  -V(xc)+E(xc)   XCENC  =       753.06382043
  PAW double counting   =     37999.48446507   -39726.41580668
  entropy T*S    EENTRO =         0.00000000
  eigenvalues    EBANDS =        -3.00347246
  atomic energy  EATOM  =     36403.75672706
  Solvation  Ediel_sol  =         0.00000000
  ---------------------------------------------------
  free energy    TOTEN  =      -146.28182745 eV

  energy without entropy =     -146.28182745  energy(sigma->0) =     -146.28182745
  exchange ACFDT corr.  =         0.00000000  see jH, gK, PRB 81, 115126


--------------------------------------------------------------------------------------------------------




 average (electrostatic) potential at core
  the test charge radii are     1.1488  0.9430  1.0808
  (the norm of the test charge is              1.0000)
       1 -77.6304       2 -77.6303       3 -77.6304       4 -77.6304       5 -56.7758
       6 -56.7758       7 -56.7758       8 -56.7758       9 -56.9532      10 -56.9532
      11 -56.9532      12 -56.9532      13 -56.9531      14 -56.9532      15 -56.9532
      16 -56.9532      17 -57.4908      18 -57.4908      19 -57.4908      20 -57.4908
      21 -57.4908      22 -57.4908      23 -57.4908      24 -57.4908      25 -48.4057
      26 -48.4057      27 -48.4057      28 -48.4057      29 -49.2123      30 -49.2123
      31 -49.2124      32 -49.2123      33 -49.2123      34 -49.2123      35 -49.2123
      36 -49.2124
 
 
 
 E-fermi :   5.8152     XC(G=0):  -8.9643     alpha+bet :-11.4092

 Fermi energy:         5.8151811265

 spin component 1

 k-point     1 :       0.0000    0.0000    0.0000
  band No.  band energies     occupation 
      1     -10.2288      1.00000
      2      -9.9389      1.00000
      3      -9.8751      1.00000
      4      -9.8751      1.00000
      5      -9.6138      1.00000
      6      -9.6138      1.00000
      7      -9.5865      1.00000
      8      -9.3399      1.00000
      9      -9.1284      1.00000
     10      -8.9810      1.00000
     11      -8.9004      1.00000
     12      -8.9004      1.00000
     13      -7.1828      1.00000
     14      -7.1822      1.00000
     15      -7.1487      1.00000
     16      -7.1487      1.00000
     17      -7.0502      1.00000
     18      -7.0498      1.00000
     19      -7.0146      1.00000
     20      -7.0146      1.00000
     21      -6.9841      1.00000
     22      -6.9841      1.00000
     23      -6.9825      1.00000
     24      -6.9735      1.00000
     25      -6.9735      1.00000
     26      -6.9672      1.00000
     27      -6.9672      1.00000
     28      -6.9667      1.00000
     29      -6.9595      1.00000
     30      -6.9595      1.00000
     31      -6.9263      1.00000
     32      -6.9263      1.00000
     33      -2.6786      1.00000
     34      -2.0752      1.00000
     35      -2.0620      1.00000
     36      -2.0620      1.00000
     37      -1.7660      1.00000
     38      -1.7048      1.00000
     39      -1.4820      1.00000
     40      -1.4820      1.00000
     41      -1.4804      1.00000
     42      -1.3959      1.00000
     43      -0.9581      1.00000
     44      -0.9581      1.00000
     45      -0.1353      1.00000
     46      -0.1340      1.00000
     47      -0.1235      1.00000
     48      -0.1235      1.00000
     49      -0.1231      1.00000
     50      -0.0960      1.00000
     51      -0.0558      1.00000
     52      -0.0401      1.00000
     53       0.3095      1.00000
     54       0.3095      1.00000
     55       0.3502      1.00000
     56       0.3502      1.00000
     57       0.3689      1.00000
[...]
 -0.000  -0.000  -0.000   0.000   0.000   0.000   0.000   0.000  -0.000  -0.000   0.000   0.000  -0.000  -0.000  -0.000   0.000
  0.000  -0.000  -0.000   0.000   0.000  -0.000   0.000   0.000  -0.000  -0.000   0.000  -0.000  -0.000  -0.000  -0.000  -0.000
  0.000   0.000   0.000  -0.000  -0.000  -0.000  -0.000  -0.000   0.000   0.000   0.000   0.000   0.000  -0.000  -0.000  -0.000
  0.000  -0.000   0.000  -0.000  -0.000  -0.000  -0.000  -0.000   0.000  -0.000   0.000   0.000   0.000   0.000  -0.000  -0.000
  0.000   0.000   0.000   0.000   0.000  -0.000   0.000  -0.000  -0.000  -0.000   0.000   0.000  -0.000  -0.000  -0.000  -0.000
 -0.000  -0.000  -0.000   0.000   0.000   0.000   0.000   0.000  -0.000  -0.000  -0.000   0.000  -0.000  -0.000  -0.000   0.000
 -0.000   0.000  -0.000   0.000  -0.000  -0.000  -0.000   0.000  -0.000  -0.000  -0.000  -0.000  -0.000  -0.000  -0.000   0.000
 -0.000  -0.000  -0.000  -0.000  -0.000  -0.000   0.000  -0.000   0.000  -0.000  -0.000  -0.000  -0.000   0.000   0.000   0.000
  0.000   0.000   0.000  -0.000   0.000   0.000  -0.000   0.000   0.000  -0.000  -0.000  -0.000   0.000  -0.000   0.000  -0.000
  0.000  -0.000   0.000   0.000   0.000   0.000   0.000  -0.000  -0.000  -0.000   0.000   0.000   0.000  -0.000  -0.000  -0.000


------------------------ aborting loop because EDIFF is reached ----------------------------------------





 total charge

# of ion       s       p       d       tot
------------------------------------------
    1        1.302   0.175   9.690  11.168
    2        1.302   0.175   9.690  11.168
    3        1.302   0.175   9.690  11.168
    4        1.302   0.175   9.690  11.168
    5        0.343   0.338   9.370  10.051
    6        0.343   0.338   9.370  10.051
    7        0.343   0.338   9.370  10.051
    8        0.343   0.338   9.370  10.051
    9        0.338   0.330   9.370  10.038
   10        0.338   0.330   9.370  10.038
   11        0.338   0.330   9.370  10.038
   12        0.338   0.330   9.370  10.038
   13        0.338   0.330   9.370  10.038
   14        0.338   0.330   9.370  10.038
   15        0.338   0.330   9.370  10.038
   16        0.338   0.330   9.370  10.038
   17        0.364   0.350   9.340  10.053
   18        0.364   0.350   9.340  10.053
   19        0.364   0.350   9.340  10.053
   20        0.364   0.350   9.340  10.053
   21        0.364   0.350   9.340  10.053
   22        0.364   0.350   9.340  10.053
   23        0.364   0.350   9.340  10.053
   24        0.364   0.350   9.340  10.053
   25        1.456   2.437   0.052   3.946
   26        1.456   2.437   0.052   3.946
   27        1.456   2.437   0.052   3.946
   28        1.456   2.437   0.052   3.946
   29        1.465   2.372   0.061   3.899
   30        1.465   2.372   0.061   3.899
   31        1.465   2.372   0.061   3.899
   32        1.465   2.372   0.061   3.899
   33        1.465   2.372   0.061   3.899
   34        1.465   2.372   0.061   3.899
   35        1.465   2.372   0.061   3.899
   36        1.465   2.372   0.061   3.899
--------------------------------------------------
tot         29.741  36.218 226.615 292.575



 magnetization (x)

# of ion       s       p       d       tot
------------------------------------------
    1       -0.000   0.000   0.000  -0.000
    2       -0.000   0.000   0.000  -0.000
    3       -0.000   0.000   0.000  -0.000
    4       -0.000   0.000   0.000  -0.000
    5        0.000  -0.000  -0.000  -0.000
    6        0.000  -0.000  -0.000  -0.000
    7        0.000  -0.000  -0.000  -0.000
    8        0.000  -0.000  -0.000  -0.000
    9       -0.000  -0.000  -0.000  -0.000
   10       -0.000  -0.000  -0.000  -0.000
   11       -0.000  -0.000  -0.000  -0.000
   12       -0.000  -0.000  -0.000  -0.000
   13       -0.000  -0.000  -0.000  -0.000
   14       -0.000  -0.000  -0.000  -0.000
   15       -0.000  -0.000  -0.000  -0.000
   16       -0.000  -0.000  -0.000  -0.000
   17       -0.000  -0.000  -0.000  -0.000
   18       -0.000  -0.000  -0.000  -0.000
   19       -0.000  -0.000  -0.000  -0.000
   20       -0.000  -0.000  -0.000  -0.000
   21       -0.000  -0.000  -0.000  -0.000
   22       -0.000  -0.000  -0.000  -0.000
   23       -0.000  -0.000  -0.000  -0.000
   24       -0.000  -0.000  -0.000  -0.000
   25        0.000   0.000   0.000   0.000
   26        0.000   0.000   0.000   0.000
   27        0.000   0.000   0.000   0.000
   28        0.000   0.000   0.000   0.000
   29        0.000   0.000   0.000   0.000
   30        0.000   0.000   0.000   0.000
   31        0.000   0.000   0.000   0.000
   32        0.000   0.000   0.000   0.000
   33        0.000   0.000   0.000   0.000
   34        0.000   0.000   0.000   0.000
   35        0.000   0.000   0.000   0.000
   36        0.000   0.000   0.000   0.000
--------------------------------------------------
tot         -0.000   0.000  -0.000  -0.000
 
    CHARGE:  cpu time      0.1255: real time      0.1259
    FORLOC:  cpu time      0.0040: real time      0.0043
    FORHF :  cpu time    424.7953: real time    425.9050
    FORNL :  cpu time      1.0530: real time      1.0558
    FORCOR:  cpu time      1.0999: real time      1.1029
    FORHAR:  cpu time      0.0123: real time      0.0124
    MIXING:  cpu time      0.0009: real time      0.0009
    OFIELD:  cpu time      0.0015: real time      0.0018

 VOLUME and BASIS-vectors are now :
 -----------------------------------------------------------------------------
  energy-cutoff  :      680.00
  volume of cell :      622.22
      direct lattice vectors                 reciprocal lattice vectors
    12.860820545  0.000000000  0.000000000     0.077755536  0.000000000  0.000000000
    -0.000000000 12.860820545  0.000000000     0.000000000  0.077755536  0.000000000
     0.000000000  0.000000000  3.761894819    -0.000000000 -0.000000000  0.265823487

  length of vectors
    12.860820545 12.860820545  3.761894819     0.077755536  0.077755536  0.265823487


 FORCES acting on ions
    electron-ion (+dipol)            ewald-force                    non-local-force                 convergence-correction
 -----------------------------------------------------------------------------------------------
   -.139E+03 0.139E+03 -.343E-04   0.138E+03 -.138E+03 0.418E-15   0.908E+00 -.908E+00 -.191E-21   0.230E-02 -.259E-02 0.750E-04
   0.139E+03 -.139E+03 -.199E-04   -.138E+03 0.138E+03 0.691E-14   -.908E+00 0.908E+00 0.337E-21   -.204E-02 0.178E-02 0.168E-04
   0.139E+03 0.139E+03 0.460E-05   -.138E+03 -.138E+03 0.181E-13   -.908E+00 -.908E+00 -.113E-15   -.243E-02 -.185E-02 0.316E-05
   -.139E+03 -.139E+03 -.107E-04   0.138E+03 0.138E+03 -.203E-13   0.908E+00 0.908E+00 0.113E-15   0.187E-02 0.252E-02 -.143E-05
   -.639E+02 -.639E+02 -.143E-05   0.660E+02 0.660E+02 -.124E-12   -.209E+01 -.209E+01 -.260E-15   0.780E-02 0.763E-02 0.547E-04
   0.639E+02 0.639E+02 0.756E-05   -.660E+02 -.660E+02 0.984E-13   0.209E+01 0.209E+01 0.260E-15   -.742E-02 -.768E-02 -.517E-04
   0.639E+02 -.639E+02 -.295E-04   -.660E+02 0.660E+02 0.693E-14   0.209E+01 -.209E+01 -.139E-21   -.773E-02 0.756E-02 0.535E-04
   -.639E+02 0.639E+02 -.153E-04   0.660E+02 -.660E+02 0.279E-13   -.209E+01 0.209E+01 -.464E-21   0.740E-02 -.760E-02 0.266E-04
   -.433E+02 -.411E+03 0.315E-04   0.436E+02 0.414E+03 0.153E-13   -.333E+00 -.229E+01 -.163E-15   0.116E-02 0.593E-02 -.548E-04
   0.433E+02 0.411E+03 0.130E-04   -.436E+02 -.414E+03 -.102E-13   0.333E+00 0.229E+01 0.163E-15   -.146E-02 -.636E-02 -.103E-04
   0.433E+02 -.411E+03 -.328E-04   -.436E+02 0.414E+03 -.200E-13   0.333E+00 -.229E+01 -.122E-15   -.857E-03 0.648E-02 0.588E-05
   -.433E+02 0.411E+03 -.277E-04   0.436E+02 -.414E+03 0.121E-13   -.333E+00 0.229E+01 0.122E-15   0.166E-02 -.589E-02 0.124E-03
   -.411E+03 -.433E+02 -.210E-04   0.414E+03 0.436E+02 0.339E-13   -.229E+01 -.333E+00 -.163E-15   0.620E-02 0.153E-02 0.388E-04
   0.411E+03 0.433E+02 -.211E-04   -.414E+03 -.436E+02 -.627E-13   0.229E+01 0.333E+00 0.163E-15   -.626E-02 -.113E-02 0.641E-04
   -.411E+03 0.433E+02 0.644E-05   0.414E+03 -.436E+02 -.540E-13   -.229E+01 0.333E+00 -.122E-15   0.615E-02 -.134E-02 -.159E-04
   0.411E+03 -.433E+02 0.472E-05   -.414E+03 0.436E+02 0.423E-13   0.229E+01 -.333E+00 0.122E-15   -.615E-02 0.916E-03 0.120E-05
   -.439E+03 -.521E+02 0.589E-04   0.438E+03 0.516E+02 0.360E-13   0.127E+01 0.472E+00 0.108E-15   0.115E-02 0.450E-03 -.253E-04
   0.439E+03 0.521E+02 -.169E-04   -.438E+03 -.516E+02 0.433E-13   -.127E+01 -.472E+00 -.108E-15   -.151E-02 -.106E-02 -.579E-04
   0.439E+03 -.521E+02 0.133E-04   -.438E+03 0.516E+02 0.306E-13   -.127E+01 0.472E+00 -.495E-16   -.104E-02 0.112E-02 -.533E-04
   -.439E+03 0.521E+02 -.396E-04   0.438E+03 -.516E+02 -.230E-13   0.127E+01 -.472E+00 0.495E-16   0.176E-02 -.412E-03 0.879E-04
   -.521E+02 -.439E+03 0.321E-04   0.516E+02 0.438E+03 0.241E-13   0.472E+00 0.127E+01 0.108E-15   0.123E-02 0.174E-02 -.249E-04
   0.521E+02 0.439E+03 0.404E-04   -.516E+02 -.438E+03 0.874E-14   -.472E+00 -.127E+01 -.108E-15   -.242E-03 -.100E-02 -.139E-03
   -.521E+02 0.439E+03 -.116E-04   0.516E+02 -.438E+03 0.236E-13   0.472E+00 -.127E+01 -.495E-16   0.541E-03 -.134E-02 -.120E-04
   0.521E+02 -.439E+03 -.405E-04   -.516E+02 0.438E+03 -.791E-13   -.472E+00 0.127E+01 0.495E-16   -.915E-03 0.109E-02 0.110E-03
   0.217E+03 -.217E+03 0.158E-04   -.219E+03 0.219E+03 -.548E-14   0.179E+01 -.179E+01 0.116E-21   -.235E-02 0.229E-02 -.220E-04
   -.217E+03 0.217E+03 0.626E-06   0.219E+03 -.219E+03 -.464E-14   -.179E+01 0.179E+01 -.715E-22   0.205E-02 -.211E-02 -.538E-05
   -.217E+03 -.217E+03 0.203E-04   0.219E+03 0.219E+03 -.123E-13   -.179E+01 -.179E+01 -.223E-15   0.239E-02 0.203E-02 -.239E-04
   0.217E+03 0.217E+03 0.827E-05   -.219E+03 -.219E+03 0.557E-14   0.179E+01 0.179E+01 0.223E-15   -.208E-02 -.241E-02 -.139E-04
   0.334E+03 -.830E+02 0.173E-04   -.337E+03 0.833E+02 0.423E-13   0.334E+01 -.485E+00 0.178E-15   -.522E-02 0.115E-02 -.258E-04
   -.334E+03 0.830E+02 0.110E-04   0.337E+03 -.833E+02 -.301E-13   -.334E+01 0.485E+00 -.178E-15   0.532E-02 -.747E-03 -.632E-05
   -.334E+03 -.830E+02 -.135E-04   0.337E+03 0.833E+02 -.479E-13   -.334E+01 -.485E+00 -.238E-15   0.517E-02 0.789E-03 0.630E-05
   0.334E+03 0.830E+02 -.147E-04   -.337E+03 -.833E+02 0.449E-13   0.334E+01 0.485E+00 0.238E-15   -.537E-02 -.101E-02 0.205E-04
   -.830E+02 0.334E+03 -.426E-05   0.833E+02 -.337E+03 0.603E-13   -.485E+00 0.334E+01 0.178E-15   0.888E-03 -.528E-02 0.393E-07
   0.830E+02 -.334E+03 0.558E-05   -.833E+02 0.337E+03 -.419E-13   0.485E+00 -.334E+01 -.178E-15   -.986E-03 0.516E-02 -.656E-05
   -.830E+02 -.334E+03 0.974E-05   0.833E+02 0.337E+03 -.357E-13   -.485E+00 -.334E+01 -.238E-15   0.103E-02 0.536E-02 -.463E-05
   0.830E+02 0.334E+03 0.118E-04   -.833E+02 -.337E+03 0.350E-13   0.485E+00 0.334E+01 0.238E-15   -.862E-03 -.520E-02 0.656E-06
 -----------------------------------------------------------------------------------------------
   -.517E-03 -.321E-03 -.418E-04   -.185E-12 0.171E-12 0.452E-13   0.444E-15 -.444E-15 0.410E-20   0.115E-02 0.523E-03 0.135E-03
 
 
 POSITION                                       TOTAL-FORCE (eV/Angst)
 -----------------------------------------------------------------------------------
      5.10011      7.76071      1.88095         0.073438     -0.073438      0.000000
      7.76071      5.10011      1.88095        -0.073438      0.073438      0.000000
      1.33030      1.33030      0.00000        -0.073438     -0.073438     -0.000000
     11.53052     11.53052      0.00000         0.073438      0.073438      0.000000
      3.99369      3.99369      1.88095         0.006170      0.006170      0.000000
      8.86714      8.86714      1.88095        -0.006170     -0.006170     -0.000000
      2.43673     10.42410      0.00000        -0.006170      0.006170     -0.000000
     10.42410      2.43673      0.00000         0.006170     -0.006170      0.000000
      1.09516      9.10523      1.88095         0.007224      0.109933      0.000000
     11.76566      3.75559      1.88095        -0.007224     -0.109933     -0.000000
      5.33525      2.67482      0.00000        -0.007224      0.109933      0.000000
      7.52557     10.18600      0.00000         0.007224     -0.109933     -0.000000
      9.10523      1.09516      1.88095         0.109933      0.007224      0.000000
      3.75559     11.76566      1.88095        -0.109933     -0.007224     -0.000000
      2.67482      5.33525      0.00000         0.109933     -0.007224      0.000000
     10.18600      7.52557      0.00000        -0.109933      0.007224     -0.000000
      1.27883      6.56615      1.88095         0.407931     -0.009951      0.000000
     11.58200      6.29467      1.88095        -0.407931      0.009951     -0.000000
      5.15158      0.13574      0.00000        -0.407931     -0.009951     -0.000000
      7.70924     12.72508      0.00000         0.407931      0.009951      0.000000
      6.56615      1.27883      1.88095        -0.009951      0.407931      0.000000
      6.29467     11.58200      1.88095         0.009951     -0.407931     -0.000000
      0.13574      5.15158      0.00000        -0.009951     -0.407931     -0.000000
     12.72508      7.70924      0.00000         0.009951      0.407931      0.000000
      1.36815     11.49267      1.88095        -0.227545      0.227545      0.000000
     11.49267      1.36815      1.88095         0.227545     -0.227545      0.000000
      5.06226      5.06226      0.00000         0.227545      0.227545      0.000000
      7.79856      7.79856      0.00000        -0.227545     -0.227545     -0.000000
      4.07099      1.45691      1.88095         0.335199     -0.273225      0.000000
      8.78983     11.40391      1.88095        -0.335199      0.273225     -0.000000
      2.35942      7.88732      0.00000        -0.335199     -0.273225     -0.000000
     10.50140      4.97350      0.00000         0.335199      0.273225      0.000000
      1.45691      4.07099      1.88095        -0.273225      0.335199      0.000000
     11.40391      8.78983      1.88095         0.273225     -0.335199     -0.000000
      7.88732      2.35942      0.00000        -0.273225     -0.335199     -0.000000
      4.97350     10.50140      0.00000         0.273225      0.335199      0.000000
 -----------------------------------------------------------------------------------
    total drift:                                0.000628      0.000201      0.000093


--------------------------------------------------------------------------------------------------------



  FREE ENERGIE OF THE ION-ELECTRON SYSTEM (eV)
  ---------------------------------------------------
  free  energy   TOTEN  =      -146.28182745 eV

  energy  without entropy=     -146.28182745  energy(sigma->0) =     -146.28182745
 


--------------------------------------------------------------------------------------------------------


    POTLOK:  cpu time      1.1204: real time      1.1232


--------------------------------------------------------------------------------------------------------


     LOOP+:  cpu time   5780.0761: real time   5802.0453
    4ORBIT:  cpu time      0.0000: real time      0.0000



 total charge

# of ion       s       p       d       tot
------------------------------------------
    1        1.302   0.175   9.690  11.168
    2        1.302   0.175   9.690  11.168
    3        1.302   0.175   9.690  11.168
    4        1.302   0.175   9.690  11.168
    5        0.343   0.338   9.370  10.051
    6        0.343   0.338   9.370  10.051
    7        0.343   0.338   9.370  10.051
    8        0.343   0.338   9.370  10.051
    9        0.338   0.330   9.370  10.038
   10        0.338   0.330   9.370  10.038
   11        0.338   0.330   9.370  10.038
   12        0.338   0.330   9.370  10.038
   13        0.338   0.330   9.370  10.038
   14        0.338   0.330   9.370  10.038
   15        0.338   0.330   9.370  10.038
   16        0.338   0.330   9.370  10.038
   17        0.364   0.350   9.340  10.053
   18        0.364   0.350   9.340  10.053
   19        0.364   0.350   9.340  10.053
   20        0.364   0.350   9.340  10.053
   21        0.364   0.350   9.340  10.053
   22        0.364   0.350   9.340  10.053
   23        0.364   0.350   9.340  10.053
   24        0.364   0.350   9.340  10.053
   25        1.456   2.437   0.052   3.946
   26        1.456   2.437   0.052   3.946
   27        1.456   2.437   0.052   3.946
   28        1.456   2.437   0.052   3.946
   29        1.465   2.372   0.061   3.899
   30        1.465   2.372   0.061   3.899
   31        1.465   2.372   0.061   3.899
   32        1.465   2.372   0.061   3.899
   33        1.465   2.372   0.061   3.899
   34        1.465   2.372   0.061   3.899
   35        1.465   2.372   0.061   3.899
   36        1.465   2.372   0.061   3.899
--------------------------------------------------
tot         29.741  36.218 226.615 292.575



 magnetization (x)

# of ion       s       p       d       tot
------------------------------------------
    1       -0.000   0.000   0.000  -0.000
    2       -0.000   0.000   0.000  -0.000
    3       -0.000   0.000   0.000  -0.000
    4       -0.000   0.000   0.000  -0.000
    5        0.000  -0.000  -0.000  -0.000
    6        0.000  -0.000  -0.000  -0.000
    7        0.000  -0.000  -0.000  -0.000
    8        0.000  -0.000  -0.000  -0.000
    9       -0.000  -0.000  -0.000  -0.000
   10       -0.000  -0.000  -0.000  -0.000
   11       -0.000  -0.000  -0.000  -0.000
   12       -0.000  -0.000  -0.000  -0.000
   13       -0.000  -0.000  -0.000  -0.000
   14       -0.000  -0.000  -0.000  -0.000
   15       -0.000  -0.000  -0.000  -0.000
   16       -0.000  -0.000  -0.000  -0.000
   17       -0.000  -0.000  -0.000  -0.000
   18       -0.000  -0.000  -0.000  -0.000
   19       -0.000  -0.000  -0.000  -0.000
   20       -0.000  -0.000  -0.000  -0.000
   21       -0.000  -0.000  -0.000  -0.000
   22       -0.000  -0.000  -0.000  -0.000
   23       -0.000  -0.000  -0.000  -0.000
   24       -0.000  -0.000  -0.000  -0.000
   25        0.000   0.000   0.000   0.000
   26        0.000   0.000   0.000   0.000
   27        0.000   0.000   0.000   0.000
   28        0.000   0.000   0.000   0.000
   29        0.000   0.000   0.000   0.000
   30        0.000   0.000   0.000   0.000
   31        0.000   0.000   0.000   0.000
   32        0.000   0.000   0.000   0.000
   33        0.000   0.000   0.000   0.000
   34        0.000   0.000   0.000   0.000
   35        0.000   0.000   0.000   0.000
   36        0.000   0.000   0.000   0.000
--------------------------------------------------
tot         -0.000   0.000  -0.000  -0.000
 
 BZINTS: Fermi energy:    5.815181;  344.000000 electrons
         Band energy:-0.300347E+01;  BLOECHL correction:    0.000000

 total amount of memory used by VASP MPI-rank0   115492. kBytes
=======================================================================

   base      :      30000. kBytes
   nonl-proj :       3055. kBytes
   fftplans  :       2327. kBytes
   grid      :       4329. kBytes
   one-center:         62. kBytes
   HF        :        129. kBytes
   nonlr-proj:      22659. kBytes
   wavefun   :       6101. kBytes
   fock_wrk  :      46830. kBytes
 
  
  
 General timing and accounting informations for this job:
 ========================================================
  
                  Total CPU time used (sec):     5820.364
                            User time (sec):     5147.034
                          System time (sec):      673.331
                         Elapsed time (sec):     5845.386
  
                   Maximum memory used (kb):      562460.
                   Average memory used (kb):          N/A
  
                          Minor page faults:      1449716
                          Major page faults:            0
                 Voluntary context switches:        38547
