 vasp.6.4.2 20Jul23 (build Mar 15 2024 16:31:38) complex                        
  
 executed on             LinuxIFC date 2025.03.26  17:54:31
 running  120 mpi-ranks, on    3 nodes
 distrk:  each k-point on  120 cores,    1 groups
 distr:  one band on NCORE=  10 cores,   12 groups


--------------------------------------------------------------------------------------------------------


 INCAR:
   ALGO = Normal
   EDIFF = 1e-05
   ENAUG = 1360
   ENCUT = 680
   GGA = Pe
   HFSCREEN = 0.2
   ISMEAR = 0
   ISPIN = 2
   LAECHG = True
   LASPH = True
   LCHARG = True
   LDAU = False
   LELF = False
   LHFCALC = True
   LMAXMIX = 4
   LMIXTAU = True
   LORBIT = 11
   LREAL = False
   LVTOT = True
   LWAVE = True
   MAGMOM = 8*0.6
   NCORE = 10
   NELM = 200
   NSW = 0
   PREC = Accurate
   PRECFOCK = Fast
   SIGMA = 0.01

 POTCAR:    PAW_PBE In_d 06Sep2000                
 POTCAR:    PAW_PBE Cu 22Jun2005                  
 POTCAR:    PAW_PBE Se 06Sep2000                  
 WARNING: For LVTOT=.TRUE., VASP.5.x writes the TOTAL local potential to the
     file LOCPOT. If you want only the Hartree contributions, use LVHAR=.TRUE.
     instead. 

 POTCAR:    PAW_PBE In_d 06Sep2000                
   VRHFIN =In: s2p1                                                                                 
   LEXCH  = PE                                                                                      
   EATOM  =  1576.8302 eV,  115.8937 Ry                                                             
                                                                                                    
   TITEL  = PAW_PBE In_d 06Sep2000                                                                  
   LULTRA =        F    use ultrasoft PP ?                                                          
   IUNSCR =        1    unscreen: 0-lin 1-nonlin 2-no                                               
   RPACOR =    2.200    partial core radius                                                         
   POMASS =  114.820; ZVAL   =   13.000    mass and valenz                                          
   RCORE  =    2.500    outmost cutoff radius                                                       
   RWIGS  =    3.170; RWIGS  =    1.677    wigner-seitz radius (au A)                               
   ENMAX  =  239.211; ENMIN  =  179.409 eV                                                          
   ICORE  =        3    local potential                                                             
   LCOR   =        T    correct aug charges                                                         
   LPAW   =        T    paw PP                                                                      
   EAUG   =  449.704                                                                                
   DEXC   =    0.000                                                                                
   RMAX   =    2.552    core radius for proj-oper                                                   
   RAUG   =    1.300    factor for augmentation sphere                                              
   RDEP   =    2.630    radius for radial grids                                                     
   RDEPT  =    2.033    core radius for aug-charge                                                  
                                                                                                    
   Atomic configuration                                                                             
   12 entries                                                                                       
     n  l   j            E        occ.                                                              
     1  0  0.50    -27747.9169   2.0000                                                             
     2  0  0.50     -4154.4438   2.0000                                                             
     2  1  1.50     -3728.4305   6.0000                                                             
     3  0  0.50      -788.3680   2.0000                                                             
     3  1  1.50      -648.9215   6.0000                                                             
     3  2  2.50      -432.5893  10.0000                                                             
     4  0  0.50      -119.6363   2.0000                                                             
     4  1  1.50       -78.1086   6.0000                                                             
     4  2  2.50       -18.6227  10.0000                                                             
     5  0  0.50        -8.2107   2.0000                                                             
     5  1  0.50        -2.5185   1.0000                                                             
     4  3  2.50        -2.7212   0.0000                                                             
   Description                                                                                      
     l       E           TYP  RCUT    TYP  RCUT                                                     
     2    -18.6226981     23  2.500                                                                 
     2     -1.3605826     23  2.500                                                                 
     0     -8.2107305     23  2.500                                                                 
     0     -6.1485975     23  2.500                                                                 
     1     -2.5184867     23  2.500                                                                 
     1      3.2427302     23  2.500                                                                 
     3     -1.3605826      7  2.500                                                                 
  local pseudopotential read in
  partial core-charges read in
  partial kinetic energy density read in
  atomic valenz-charges read in
  non local Contribution for L=           2  read in
    real space projection operators read in
  non local Contribution for L=           2  read in
    real space projection operators read in
  non local Contribution for L=           0  read in
    real space projection operators read in
  non local Contribution for L=           0  read in
    real space projection operators read in
  non local Contribution for L=           1  read in
    real space projection operators read in
  non local Contribution for L=           1  read in
    real space projection operators read in
    PAW grid and wavefunctions read in
 
   number of l-projection  operators is LMAX  =           6
   number of lm-projection operators is LMMAX =          18
 
 POTCAR:    PAW_PBE Cu 22Jun2005                  
   VRHFIN =Cu: d10 p1                                                                               
   LEXCH  = PE                                                                                      
   EATOM  =  1390.9808 eV,  102.2342 Ry                                                             
                                                                                                    
   TITEL  = PAW_PBE Cu 22Jun2005                                                                    
   LULTRA =        F    use ultrasoft PP ?                                                          
   IUNSCR =        1    unscreen: 0-lin 1-nonlin 2-no                                               
   RPACOR =    2.000    partial core radius                                                         
   POMASS =   63.546; ZVAL   =   11.000    mass and valenz                                          
   RCORE  =    2.300    outmost cutoff radius                                                       
   RWIGS  =    2.200; RWIGS  =    1.164    wigner-seitz radius (au A)                               
   ENMAX  =  295.446; ENMIN  =  221.585 eV                                                          
   ICORE  =        3    local potential                                                             
   LCOR   =        T    correct aug charges                                                         
   LPAW   =        T    paw PP                                                                      
   EAUG   =  586.980                                                                                
   DEXC   =    0.000                                                                                
   RMAX   =    2.344    core radius for proj-oper                                                   
   RAUG   =    1.300    factor for augmentation sphere                                              
   RDEP   =    2.302    radius for radial grids                                                     
   RDEPT  =    1.771    core radius for aug-charge                                                  
                                                                                                    
   Atomic configuration                                                                             
    9 entries                                                                                       
     n  l   j            E        occ.                                                              
     1  0  0.50     -8850.2468   2.0000                                                             
     2  0  0.50     -1062.3498   2.0000                                                             
     2  1  1.50      -916.8226   6.0000                                                             
     3  0  0.50      -114.6929   2.0000                                                             
     3  1  1.50       -72.1325   6.0000                                                             
     3  2  2.50        -5.0394  10.0000                                                             
     4  0  0.50        -4.6097   1.0000                                                             
     4  1  0.50        -4.0817   0.0000                                                             
     4  3  2.50        -1.3606   0.0000                                                             
   Description                                                                                      
     l       E           TYP  RCUT    TYP  RCUT                                                     
     2     -5.0393973     23  2.200                                                                 
     2     10.8846608     23  2.200                                                                 
     0     -4.6097109     23  2.200                                                                 
     0      8.2520465     23  2.200                                                                 
     1     -2.7211652     23  2.200                                                                 
     1     21.7055443     23  2.200                                                                 
     3      2.7211652     23  2.300                                                                 
  local pseudopotential read in
  partial core-charges read in
  partial kinetic energy density read in
  atomic valenz-charges read in
  non local Contribution for L=           2  read in
    real space projection operators read in
  non local Contribution for L=           2  read in
    real space projection operators read in
  non local Contribution for L=           0  read in
    real space projection operators read in
  non local Contribution for L=           0  read in
    real space projection operators read in
  non local Contribution for L=           1  read in
    real space projection operators read in
  non local Contribution for L=           1  read in
    real space projection operators read in
    PAW grid and wavefunctions read in
 
   number of l-projection  operators is LMAX  =           6
   number of lm-projection operators is LMMAX =          18
 
 POTCAR:    PAW_PBE Se 06Sep2000                  
   VRHFIN =Se: s2p4                                                                                 
   LEXCH  = PE                                                                                      
   EATOM  =   257.1286 eV,   18.8984 Ry                                                             
                                                                                                    
   TITEL  = PAW_PBE Se 06Sep2000                                                                    
   LULTRA =        F    use ultrasoft PP ?                                                          
   IUNSCR =        1    unscreen: 0-lin 1-nonlin 2-no                                               
   RPACOR =    1.900    partial core radius                                                         
   POMASS =   78.960; ZVAL   =    6.000    mass and valenz                                          
   RCORE  =    2.100    outmost cutoff radius                                                       
   RWIGS  =    2.200; RWIGS  =    1.164    wigner-seitz radius (au A)                               
   ENMAX  =  211.555; ENMIN  =  158.666 eV                                                          
   ICORE  =        3    local potential                                                             
   LCOR   =        T    correct aug charges                                                         
   LPAW   =        T    paw PP                                                                      
   EAUG   =  446.842                                                                                
   DEXC   =    0.000                                                                                
   RMAX   =    2.147    core radius for proj-oper                                                   
   RAUG   =    1.300    factor for augmentation sphere                                              
   RDEP   =    2.177    radius for radial grids                                                     
   RDEPT  =    1.928    core radius for aug-charge                                                  
                                                                                                    
   Atomic configuration                                                                             
   10 entries                                                                                       
     n  l   j            E        occ.                                                              
     1  0  0.50    -12503.4787   2.0000                                                             
     2  0  0.50     -1606.9547   2.0000                                                             
     2  1  1.50     -1413.3140   6.0000                                                             
     3  0  0.50      -213.4885   2.0000                                                             
     3  1  1.50      -152.9538   6.0000                                                             
     3  2  2.50       -53.1221  10.0000                                                             
     4  0  0.50       -17.2865   2.0000                                                             
     4  1  0.50        -6.5110   4.0000                                                             
     4  2  2.50        -6.8029   0.0000                                                             
     4  3  2.50        -6.8029   0.0000                                                             
   Description                                                                                      
     l       E           TYP  RCUT    TYP  RCUT                                                     
     0    -17.2865377     23  2.100                                                                 
     0    -15.3094411     23  2.100                                                                 
     1     -6.5110275     23  2.100                                                                 
     1     -0.0695192     23  2.100                                                                 
     2     -6.8029130     23  2.100                                                                 
     3     -1.3605826      7  2.100                                                                 
  local pseudopotential read in
  partial core-charges read in
  partial kinetic energy density read in
  atomic valenz-charges read in
  non local Contribution for L=           0  read in
    real space projection operators read in
  non local Contribution for L=           0  read in
    real space projection operators read in
  non local Contribution for L=           1  read in
    real space projection operators read in
  non local Contribution for L=           1  read in
    real space projection operators read in
  non local Contribution for L=           2  read in
    real space projection operators read in
    PAW grid and wavefunctions read in
 
   number of l-projection  operators is LMAX  =           5
   number of lm-projection operators is LMMAX =          13
 
  PAW_PBE In_d 06Sep2000                :
 energy of atom  1       EATOM=-1576.8302
 kinetic energy error for atom=    0.0009 (will be added to EATOM!!)
  PAW_PBE Cu 22Jun2005                  :
 energy of atom  2       EATOM=-1390.9808
 kinetic energy error for atom=    0.0018 (will be added to EATOM!!)
  PAW_PBE Se 06Sep2000                  :
 energy of atom  3       EATOM= -257.1286
 kinetic energy error for atom=    0.0004 (will be added to EATOM!!)
 
 
 POSCAR: In2 Cu2 Se4
  positions in direct lattice
  No initial velocities read in
 exchange correlation table for  LEXCH =        8
   RHO(1)=    0.500       N(1)  =     2000
   RHO(2)=  100.500       N(2)  =     4000
 


--------------------------------------------------------------------------------------------------------


 ion  position               nearest neighbor table
   1  0.500  0.500  0.000-   5 2.62   8 2.62   6 2.62   7 2.62
   2  0.750  0.250  0.500-   8 2.62   6 2.62   7 2.62   5 2.62
   3  0.000  0.000  0.000-   6 2.42   7 2.42   5 2.42   8 2.42
   4  0.250  0.750  0.500-   7 2.42   5 2.42   8 2.42   6 2.42
   5  0.345  0.375  0.250-   4 2.42   3 2.42   1 2.62   2 2.62
   6  0.905  0.875  0.250-   3 2.42   4 2.42   2 2.62   1 2.62
   7  0.125  0.655  0.750-   4 2.42   3 2.42   2 2.62   1 2.62
   8  0.625  0.095  0.750-   4 2.42   3 2.42   2 2.62   1 2.62
 
  LATTYP: Found a body centered tetragonal cell.
 ALAT       =     5.8059957800
 C/A-ratio  =     2.0079361830
  
  Lattice vectors:
  
 A1 = (   1.0538795677,  -5.1971421792,  -4.7656568808)
 A2 = (  -5.3029191999,   0.0000000000,  -4.7656572101)
 A3 = (   4.2490396322,   5.1971421792,   2.4016274909)


Analysis of symmetry for initial positions (statically):
=====================================================================
 Subroutine PRICEL returns:
 Original cell was already a primitive cell.
 

 Routine SETGRP: Setting up the symmetry group for a 
 body centered tetragonal supercell.


 Subroutine GETGRP returns: Found  8 space group operations
 (whereof  4 operations were pure point group operations)
 out of a pool of 16 trial point group operations.


The static configuration has the point symmetry S_4 .
 The point group associated with its full space group is D_2d.


Analysis of symmetry for dynamics (positions and initial velocities):
=====================================================================
 Subroutine PRICEL returns:
 Original cell was already a primitive cell.
 

 Routine SETGRP: Setting up the symmetry group for a 
 body centered tetragonal supercell.


 Subroutine GETGRP returns: Found  8 space group operations
 (whereof  4 operations were pure point group operations)
 out of a pool of 16 trial point group operations.


The dynamic configuration has the point symmetry S_4 .
 The point group associated with its full space group is D_2d.


Analysis of structural, dynamic, and magnetic symmetry:
=====================================================================
 Subroutine PRICEL returns:
 Original cell was already a primitive cell.
 

 Routine SETGRP: Setting up the symmetry group for a 
 body centered tetragonal supercell.


 Subroutine GETGRP returns: Found  8 space group operations
 (whereof  4 operations were pure point group operations)
 out of a pool of 16 trial point group operations.


The overall configuration has the point symmetry S_4 .
 The point group associated with its full space group is D_2d.


 Subroutine INISYM returns: Found  8 space group operations
 (whereof  4 operations are pure point group operations),
 and found     1 'primitive' translations


----------------------------------------------------------------------------------------

                                     Primitive cell                                     

  volume of cell :     196.4943

  direct lattice vectors                    reciprocal lattice vectors
     5.302919200  0.000000000 -2.364029390     0.188575379  0.038239427  0.000000000
    -1.053879568  5.197142179 -2.364029719     0.000000000  0.192413439  0.000000000
     0.000000000  0.000000000  7.129686600     0.062526975  0.076478848  0.140258620

  length of vectors
     5.805995780  5.805995650  7.129686600     0.192413429  0.192413439  0.171554998

  position of ions in fractional coordinates (direct lattice)
     0.500000000  0.500000000  1.000000000
     0.750000000  0.250000000  0.500000000
     0.000000000  0.000000000  0.000000000
     0.250000000  0.750000000  0.500000000
     0.345161030  0.375000000  0.250000000
     0.904838970  0.875000000  0.250000000
     0.125000000  0.654838970  0.750000000
     0.625000000  0.095161030  0.750000000

  ion indices of the primitive-cell ions
   primitive index   ion index
                 1           1
                 2           2
                 3           3
                 4           4
                 5           5
                 6           6
                 7           7
                 8           8

----------------------------------------------------------------------------------------

 
 
 KPOINTS: k-points for static calculation specifie

Read explicit list of k-points.

 Found      1 k-points:

 Following reciprocal coordinates:
            Coordinates               Weight
  0.000000  0.000000  0.000000      1.000000

 Following cartesian coordinates:
            Coordinates               Weight
  0.000000  0.000000  0.000000      1.000000
 
 
 Subroutine IBZKPT_HF returns following result:
 ==============================================
 
 Found      1 k-points in 1st BZ
 the following      1 k-points will be used (e.g. in the exchange kernel)
 Following reciprocal coordinates:   # in IRBZ
  0.000000  0.000000  0.000000    1.00000000   1 t-inv F


--------------------------------------------------------------------------------------------------------




 Dimension of arrays:
   k-points           NKPTS =      1   k-points in BZ     NKDIM =      1   number of bands    NBANDS=     48
   number of dos      NEDOS =    301   number of ions     NIONS =      8
   non local maximal  LDIM  =      6   non local SUM 2l+1 LMDIM =     18
   total plane-waves  NPLWV = 160000
   max r-space proj   IRMAX =      1   max aug-charges    IRDMAX=  35706
   dimension x,y,z NGX =    50 NGY =   50 NGZ =   64
   dimension x,y,z NGXF=   100 NGYF=  100 NGZF=  128
   support grid    NGXF=   100 NGYF=  100 NGZF=  128
   ions per type =               2   2   4
   NGX,Y,Z   is equivalent  to a cutoff of  14.32, 14.32, 14.92 a.u.
   NGXF,Y,Z  is equivalent  to a cutoff of  28.63, 28.63, 29.85 a.u.

 SYSTEM =  unknown system                          
 POSCAR =  In2 Cu2 Se4                             

 Startparameter for this run:
   NWRITE =      2    write-flag & timer
   PREC   = accura    normal or accurate (medium, high low for compatibility)
   ISTART =      0    job   : 0-new  1-cont  2-samecut
   ICHARG =      2    charge: 1-file 2-atom 10-const
   ISPIN  =      2    spin polarized calculation?
   LNONCOLLINEAR =      F non collinear calculations
   LSORBIT =      F    spin-orbit coupling
   INIWAV =      1    electr: 0-lowe 1-rand  2-diag
   LASPH  =      T    aspherical Exc in radial PAW
 Electronic Relaxation 1
   ENCUT  =  680.0 eV  49.98 Ry    7.07 a.u.  12.34 12.34 15.16*2*pi/ulx,y,z
   ENINI  =  680.0     initial cutoff
   ENAUG  = 1360.0 eV  augmentation charge cutoff
   NELM   =    200;   NELMIN=  2; NELMDL= -5     # of ELM steps 
   EDIFF  = 0.1E-04   stopping-criterion for ELM
   LREAL  =      F    real-space projection
   NLSPLINE    = F    spline interpolate recip. space projectors
   LCOMPAT=      F    compatible to vasp.4.4
   GGA_COMPAT  = T    GGA compatible to vasp.4.4-vasp.4.6
   LMAXPAW     = -100 max onsite density
   LMAXMIX     =    4 max onsite mixed and CHGCAR
   VOSKOWN=      0    Vosko Wilk Nusair interpolation
   ROPT   =    0.00000   0.00000   0.00000
 Ionic relaxation
   EDIFFG = 0.1E-03   stopping-criterion for IOM
   NSW    =      0    number of steps for IOM
   NBLOCK =      1;   KBLOCK =      1    inner block; outer block 
   IBRION =     -1    ionic relax: 0-MD 1-quasi-New 2-CG
   NFREE  =      0    steps in history (QN), initial steepest desc. (CG)
   ISIF   =      0    stress and relaxation
   IWAVPR =     10    prediction:  0-non 1-charg 2-wave 3-comb
   ISYM   =      3    0-nonsym 1-usesym 2-fastsym
   LCORR  =      T    Harris-Foulkes like correction to forces

   POTIM  = 0.5000    time-step for ionic-motion
   TEIN   =    0.0    initial temperature
   TEBEG  =    0.0;   TEEND  =   0.0 temperature during run
   SMASS  =  -3.00    Nose mass-parameter (am)
   estimated Nose-frequenzy (Omega)   =  0.10E-29 period in steps = 0.13E+47 mass=  -0.770E-27a.u.
   SCALEE = 1.0000    scale energy and forces
   NPACO  =    256;   APACO  = 10.0  distance and # of slots for P.C.
   PSTRESS=    0.0 pullay stress

  Mass of Ions in am
   POMASS = 114.82 63.55 78.96
  Ionic Valenz
   ZVAL   =  13.00 11.00  6.00
  Atomic Wigner-Seitz radii
   RWIGS  =  -1.00 -1.00 -1.00
  virtual crystal weights 
   VCA    =   1.00  1.00  1.00
   NELECT =      72.0000    total number of electrons
   NUPDOWN=      -1.0000    fix difference up-down

 DOS related values:
   EMIN   =  10.00;   EMAX   =-10.00  energy-range for DOS
   EFERMI =   0.00;   METHOD = LEGACY      
   ISMEAR =     0;   SIGMA  =   0.01  broadening in eV -4-tet -1-fermi 0-gaus

 Electronic relaxation 2 (details)
   IALGO  =     38    algorithm
   LDIAG  =      T    sub-space diagonalisation (order eigenvalues)
   LSUBROT=      F    optimize rotation matrix (better conditioning)
   TURBO    =      0    0=normal 1=particle mesh
   IRESTART =      0    0=no restart 2=restart with 2 vectors
   NREBOOT  =      0    no. of reboots
   NMIN     =      0    reboot dimension
   EREF     =   0.00    reference energy to select bands
   IMIX   =      1    mixing-type and parameters
     AMIX     =   0.40;   BMIX     =  1.00
     AMIX_MAG =   1.60;   BMIX_MAG =  1.00
     AMIN     =   0.10
     WC   =   100.;   INIMIX=   1;  MIXPRE=   1;  MAXMIX= -45

 Intra band minimization:
   WEIMIN = 0.0000     energy-eigenvalue tresh-hold
   EBREAK =  0.52E-07  absolut break condition
   DEPER  =   0.30     relativ break condition  

   TIME   =   0.40     timestep for ELM

  volume/ion in A,a.u.               =      24.56       165.75
  Fermi-wavevector in a.u.,A,eV,Ry     =   1.171482  2.213780 18.672231  1.372370
  Thomas-Fermi vector in A             =   2.307925
 
 Write flags
   LWAVE        =      T    write WAVECAR
   LDOWNSAMPLE  =      F    k-point downsampling of WAVECAR
   LCHARG       =      T    write CHGCAR
   LVTOT        =      T    write LOCPOT, total local potential
   LVHAR        =      F    write LOCPOT, Hartree potential only
   LELF         =      F    write electronic localiz. function (ELF)
   LORBIT       =     11    0 simple, 1 ext, 2 COOP (PROOUT), +10 PAW based schemes


 Dipole corrections
   LMONO  =      F    monopole corrections only (constant potential shift)
   LDIPOL =      F    correct potential (dipole corrections)
   IDIPOL =      0    1-x, 2-y, 3-z, 4-all directions 
   EPSILON=  1.0000000 bulk dielectric constant

 Exchange correlation treatment:
   GGA     =    PE    GGA type
   LEXCH   =     8    internal setting for exchange type
   LIBXC   =     F    Libxc                    
   VOSKOWN =     0    Vosko Wilk Nusair interpolation
   EXXOEP  =     0    0=HF, 1=EXX-LHF (local Hartree Fock) 2=EXX OEP
   LHFCALC =     T    Hartree Fock is set to
   LSYMGRAD=     F    symmetrize gradient (conserves proper symmetry)
   PRECFOCK=fast      Normal, Fast or Accurate (Low or Medium for compatibility)
   LRHFCALC=     F    long range Hartree Fock
   LRSCOR  =     F    long range correlation only (use DFT for short range part)
   LTHOMAS =     F    Thomas Fermi screening in HF
   LMODELHF=     F    short range full HF, long range fraction AEXX
   FOCKCORR=     1    mode to apply convergence corrections
   LFOCKACE=     T    use Adeptively-Compressed-Exchange operator
   ENCUT4O =  -1.0   cutoff for four orbital integrals eV
   LMAXFOCK=     4    L truncation for augmentation on plane wave grid
   LMAXFOCKAE=  -1    L truncation for all-electron charge restoration on plane wave grid
   NMAXFOCKAE=   1    number of basis functions for all-electron charge restoration
   LFOCKAEDFT=     F  apply the AE augmentation even for DFT
   NKREDX  =     1    reduce k-point grid by
   NKREDY  =     1    reduce k-point grid by
   NKREDZ  =     1    reduce k-point grid by
   SHIFTRED=     F    shift reduced grid of Gamma
   HFKIDENT=     F    idential grid for each k-point
   ODDONLY =     F    use only odd q-grid points
   EVENONLY=     F    use only even q-grid points
   HFALPHA =   -1.0000 decay constant for conv. correction
   MCALPHA =    0.0000 extent of test-charge in conv. correction in multipole expansion
   AEXX    =    0.2500 exact exchange contribution
   HFSCREEN=    0.2000 screening length (either q_TF or 0.3 A-1)
   HFSCREENC=   0.2000 screening length for correlation (either q_TF or 0.3 A-1)
   HFRCUT  =    0.0000 spherical cutoff for potential kernel
   ALDAX   =    0.7500 LDA exchange part
   AGGAX   =    0.7500 GGA exchange part
   ALDAC   =    1.0000 LDA correlation
   AGGAC   =    1.0000 GGA correlation
   ENCUTFOCK=  -1.0 apply spherical cutoff to Coloumb kernel
   NBANDSGWLOW=     1    first orbital included in HF term
   NBLOCK_FOCK=    64    blocking factor in FOCK_ACC

 Linear response parameters
   LEPSILON=     F    determine dielectric tensor
   LRPA    =     F    only Hartree local field effects (RPA)
   LNABLA  =     F    use nabla operator in PAW spheres
   LVEL    =     F    velocity operator in full k-point grid
   CSHIFT  =0.1000    complex shift for real part using Kramers Kronig
   OMEGAMAX=  -1.0    maximum frequency
   DEG_THRESHOLD= 0.2000000E-02 threshold for treating states as degnerate
   RTIME   =   -0.100 relaxation time in fs
  (WPLASMAI=    0.000 imaginary part of plasma frequency in eV, 0.658/RTIME)
   DFIELD  = 0.0000000 0.0000000 0.0000000 field for delta impulse in time
 
  Optional k-point grid parameters
   LKPOINTS_OPT  =     F    use optional k-point grid
   KPOINTS_OPT_MODE=     1    mode for optional k-point grid
 
 Orbital magnetization related:
   ORBITALMAG=     F  switch on orbital magnetization
   LCHIMAG   =     F  perturbation theory with respect to B field
   DQ        =  0.001000  dq finite difference perturbation B field
   LLRAUG    =     F  two centre corrections for induced B field
   LBONE     =     F  B-component reconstruction in AE one-centre
   LVGVCALC  =     T  calculate vGv susceptibility
   LVGVAPPL  =     F  apply vGv susceptibility instead of pGv for G=0

 Random number generation:
   RANDOM_GENERATOR = DEFAULT
   PCG_SEED         = not used


--------------------------------------------------------------------------------------------------------


 Static calculation
 charge density and potential will be updated during run
 spin polarized calculation
 Variant of blocked Davidson
 Davidson routine will perform the subspace rotation
 perform sub-space diagonalisation
    after iterative eigenvector-optimisation
 Kerker-like  mixing scheme
 using additional bands           12
 reciprocal scheme for non local part
 use partial core corrections
 calculate Harris-corrections to forces 
   (improved forces if not selfconsistent)
 use gradient corrections 
 use of overlap-Matrix (Vanderbilt PP)
 Gauss-broadening in eV      SIGMA  =   0.01


--------------------------------------------------------------------------------------------------------


  energy-cutoff  :      680.00
  volume of cell :      196.49
      direct lattice vectors                 reciprocal lattice vectors
     5.302919200  0.000000000 -2.364029390     0.188575379  0.038239427  0.000000000
    -1.053879568  5.197142179 -2.364029719     0.000000000  0.192413439  0.000000000
     0.000000000  0.000000000  7.129686600     0.062526975  0.076478848  0.140258620

  length of vectors
     5.805995780  5.805995650  7.129686600     0.192413429  0.192413439  0.171554998


 
 k-points in units of 2pi/SCALE and weight: k-points for static calculation specifie
   0.00000000  0.00000000  0.00000000       1.000
 
 k-points in reciprocal lattice and weights: k-points for static calculation specifie
   0.00000000  0.00000000  0.00000000       1.000
 
 position of ions in fractional coordinates (direct lattice) 
   0.50000000  0.50000000  0.00000000
   0.75000000  0.25000000  0.50000000
   0.00000000  0.00000000  0.00000000
   0.25000000  0.75000000  0.50000000
   0.34516103  0.37500000  0.25000000
   0.90483897  0.87500000  0.25000000
   0.12500000  0.65483897  0.75000000
   0.62500000  0.09516103  0.75000000
 
 position of ions in cartesian coordinates  (Angst):
   2.12451982  2.59857109 -2.36402955
   3.71371951  1.29928554  1.20081383
   0.00000000  0.00000000  0.00000000
   0.53532012  3.89785663  1.20081366
   1.43515622  1.94892832  0.07993969
   3.87614333  4.54749941 -2.42517027
  -0.02725651  3.40329123  3.50370249
   3.21403623  0.49456540  3.64478308
 


--------------------------------------------------------------------------------------------------------


 k-point   1 :   0.0000 0.0000 0.0000  plane waves:    7897

 maximum and minimum number of plane-waves per node :       794      785

 maximum number of plane-waves:      7897
 maximum index in each direction: 
   IXMAX=   12   IYMAX=   12   IZMAX=   15
   IXMIN=  -12   IYMIN=  -12   IZMIN=  -15


 parallel 3D FFT for wavefunctions:
    minimum data exchange during FFTs selected (reduces bandwidth)
 parallel 3D FFT for charge:
    minimum data exchange during FFTs selected (reduces bandwidth)


 FFT grid for exact exchange (Hartree Fock) 
  NGX = 28; NGY = 28; NGZ = 32

 
 Radii for the augmentation spheres in the non-local exchange
 for species   1 augmentation radius   1.454 (default was   1.077)
       energy cutoff for augmentation   2720.0
 for species   2 augmentation radius   1.273 (default was   0.943)
       energy cutoff for augmentation   2720.0
 for species   3 augmentation radius   1.459 (default was   1.081)
       energy cutoff for augmentation   2720.0

 real space projection operators:
  total allocation   :       2359.38 KBytes
  max/ min on nodes  :        256.64        168.75

 Maximum index for augmentation-charges in exchange          223
  SETUP_FOCK is finished

 total amount of memory used by VASP MPI-rank0    34700. kBytes
=======================================================================

   base      :      30000. kBytes
   nonl-proj :        443. kBytes
   fftplans  :       1088. kBytes
   grid      :       2428. kBytes
   one-center:         31. kBytes
   HF        :         64. kBytes
   nonlr-proj:        542. kBytes
   wavefun   :        104. kBytes
 
     INWAV:  cpu time      0.0001: real time      0.0005
 initial charge density was supplied:
 charge density of overlapping atoms calculated
 number of electron      72.0000000 magnetization       4.8000000
 keeping initial charge density in first step


--------------------------------------------------------------------------------------------------------


 Maximum index for augmentation-charges          985 (set IRDMAX)


--------------------------------------------------------------------------------------------------------


 First call to EWALD:  gamma=   0.305
 Maximum number of real-space cells 3x 3x 3
 Maximum number of reciprocal cells 3x 3x 3

    FEWALD:  cpu time      0.0019: real time      0.0021


--------------------------------------- Ionic step        1  -------------------------------------------




--------------------------------------- Iteration      1(   1)  ---------------------------------------


    POTLOK:  cpu time      0.0377: real time      0.0808
    SETDIJ:  cpu time      0.4117: real time      0.4129
     EDDAV:  cpu time      0.3303: real time      1.3990
       DOS:  cpu time      0.0045: real time      0.0050
    --------------------------------------------
      LOOP:  cpu time      0.7842: real time      1.8978

 eigenvalue-minimisations  :   192
 total energy-change (2. order) :-0.4388662E+04  (-0.3834344E+04)
 number of electron      72.0000000 magnetization       4.8000000
 augmentation part       72.0000000 magnetization       4.8000000

 Free energy of the ion-electron system (eV)
  ---------------------------------------------------
  alpha Z        PSCENC =       185.64929911
  Ewald energy   TEWEN  =     -4678.36476469
  -Hartree energ DENC   =     -2345.03363423
  -exchange      EXHF   =         0.00000000
  -V(xc)+E(xc)   XCENC  =       172.18262993
  PAW double counting   =      6059.25548889   -11108.38758097
  entropy T*S    EENTRO =        -0.00000000
  eigenvalues    EBANDS =       375.08202498
  atomic energy  EATOM  =      6950.95472638
  Solvation  Ediel_sol  =         0.00000000
  ---------------------------------------------------
  free energy    TOTEN  =     -4388.66181060 eV

  energy without entropy =    -4388.66181060  energy(sigma->0) =    -4388.66181060
  exchange ACFDT corr.  =         0.00000000  see jH, gK, PRB 81, 115126


--------------------------------------------------------------------------------------------------------




--------------------------------------- Iteration      1(   2)  ---------------------------------------


     EDDAV:  cpu time      0.0580: real time      0.0986
       DOS:  cpu time      0.0001: real time      0.0001
    --------------------------------------------
      LOOP:  cpu time      0.0581: real time      0.0987

 eigenvalue-minimisations  :   192
 total energy-change (2. order) :-0.6395223E+03  (-0.6104860E+03)
 number of electron      72.0000000 magnetization       4.8000000
 augmentation part       72.0000000 magnetization       4.8000000

 Free energy of the ion-electron system (eV)
  ---------------------------------------------------
  alpha Z        PSCENC =       185.64929911
  Ewald energy   TEWEN  =     -4678.36476469
  -Hartree energ DENC   =     -2345.03363423
  -exchange      EXHF   =         0.00000000
  -V(xc)+E(xc)   XCENC  =       172.18262993
  PAW double counting   =      6059.25548889   -11108.38758097
  entropy T*S    EENTRO =        -0.00000000
  eigenvalues    EBANDS =      -264.44023782
  atomic energy  EATOM  =      6950.95472638
  Solvation  Ediel_sol  =         0.00000000
  ---------------------------------------------------
  free energy    TOTEN  =     -5028.18407339 eV

  energy without entropy =    -5028.18407339  energy(sigma->0) =    -5028.18407339
  exchange ACFDT corr.  =         0.00000000  see jH, gK, PRB 81, 115126


--------------------------------------------------------------------------------------------------------




--------------------------------------- Iteration      1(   3)  ---------------------------------------


     EDDAV:  cpu time      0.0529: real time      0.1682
       DOS:  cpu time      0.0001: real time      0.0001
    --------------------------------------------
      LOOP:  cpu time      0.0530: real time      0.1683

 eigenvalue-minimisations  :   240
 total energy-change (2. order) :-0.9908123E+02  (-0.9420956E+02)
 number of electron      72.0000000 magnetization       4.8000000
 augmentation part       72.0000000 magnetization       4.8000000

 Free energy of the ion-electron system (eV)
  ---------------------------------------------------
  alpha Z        PSCENC =       185.64929911
  Ewald energy   TEWEN  =     -4678.36476469
  -Hartree energ DENC   =     -2345.03363423
  -exchange      EXHF   =         0.00000000
  -V(xc)+E(xc)   XCENC  =       172.18262993
  PAW double counting   =      6059.25548889   -11108.38758097
  entropy T*S    EENTRO =        -0.00000000
  eigenvalues    EBANDS =      -363.52146639
  atomic energy  EATOM  =      6950.95472638
  Solvation  Ediel_sol  =         0.00000000
  ---------------------------------------------------
  free energy    TOTEN  =     -5127.26530196 eV

  energy without entropy =    -5127.26530196  energy(sigma->0) =    -5127.26530196
  exchange ACFDT corr.  =         0.00000000  see jH, gK, PRB 81, 115126


--------------------------------------------------------------------------------------------------------




--------------------------------------- Iteration      1(   4)  ---------------------------------------


     EDDAV:  cpu time      0.0506: real time      0.0662
       DOS:  cpu time      0.0001: real time      0.0001
    --------------------------------------------
      LOOP:  cpu time      0.0508: real time      0.0664

 eigenvalue-minimisations  :   240
 total energy-change (2. order) :-0.6459853E+01  (-0.6423562E+01)
 number of electron      72.0000000 magnetization       4.8000000
 augmentation part       72.0000000 magnetization       4.8000000

 Free energy of the ion-electron system (eV)
  ---------------------------------------------------
  alpha Z        PSCENC =       185.64929911
  Ewald energy   TEWEN  =     -4678.36476469
  -Hartree energ DENC   =     -2345.03363423
  -exchange      EXHF   =         0.00000000
  -V(xc)+E(xc)   XCENC  =       172.18262993
  PAW double counting   =      6059.25548889   -11108.38758097
  entropy T*S    EENTRO =        -0.00000000
  eigenvalues    EBANDS =      -369.98131898
  atomic energy  EATOM  =      6950.95472638
  Solvation  Ediel_sol  =         0.00000000
  ---------------------------------------------------
  free energy    TOTEN  =     -5133.72515456 eV

  energy without entropy =    -5133.72515456  energy(sigma->0) =    -5133.72515456
  exchange ACFDT corr.  =         0.00000000  see jH, gK, PRB 81, 115126


--------------------------------------------------------------------------------------------------------




--------------------------------------- Iteration      1(   5)  ---------------------------------------


    POTLOK:  cpu time      0.0455: real time      0.0604
    SETDIJ:  cpu time      0.9591: real time      0.9614
     EDDAV:  cpu time      0.2416: real time      0.3269
       DOS:  cpu time      0.0003: real time      0.0003
    CHARGE:  cpu time      0.0096: real time      0.0127
    MIXING:  cpu time      0.0010: real time      0.0013
    --------------------------------------------
      LOOP:  cpu time      1.2571: real time      1.3631

 eigenvalue-minimisations  :   240
 total energy-change (2. order) : 0.5097938E+04  (-0.3399495E+01)
 number of electron      71.9999999 magnetization      -2.8800000
 augmentation part       24.2337264 magnetization      -2.7986010

 Free energy of the ion-electron system (eV)
  ---------------------------------------------------
  alpha Z        PSCENC =       185.64929911
  Ewald energy   TEWEN  =     -4678.36476469
  -Hartree energ DENC   =     -2345.03363423
  -exchange      EXHF   =       168.83397282
  -V(xc)+E(xc)   XCENC  =       128.21679015
  PAW double counting   =      6100.71917604    -6220.79105344
  entropy T*S    EENTRO =        -0.00000000
  eigenvalues    EBANDS =      -325.97134134
  atomic energy  EATOM  =      6950.95472638
  Solvation  Ediel_sol  =         0.00000000
  ---------------------------------------------------
  free energy    TOTEN  =       -35.78682920 eV

  energy without entropy =      -35.78682920  energy(sigma->0) =      -35.78682920
  exchange ACFDT corr.  =         0.00000000  see jH, gK, PRB 81, 115126


--------------------------------------------------------------------------------------------------------




--------------------------------------- Iteration      1(   6)  ---------------------------------------


    POTLOK:  cpu time      0.0424: real time      0.0574
    SETDIJ:  cpu time      0.9532: real time      0.9554
     EDDAV:  cpu time      0.1518: real time      0.1522
       DOS:  cpu time      0.0003: real time      0.0003
    CHARGE:  cpu time      0.0070: real time      0.0070
    MIXING:  cpu time      0.0003: real time      0.0003
    --------------------------------------------
      LOOP:  cpu time      1.1550: real time      1.1726

 eigenvalue-minimisations  :   288
 total energy-change (2. order) : 0.6511473E+00  (-0.3488857E+00)
 number of electron      71.9999999 magnetization       1.7280000
 augmentation part       24.0897668 magnetization       1.7321521

 Free energy of the ion-electron system (eV)
  ---------------------------------------------------
  alpha Z        PSCENC =       185.64929911
  Ewald energy   TEWEN  =     -4678.36476469
  -Hartree energ DENC   =     -2343.94578688
  -exchange      EXHF   =       164.09029613
  -V(xc)+E(xc)   XCENC  =       128.66313215
  PAW double counting   =      7255.27508020    -7375.11782482
  entropy T*S    EENTRO =        -0.00000000
  eigenvalues    EBANDS =      -322.33983953
  atomic energy  EATOM  =      6950.95472638
  Solvation  Ediel_sol  =         0.00000000
  ---------------------------------------------------
  free energy    TOTEN  =       -35.13568194 eV

  energy without entropy =      -35.13568194  energy(sigma->0) =      -35.13568194
  exchange ACFDT corr.  =         0.00000000  see jH, gK, PRB 81, 115126


--------------------------------------------------------------------------------------------------------




--------------------------------------- Iteration      1(   7)  ---------------------------------------


    POTLOK:  cpu time      0.0438: real time      0.0587
    SETDIJ:  cpu time      0.9469: real time      0.9491
     EDDAV:  cpu time      0.1367: real time      0.1371
       DOS:  cpu time      0.0001: real time      0.0001
    CHARGE:  cpu time      0.0062: real time      0.0062
    MIXING:  cpu time      0.0002: real time      0.0002
    --------------------------------------------
      LOOP:  cpu time      1.1339: real time      1.1514

 eigenvalue-minimisations  :   312
 total energy-change (2. order) : 0.7642199E-02  (-0.1713772E+00)
 number of electron      71.9999999 magnetization      -1.0368000
 augmentation part       24.3808730 magnetization      -1.0231984

 Free energy of the ion-electron system (eV)
  ---------------------------------------------------
  alpha Z        PSCENC =       185.64929911
  Ewald energy   TEWEN  =     -4678.36476469
  -Hartree energ DENC   =     -2331.61816391
  -exchange      EXHF   =       162.32896084
  -V(xc)+E(xc)   XCENC  =       128.49658429
  PAW double counting   =      8316.13925579    -8434.06513990
  entropy T*S    EENTRO =        -0.00000000
  eigenvalues    EBANDS =      -334.64879765
  atomic energy  EATOM  =      6950.95472638
  Solvation  Ediel_sol  =         0.00000000
  ---------------------------------------------------
  free energy    TOTEN  =       -35.12803974 eV

  energy without entropy =      -35.12803974  energy(sigma->0) =      -35.12803974
  exchange ACFDT corr.  =         0.00000000  see jH, gK, PRB 81, 115126


--------------------------------------------------------------------------------------------------------




--------------------------------------- Iteration      1(   8)  ---------------------------------------


    POTLOK:  cpu time      0.0419: real time      0.0579
    SETDIJ:  cpu time      0.9450: real time      0.9472
     EDDAV:  cpu time      0.1343: real time      0.1346
       DOS:  cpu time      0.0001: real time      0.0003
    CHARGE:  cpu time      0.0063: real time      0.0063
    MIXING:  cpu time      0.0002: real time      0.0002
    --------------------------------------------
      LOOP:  cpu time      1.1279: real time      1.1466

 eigenvalue-minimisations  :   300
 total energy-change (2. order) :-0.8466299E-01  (-0.4329503E-01)
 number of electron      71.9999999 magnetization       0.6220800
 augmentation part       24.3762182 magnetization       0.6241106

 Free energy of the ion-electron system (eV)
  ---------------------------------------------------
  alpha Z        PSCENC =       185.64929911
  Ewald energy   TEWEN  =     -4678.36476469
  -Hartree energ DENC   =     -2333.89715153
  -exchange      EXHF   =       162.58355125
  -V(xc)+E(xc)   XCENC  =       128.67984792
  PAW double counting   =      9020.51363974    -9140.94155046
  entropy T*S    EENTRO =        -0.00000000
  eigenvalues    EBANDS =      -330.39030045
  atomic energy  EATOM  =      6950.95472638
  Solvation  Ediel_sol  =         0.00000000
  ---------------------------------------------------
  free energy    TOTEN  =       -35.21270273 eV

  energy without entropy =      -35.21270273  energy(sigma->0) =      -35.21270273
  exchange ACFDT corr.  =         0.00000000  see jH, gK, PRB 81, 115126


--------------------------------------------------------------------------------------------------------




--------------------------------------- Iteration      1(   9)  ---------------------------------------


    POTLOK:  cpu time      0.0458: real time      0.0586
    SETDIJ:  cpu time      0.9501: real time      0.9523
     EDDAV:  cpu time      0.1340: real time      0.1344
       DOS:  cpu time      0.0002: real time      0.0003
    CHARGE:  cpu time      0.0074: real time      0.0075
    MIXING:  cpu time      0.0003: real time      0.0003
    --------------------------------------------
      LOOP:  cpu time      1.1377: real time      1.1533

 eigenvalue-minimisations  :   276
 total energy-change (2. order) :-0.1098130E-01  (-0.4301164E-02)
 number of electron      71.9999998 magnetization      -0.3732480
 augmentation part       24.3397026 magnetization      -0.3715750

 Free energy of the ion-electron system (eV)
  ---------------------------------------------------
  alpha Z        PSCENC =       185.64929911
  Ewald energy   TEWEN  =     -4678.36476469
  -Hartree energ DENC   =     -2334.15723689
  -exchange      EXHF   =       162.31567870
  -V(xc)+E(xc)   XCENC  =       128.74869451
  PAW double counting   =      9482.31801081    -9603.99903435
  entropy T*S    EENTRO =        -0.00000000
  eigenvalues    EBANDS =      -328.68905761
  atomic energy  EATOM  =      6950.95472638
  Solvation  Ediel_sol  =         0.00000000
  ---------------------------------------------------
  free energy    TOTEN  =       -35.22368402 eV

  energy without entropy =      -35.22368402  energy(sigma->0) =      -35.22368402
  exchange ACFDT corr.  =         0.00000000  see jH, gK, PRB 81, 115126


--------------------------------------------------------------------------------------------------------




--------------------------------------- Iteration      1(  10)  ---------------------------------------


    POTLOK:  cpu time      0.0425: real time      0.0587
    SETDIJ:  cpu time      0.9455: real time      0.9477
     EDDAV:  cpu time      0.1324: real time      0.1327
       DOS:  cpu time      0.0001: real time      0.0001
    CHARGE:  cpu time      0.0062: real time      0.0062
    MIXING:  cpu time      0.0002: real time      0.0002
    --------------------------------------------
      LOOP:  cpu time      1.1270: real time      1.1457

 eigenvalue-minimisations  :   300
 total energy-change (2. order) :-0.2861584E-02  (-0.1844130E-02)
 number of electron      71.9999998 magnetization       0.2239488
 augmentation part       24.3412324 magnetization       0.2245117

 Free energy of the ion-electron system (eV)
  ---------------------------------------------------
  alpha Z        PSCENC =       185.64929911
  Ewald energy   TEWEN  =     -4678.36476469
  -Hartree energ DENC   =     -2332.95582572
  -exchange      EXHF   =       162.20850072
  -V(xc)+E(xc)   XCENC  =       128.75187932
  PAW double counting   =      9741.44141965    -9863.53815499
  entropy T*S    EENTRO =        -0.00000000
  eigenvalues    EBANDS =      -329.37362539
  atomic energy  EATOM  =      6950.95472638
  Solvation  Ediel_sol  =         0.00000000
  ---------------------------------------------------
  free energy    TOTEN  =       -35.22654561 eV

  energy without entropy =      -35.22654561  energy(sigma->0) =      -35.22654561
  exchange ACFDT corr.  =         0.00000000  see jH, gK, PRB 81, 115126


--------------------------------------------------------------------------------------------------------




--------------------------------------- Iteration      1(  11)  ---------------------------------------


    POTLOK:  cpu time      0.0433: real time      0.0596
    SETDIJ:  cpu time      0.9453: real time      0.9475
     EDDAV:  cpu time      0.1266: real time      0.1270
       DOS:  cpu time      0.0002: real time      0.0002
    CHARGE:  cpu time      0.0063: real time      0.0063
    MIXING:  cpu time      0.0002: real time      0.0002
    --------------------------------------------
      LOOP:  cpu time      1.1219: real time      1.1407

 eigenvalue-minimisations  :   264
 total energy-change (2. order) :-0.2335023E-02  (-0.5265318E-03)
 number of electron      71.9999998 magnetization      -0.1343693
 augmentation part       24.3396948 magnetization      -0.1344507

 Free energy of the ion-electron system (eV)
  ---------------------------------------------------
  alpha Z        PSCENC =       185.64929911
  Ewald energy   TEWEN  =     -4678.36476469
  -Hartree energ DENC   =     -2332.73155818
  -exchange      EXHF   =       162.28006301
  -V(xc)+E(xc)   XCENC  =       128.77362301
  PAW double counting   =      9874.56818281    -9997.04925614
  entropy T*S    EENTRO =        -0.00000000
  eigenvalues    EBANDS =      -329.30919595
  atomic energy  EATOM  =      6950.95472638
  Solvation  Ediel_sol  =         0.00000000
  ---------------------------------------------------
  free energy    TOTEN  =       -35.22888063 eV

  energy without entropy =      -35.22888063  energy(sigma->0) =      -35.22888063
  exchange ACFDT corr.  =         0.00000000  see jH, gK, PRB 81, 115126


--------------------------------------------------------------------------------------------------------




--------------------------------------- Iteration      1(  12)  ---------------------------------------


    POTLOK:  cpu time      0.0424: real time      0.0588
    SETDIJ:  cpu time      0.9484: real time      0.9506
     EDDAV:  cpu time      0.1263: real time      0.1266
       DOS:  cpu time      0.0001: real time      0.0001
    CHARGE:  cpu time      0.0062: real time      0.0063
    MIXING:  cpu time      0.0002: real time      0.0002
    --------------------------------------------
      LOOP:  cpu time      1.1237: real time      1.1426

 eigenvalue-minimisations  :   264
 total energy-change (2. order) :-0.1022449E-02  (-0.1815310E-03)
 number of electron      71.9999998 magnetization       0.0806216
 augmentation part       24.3360061 magnetization       0.0809072

 Free energy of the ion-electron system (eV)
  ---------------------------------------------------
  alpha Z        PSCENC =       185.64929911
  Ewald energy   TEWEN  =     -4678.36476469
  -Hartree energ DENC   =     -2332.75079057
  -exchange      EXHF   =       162.30722585
  -V(xc)+E(xc)   XCENC  =       128.79307708
  PAW double counting   =      9952.60210687   -10075.31577622
  entropy T*S    EENTRO =        -0.00000000
  eigenvalues    EBANDS =      -329.10500688
  atomic energy  EATOM  =      6950.95472638
  Solvation  Ediel_sol  =         0.00000000
  ---------------------------------------------------
  free energy    TOTEN  =       -35.22990308 eV

  energy without entropy =      -35.22990308  energy(sigma->0) =      -35.22990308
  exchange ACFDT corr.  =         0.00000000  see jH, gK, PRB 81, 115126


--------------------------------------------------------------------------------------------------------




--------------------------------------- Iteration      1(  13)  ---------------------------------------


    POTLOK:  cpu time      0.0427: real time      0.0594
    SETDIJ:  cpu time      0.9479: real time      0.9502
     EDDAV:  cpu time      0.1349: real time      0.1352
       DOS:  cpu time      0.0001: real time      0.0001
    CHARGE:  cpu time      0.0062: real time      0.0062
    MIXING:  cpu time      0.0002: real time      0.0002
    --------------------------------------------
      LOOP:  cpu time      1.1320: real time      1.1514

 eigenvalue-minimisations  :   288
 total energy-change (2. order) :-0.4514103E-03  (-0.5861537E-04)
 number of electron      71.9999998 magnetization      -0.0483729
 augmentation part       24.3353798 magnetization      -0.0483232

 Free energy of the ion-electron system (eV)
  ---------------------------------------------------
  alpha Z        PSCENC =       185.64929911
  Ewald energy   TEWEN  =     -4678.36476469
  -Hartree energ DENC   =     -2332.69486387
  -exchange      EXHF   =       162.30553776
  -V(xc)+E(xc)   XCENC  =       128.80300665
  PAW double counting   =      9999.59973456   -10122.41677070
  entropy T*S    EENTRO =        -0.00000000
  eigenvalues    EBANDS =      -329.06625969
  atomic energy  EATOM  =      6950.95472638
  Solvation  Ediel_sol  =         0.00000000
  ---------------------------------------------------
  free energy    TOTEN  =       -35.23035449 eV

  energy without entropy =      -35.23035449  energy(sigma->0) =      -35.23035449
  exchange ACFDT corr.  =         0.00000000  see jH, gK, PRB 81, 115126


--------------------------------------------------------------------------------------------------------




--------------------------------------- Iteration      1(  14)  ---------------------------------------


    POTLOK:  cpu time      0.0416: real time      0.0569
    SETDIJ:  cpu time      0.9487: real time      0.9509
     EDDAV:  cpu time      0.1319: real time      0.1322
       DOS:  cpu time      0.0003: real time      0.0003
    CHARGE:  cpu time      0.0073: real time      0.0073
    MIXING:  cpu time      0.0002: real time      0.0002
    --------------------------------------------
      LOOP:  cpu time      1.1300: real time      1.1479

 eigenvalue-minimisations  :   276
 total energy-change (2. order) :-0.2118396E-03  (-0.2088470E-04)
 number of electron      71.9999998 magnetization       0.0290238
 augmentation part       24.3355678 magnetization       0.0290449

 Free energy of the ion-electron system (eV)
  ---------------------------------------------------
  alpha Z        PSCENC =       185.64929911
  Ewald energy   TEWEN  =     -4678.36476469
  -Hartree energ DENC   =     -2332.69108541
  -exchange      EXHF   =       162.30746632
  -V(xc)+E(xc)   XCENC  =       128.80974744
  PAW double counting   =     10027.07043834   -10149.95424342
  entropy T*S    EENTRO =        -0.00000000
  eigenvalues    EBANDS =      -329.01215041
  atomic energy  EATOM  =      6950.95472638
  Solvation  Ediel_sol  =         0.00000000
  ---------------------------------------------------
  free energy    TOTEN  =       -35.23056633 eV

  energy without entropy =      -35.23056633  energy(sigma->0) =      -35.23056633
  exchange ACFDT corr.  =         0.00000000  see jH, gK, PRB 81, 115126


--------------------------------------------------------------------------------------------------------




--------------------------------------- Iteration      1(  15)  ---------------------------------------


    POTLOK:  cpu time      0.0423: real time      0.0592
    SETDIJ:  cpu time      0.9515: real time      0.9537
     EDDAV:  cpu time      0.1259: real time      0.1262
       DOS:  cpu time      0.0003: real time      0.0003
    CHARGE:  cpu time      0.0063: real time      0.0063
    MIXING:  cpu time      0.0002: real time      0.0002
    --------------------------------------------
      LOOP:  cpu time      1.1266: real time      1.1460

 eigenvalue-minimisations  :   252
 total energy-change (2. order) :-0.1047763E-03  (-0.8325166E-05)
 number of electron      71.9999998 magnetization      -0.0174143
 augmentation part       24.3353533 magnetization      -0.0174571

 Free energy of the ion-electron system (eV)
  ---------------------------------------------------
  alpha Z        PSCENC =       185.64929911
  Ewald energy   TEWEN  =     -4678.36476469
  -Hartree energ DENC   =     -2332.72310446
  -exchange      EXHF   =       162.30820502
  -V(xc)+E(xc)   XCENC  =       128.81464392
  PAW double counting   =     10043.51217427   -10166.44467512
  entropy T*S    EENTRO =        -0.00000000
  eigenvalues    EBANDS =      -328.93717554
  atomic energy  EATOM  =      6950.95472638
  Solvation  Ediel_sol  =         0.00000000
  ---------------------------------------------------
  free energy    TOTEN  =       -35.23067111 eV

  energy without entropy =      -35.23067111  energy(sigma->0) =      -35.23067111
  exchange ACFDT corr.  =         0.00000000  see jH, gK, PRB 81, 115126


--------------------------------------------------------------------------------------------------------




--------------------------------------- Iteration      1(  16)  ---------------------------------------


    POTLOK:  cpu time      0.0426: real time      0.0590
    SETDIJ:  cpu time      0.9485: real time      0.9507
     EDDAV:  cpu time      0.1375: real time      0.1378
       DOS:  cpu time      0.0003: real time      0.0003
    CHARGE:  cpu time      0.0063: real time      0.0063
    MIXING:  cpu time      0.0005: real time      0.0005
    --------------------------------------------
      LOOP:  cpu time      1.1355: real time      1.1545

 eigenvalue-minimisations  :   216
 total energy-change (2. order) :-0.5151910E-04  (-0.3092787E-05)
 number of electron      71.9999998 magnetization       0.0104486
 augmentation part       24.3350897 magnetization       0.0105108

 Free energy of the ion-electron system (eV)
  ---------------------------------------------------
  alpha Z        PSCENC =       185.64929911
  Ewald energy   TEWEN  =     -4678.36476469
  -Hartree energ DENC   =     -2332.74548461
  -exchange      EXHF   =       162.30690173
  -V(xc)+E(xc)   XCENC  =       128.81754084
  PAW double counting   =     10053.58564162   -10176.54733738
  entropy T*S    EENTRO =        -0.00000000
  eigenvalues    EBANDS =      -328.88724564
  atomic energy  EATOM  =      6950.95472638
  Solvation  Ediel_sol  =         0.00000000
  ---------------------------------------------------
  free energy    TOTEN  =       -35.23072263 eV

  energy without entropy =      -35.23072263  energy(sigma->0) =      -35.23072263
  exchange ACFDT corr.  =         0.00000000  see jH, gK, PRB 81, 115126


--------------------------------------------------------------------------------------------------------




--------------------------------------- Iteration      1(  17)  ---------------------------------------


    POTLOK:  cpu time      0.0417: real time      0.0590
    SETDIJ:  cpu time      0.9467: real time      0.9490
     EDDAV:  cpu time      0.1231: real time      0.1234
       DOS:  cpu time      0.0002: real time      0.0003
    CHARGE:  cpu time      0.0077: real time      0.0078
    MIXING:  cpu time      0.0003: real time      0.0003
    --------------------------------------------
      LOOP:  cpu time      1.1197: real time      1.1396

 eigenvalue-minimisations  :   180
 total energy-change (2. order) :-0.2513886E-04  (-0.1217341E-05)
 number of electron      71.9999998 magnetization      -0.0062691
 augmentation part       24.3351516 magnetization      -0.0063375

 Free energy of the ion-electron system (eV)
  ---------------------------------------------------
  alpha Z        PSCENC =       185.64929911
  Ewald energy   TEWEN  =     -4678.36476469
  -Hartree energ DENC   =     -2332.75809689
  -exchange      EXHF   =       162.30615856
  -V(xc)+E(xc)   XCENC  =       128.81918536
  PAW double counting   =     10059.52615236   -10182.50416811
  entropy T*S    EENTRO =        -0.00000000
  eigenvalues    EBANDS =      -328.85923985
  atomic energy  EATOM  =      6950.95472638
  Solvation  Ediel_sol  =         0.00000000
  ---------------------------------------------------
  free energy    TOTEN  =       -35.23074776 eV

  energy without entropy =      -35.23074776  energy(sigma->0) =      -35.23074776
  exchange ACFDT corr.  =         0.00000000  see jH, gK, PRB 81, 115126


--------------------------------------------------------------------------------------------------------




--------------------------------------- Iteration      1(  18)  ---------------------------------------


    POTLOK:  cpu time      0.0478: real time      0.0614
    SETDIJ:  cpu time      0.9459: real time      0.9481
     EDDAV:  cpu time      0.1151: real time      0.1154
       DOS:  cpu time      0.0002: real time      0.0003
    CHARGE:  cpu time      0.0063: real time      0.0063
    MIXING:  cpu time      0.0002: real time      0.0002
    --------------------------------------------
      LOOP:  cpu time      1.1155: real time      1.1317

 eigenvalue-minimisations  :   168
 total energy-change (2. order) :-0.1241282E-04  (-0.6630503E-06)
 number of electron      71.9999998 magnetization       0.0037615
 augmentation part       24.3349698 magnetization       0.0038246

 Free energy of the ion-electron system (eV)
  ---------------------------------------------------
  alpha Z        PSCENC =       185.64929911
  Ewald energy   TEWEN  =     -4678.36476469
  -Hartree energ DENC   =     -2332.77443767
  -exchange      EXHF   =       162.30647154
  -V(xc)+E(xc)   XCENC  =       128.82043857
  PAW double counting   =     10063.03523042   -10186.02498585
  entropy T*S    EENTRO =        -0.00000000
  eigenvalues    EBANDS =      -328.83273799
  atomic energy  EATOM  =      6950.95472638
  Solvation  Ediel_sol  =         0.00000000
  ---------------------------------------------------
  free energy    TOTEN  =       -35.23076018 eV

  energy without entropy =      -35.23076018  energy(sigma->0) =      -35.23076018
  exchange ACFDT corr.  =         0.00000000  see jH, gK, PRB 81, 115126


--------------------------------------------------------------------------------------------------------




--------------------------------------- Iteration      1(  19)  ---------------------------------------


    POTLOK:  cpu time      0.0441: real time      0.0595
    SETDIJ:  cpu time      0.9497: real time      0.9520
     EDDAV:  cpu time      0.1154: real time      0.1156
       DOS:  cpu time      0.0001: real time      0.0001
    --------------------------------------------
      LOOP:  cpu time      1.1093: real time      1.1272

 eigenvalue-minimisations  :   168
 total energy-change (2. order) :-0.6235761E-05  (-0.3811588E-06)
 number of electron      71.9999998 magnetization       0.0037615
 augmentation part       24.3349698 magnetization       0.0038246

 Free energy of the ion-electron system (eV)
  ---------------------------------------------------
  alpha Z        PSCENC =       185.64929911
  Ewald energy   TEWEN  =     -4678.36476469
  -Hartree energ DENC   =     -2332.78138752
  -exchange      EXHF   =       162.30606078
  -V(xc)+E(xc)   XCENC  =       128.82107792
  PAW double counting   =     10065.14106200   -10188.13584468
  entropy T*S    EENTRO =        -0.00000000
  eigenvalues    EBANDS =      -328.82099572
  atomic energy  EATOM  =      6950.95472638
  Solvation  Ediel_sol  =         0.00000000
  ---------------------------------------------------
  free energy    TOTEN  =       -35.23076641 eV

  energy without entropy =      -35.23076641  energy(sigma->0) =      -35.23076641
  exchange ACFDT corr.  =         0.00000000  see jH, gK, PRB 81, 115126


--------------------------------------------------------------------------------------------------------




 average (electrostatic) potential at core
  the test charge radii are     1.0774  0.9430  1.0808
  (the norm of the test charge is              1.0000)
       1 -91.4453       2 -91.4453       3 -58.2380       4 -58.2381       5 -50.4105
       6 -50.4105       7 -50.4105       8 -50.4105
 
 
 
 E-fermi :   3.5338     XC(G=0):  -7.6854     alpha+bet : -9.4251

 Fermi energy:         3.5338241715

 spin component 1

 k-point     1 :       0.0000    0.0000    0.0000
  band No.  band energies     occupation 
      1     -13.2693      1.00000
      2     -13.2692      1.00000
      3     -13.2665      1.00000
      4     -13.0737      1.00000
      5     -13.0693      1.00000
      6     -13.0693      1.00000
      7     -13.0063      1.00000
      8     -12.9876      1.00000
      9     -12.9826      1.00000
     10     -12.9712      1.00000
     11     -11.4435      1.00000
     12      -9.9663      1.00000
     13      -9.9663      1.00000
     14      -9.9582      1.00000
     15      -3.2740      1.00000
     16      -2.4723      1.00000
     17      -1.4625      1.00000
     18      -0.9422      1.00000
     19      -0.8574      1.00000
     20      -0.3842      1.00000
     21      -0.3842      1.00000
     22      -0.1393      1.00000
     23      -0.1393      1.00000
     24      -0.0653      1.00000
     25      -0.0653      1.00000
     26      -0.0297      1.00000
     27       0.8317      1.00000
     28       0.8663      1.00000
     29       0.9414      1.00000
     30       1.2362      1.00000
     31       1.3105      1.00000
     32       1.3105      1.00000
     33       1.4155      1.00000
     34       3.3821      1.00000
     35       3.3821      1.00000
     36       3.4251      1.00000
     37       4.5955      0.00000
     38       6.5132      0.00000
     39       6.7146      0.00000
     40       8.5522      0.00000
     41       8.5522      0.00000
     42       9.3056      0.00000
     43       9.6210      0.00000
     44       9.6210      0.00000
     45       9.8792      0.00000
     46      10.1476      0.00000
     47      10.8987      0.00000
     48      10.8988      0.00000
 Fermi energy:         3.5338241715

 spin component 2

 k-point     1 :       0.0000    0.0000    0.0000
  band No.  band energies     occupation 
      1     -13.2692      1.00000
      2     -13.2692      1.00000
      3     -13.2664      1.00000
      4     -13.0737      1.00000
      5     -13.0692      1.00000
      6     -13.0692      1.00000
      7     -13.0063      1.00000
      8     -12.9875      1.00000
      9     -12.9825      1.00000
     10     -12.9712      1.00000
     11     -11.4433      1.00000
     12      -9.9661      1.00000
     13      -9.9661      1.00000
     14      -9.9581      1.00000
     15      -3.2738      1.00000
     16      -2.4720      1.00000
     17      -1.4623      1.00000
     18      -0.9420      1.00000
     19      -0.8571      1.00000
     20      -0.3840      1.00000
     21      -0.3840      1.00000
     22      -0.1390      1.00000
     23      -0.1390      1.00000
     24      -0.0651      1.00000
     25      -0.0651      1.00000
     26      -0.0295      1.00000
     27       0.8319      1.00000
     28       0.8665      1.00000
     29       0.9415      1.00000
     30       1.2364      1.00000
     31       1.3108      1.00000
     32       1.3108      1.00000
     33       1.4157      1.00000
     34       3.3823      1.00000
     35       3.3823      1.00000
     36       3.4253      1.00000
     37       4.5958      0.00000
     38       6.5138      0.00000
     39       6.7148      0.00000
     40       8.5526      0.00000
     41       8.5526      0.00000
     42       9.3060      0.00000
     43       9.6214      0.00000
     44       9.6214      0.00000
     45       9.8795      0.00000
     46      10.1479      0.00000
     47      10.8991      0.00000
     48      10.8991      0.00000


--------------------------------------------------------------------------------------------------------


 soft charge-density along one line, spin component           1
         0         1         2         3         4         5         6         7         8         9
 total charge-density along one line
 
 soft charge-density along one line, spin component           2
         0         1         2         3         4         5         6         7         8         9
 total charge-density along one line
 
 pseudopotential strength for first ion, spin component:           1
-10.719  -0.008   0.001  -0.007  -0.001   1.415   0.005  -0.001
 -0.008 -10.732  -0.008  -0.006   0.004   0.005   1.423   0.004
  0.001  -0.008 -10.731  -0.006  -0.000  -0.001   0.004   1.423
 -0.007  -0.006  -0.006 -10.730  -0.001   0.004   0.003   0.004
 -0.001   0.004  -0.000  -0.001 -10.723   0.001  -0.003   0.000
  1.415   0.005  -0.001   0.004   0.001   5.976  -0.002   0.001
  0.005   1.423   0.004   0.003  -0.003  -0.002   5.972  -0.002
 -0.001   0.004   1.423   0.004   0.000   0.001  -0.002   5.972
  0.004   0.003   0.004   1.422   0.001  -0.002  -0.001  -0.001
  0.001  -0.003   0.000   0.001   1.417  -0.000   0.002  -0.000
 -0.000  -0.000  -0.000  -0.000   0.000   0.000   0.001   0.001
 -0.000  -0.001  -0.001  -0.001   0.000   0.000   0.001   0.001
  0.003  -0.002  -0.002   0.002   0.001  -0.004   0.002   0.002
  0.002  -0.002   0.003  -0.002  -0.000  -0.002   0.002  -0.004
  0.002   0.002  -0.002  -0.002  -0.002  -0.003  -0.002   0.002
  0.007  -0.003  -0.003   0.004   0.003  -0.008   0.004   0.004
  0.004  -0.004   0.007  -0.004  -0.001  -0.004   0.004  -0.007
  0.005   0.004  -0.004  -0.004  -0.005  -0.005  -0.004   0.004
 pseudopotential strength for first ion, spin component:           2
-10.719  -0.008   0.001  -0.007  -0.001   1.415   0.005  -0.001
 -0.008 -10.732  -0.008  -0.006   0.004   0.005   1.423   0.004
  0.001  -0.008 -10.731  -0.006  -0.000  -0.001   0.004   1.422
 -0.007  -0.006  -0.006 -10.730  -0.001   0.004   0.003   0.004
 -0.001   0.004  -0.000  -0.001 -10.723   0.001  -0.003   0.000
  1.415   0.005  -0.001   0.004   0.001   5.976  -0.002   0.001
  0.005   1.423   0.004   0.003  -0.003  -0.002   5.972  -0.002
 -0.001   0.004   1.422   0.004   0.000   0.001  -0.002   5.972
  0.004   0.003   0.004   1.422   0.001  -0.002  -0.001  -0.001
  0.001  -0.003   0.000   0.001   1.417  -0.000   0.002  -0.000
 -0.000  -0.000  -0.000  -0.000   0.000   0.000   0.001   0.001
 -0.000  -0.001  -0.001  -0.001   0.000   0.000   0.001   0.001
  0.003  -0.002  -0.002   0.002   0.001  -0.004   0.002   0.002
  0.002  -0.002   0.003  -0.002  -0.000  -0.002   0.002  -0.004
  0.002   0.002  -0.002  -0.002  -0.002  -0.003  -0.002   0.002
  0.007  -0.003  -0.003   0.004   0.003  -0.008   0.004   0.004
  0.004  -0.004   0.007  -0.004  -0.001  -0.004   0.004  -0.007
  0.005   0.004  -0.004  -0.004  -0.005  -0.005  -0.004   0.004
 total augmentation occupancy for first ion, spin component:           1
  1.992  -0.000  -0.000  -0.000   0.000  -0.005  -0.002  -0.001  -0.001  -0.000  -0.013   0.011   0.105   0.057   0.069  -0.057
 -0.000   1.991  -0.000  -0.000  -0.000  -0.002  -0.009  -0.002  -0.001  -0.002  -0.030   0.024  -0.050  -0.059   0.061   0.027
 -0.000  -0.000   1.992  -0.000   0.000  -0.001  -0.002  -0.007  -0.002   0.000  -0.023   0.019  -0.053   0.103  -0.053   0.029
 -0.000  -0.000  -0.000   1.992   0.000  -0.001  -0.001  -0.002  -0.008   0.003  -0.024   0.020   0.061  -0.060  -0.069  -0.033
  0.000  -0.000   0.000   0.000   1.991  -0.000  -0.002   0.000   0.003  -0.010   0.002  -0.002   0.041  -0.008  -0.076  -0.022
 -0.005  -0.002  -0.001  -0.001  -0.000   0.049  -0.010  -0.006  -0.005  -0.003  -0.006   0.004   0.195   0.113   0.133  -0.051
 -0.002  -0.009  -0.002  -0.001  -0.002  -0.010   0.029  -0.014  -0.008  -0.010  -0.014   0.010  -0.096  -0.109   0.110   0.025
 -0.001  -0.002  -0.007  -0.002   0.000  -0.006  -0.014   0.041  -0.012   0.002  -0.011   0.008  -0.093   0.192  -0.100   0.024
 -0.001  -0.001  -0.002  -0.008   0.003  -0.005  -0.008  -0.012   0.034   0.014  -0.011   0.008   0.110  -0.116  -0.125  -0.029
 -0.000  -0.002   0.000   0.003  -0.010  -0.003  -0.010   0.002   0.014   0.028   0.001  -0.001   0.078  -0.015  -0.137  -0.021
 -0.013  -0.030  -0.023  -0.024   0.002  -0.006  -0.014  -0.011  -0.011   0.001  16.418  -9.363  -0.000   0.000   0.000   0.000
  0.011   0.024   0.019   0.020  -0.002   0.004   0.010   0.008   0.008  -0.001  -9.363   5.386   0.000  -0.000  -0.000  -0.000
  0.105  -0.050  -0.053   0.061   0.041   0.195  -0.096  -0.093   0.110   0.078  -0.000   0.000   3.141  -0.187  -0.083  -0.850
  0.057  -0.059   0.103  -0.060  -0.008   0.113  -0.109   0.192  -0.116  -0.015   0.000  -0.000  -0.187   2.900  -0.153   0.046
  0.069   0.061  -0.053  -0.069  -0.076   0.133   0.110  -0.100  -0.125  -0.137   0.000  -0.000  -0.083  -0.153   3.175   0.020
 -0.057   0.027   0.029  -0.033  -0.022  -0.051   0.025   0.024  -0.029  -0.021   0.000  -0.000  -0.850   0.046   0.020   0.235
 -0.032   0.032  -0.056   0.033   0.005  -0.030   0.028  -0.050   0.031   0.004  -0.000   0.000   0.046  -0.791   0.037  -0.011
 -0.038  -0.033   0.029   0.037   0.041  -0.035  -0.029   0.027   0.032   0.035  -0.000   0.000   0.020   0.037  -0.858  -0.005
 total augmentation occupancy for first ion, spin component:           2
 -0.000   0.000   0.000   0.000   0.000  -0.000   0.000   0.000   0.000   0.000  -0.000   0.000   0.000   0.000   0.000  -0.000
  0.000  -0.000   0.000   0.000   0.000   0.000  -0.000   0.000   0.000   0.000  -0.000   0.000  -0.000  -0.000   0.000   0.000
  0.000   0.000  -0.000   0.000  -0.000   0.000   0.000  -0.000   0.000  -0.000  -0.000   0.000  -0.000   0.000  -0.000   0.000
  0.000   0.000   0.000  -0.000  -0.000   0.000  -0.000   0.000  -0.000  -0.000  -0.000   0.000   0.000  -0.000  -0.000  -0.000
  0.000   0.000  -0.000  -0.000  -0.000   0.000   0.000  -0.000  -0.000  -0.000   0.000  -0.000   0.000  -0.000  -0.000  -0.000
 -0.000   0.000   0.000   0.000   0.000   0.000   0.000  -0.000   0.000   0.000  -0.000  -0.000   0.000  -0.000   0.000  -0.000
  0.000  -0.000   0.000  -0.000   0.000   0.000   0.000  -0.000  -0.000  -0.000  -0.000   0.000  -0.000  -0.000   0.000   0.000
  0.000   0.000  -0.000   0.000  -0.000  -0.000  -0.000   0.000  -0.000  -0.000   0.000   0.000  -0.000   0.000  -0.000   0.000
  0.000   0.000   0.000  -0.000  -0.000   0.000  -0.000  -0.000   0.000  -0.000   0.000   0.000   0.000  -0.000  -0.000  -0.000
  0.000   0.000  -0.000  -0.000  -0.000   0.000  -0.000  -0.000  -0.000   0.000   0.000   0.000   0.000  -0.000  -0.000  -0.000
 -0.000  -0.000  -0.000  -0.000   0.000  -0.000  -0.000   0.000   0.000   0.000  -0.000   0.000  -0.000   0.000  -0.000   0.000
  0.000   0.000   0.000   0.000  -0.000  -0.000   0.000   0.000   0.000   0.000   0.000  -0.000  -0.000  -0.000   0.000   0.000
  0.000  -0.000  -0.000   0.000   0.000   0.000  -0.000  -0.000   0.000   0.000  -0.000  -0.000  -0.000  -0.000  -0.000  -0.000
  0.000  -0.000   0.000  -0.000  -0.000  -0.000  -0.000   0.000  -0.000  -0.000   0.000  -0.000  -0.000   0.000   0.000  -0.000
  0.000   0.000  -0.000  -0.000  -0.000   0.000   0.000  -0.000  -0.000  -0.000  -0.000   0.000  -0.000   0.000   0.000   0.000
 -0.000   0.000   0.000  -0.000  -0.000  -0.000   0.000   0.000  -0.000  -0.000   0.000   0.000  -0.000  -0.000   0.000   0.000
 -0.000   0.000  -0.000   0.000   0.000  -0.000   0.000  -0.000   0.000   0.000   0.000  -0.000  -0.000  -0.000  -0.000   0.000
 -0.000  -0.000   0.000   0.000   0.000  -0.000  -0.000   0.000   0.000   0.000   0.000   0.000   0.000  -0.000  -0.000  -0.000


------------------------ aborting loop because EDIFF is reached ----------------------------------------





 total charge

# of ion       s       p       d       tot
------------------------------------------
    1        0.813   0.628   9.940  11.381
    2        0.813   0.628   9.940  11.381
    3        0.304   0.313   9.383  10.001
    4        0.304   0.313   9.383  10.001
    5        1.423   2.491   0.037   3.950
    6        1.423   2.491   0.037   3.950
    7        1.423   2.491   0.037   3.950
    8        1.423   2.491   0.037   3.950
--------------------------------------------------
tot          7.925  11.845  38.794  58.565



 magnetization (x)

# of ion       s       p       d       tot
------------------------------------------
    1       -0.000   0.000  -0.000  -0.000
    2       -0.000   0.000  -0.000  -0.000
    3       -0.000   0.000  -0.000  -0.000
    4       -0.000   0.000  -0.000  -0.000
    5       -0.000  -0.000  -0.000  -0.000
    6       -0.000  -0.000  -0.000  -0.000
    7       -0.000  -0.000  -0.000  -0.000
    8       -0.000  -0.000  -0.000  -0.000
--------------------------------------------------
tot         -0.000  -0.000  -0.000  -0.000
 
    CHARGE:  cpu time      0.0065: real time      0.0065
    FORLOC:  cpu time      0.0010: real time      0.0011
    FORHF :  cpu time      0.0655: real time      0.0663
    FORNL :  cpu time      0.0155: real time      0.0155
    FORCOR:  cpu time      1.0140: real time      1.0168
    FORHAR:  cpu time      0.0047: real time      0.0054
    MIXING:  cpu time      0.0007: real time      0.0007
    OFIELD:  cpu time      0.0007: real time      0.0009

 VOLUME and BASIS-vectors are now :
 -----------------------------------------------------------------------------
  energy-cutoff  :      680.00
  volume of cell :      196.49
      direct lattice vectors                 reciprocal lattice vectors
     5.302919200  0.000000000 -2.364029390     0.188575379  0.038239427  0.000000000
    -1.053879568  5.197142179 -2.364029719     0.000000000  0.192413439  0.000000000
     0.000000000  0.000000000  7.129686600     0.062526975  0.076478848  0.140258620

  length of vectors
     5.805995780  5.805995650  7.129686600     0.192413429  0.192413439  0.171554998


 FORCES acting on ions
    electron-ion (+dipol)            ewald-force                    non-local-force                 convergence-correction
 -----------------------------------------------------------------------------------------------
   -.226E-04 -.452E-04 -.102E-03   -.721E-05 0.183E-04 -.323E-04   0.762E-22 -.792E-22 -.189E-20   -.411E-04 -.706E-05 0.129E-05
   0.237E-04 -.514E-04 0.896E-04   -.117E-04 0.185E-04 -.315E-04   -.352E-22 -.917E-21 -.861E-22   -.689E-04 -.316E-04 -.245E-04
   -.130E-04 0.656E-06 0.307E-04   -.132E-04 0.197E-04 -.336E-04   -.197E-21 0.286E-21 0.143E-20   0.214E-04 0.324E-05 0.589E-04
   -.751E-06 0.214E-04 0.103E-03   -.702E-05 0.196E-04 -.347E-04   -.208E-21 -.241E-21 -.302E-20   0.123E-04 0.645E-05 0.402E-04
   -.503E+01 0.125E-03 0.224E+01   0.229E+01 -.183E-04 -.102E+01   0.287E+01 -.216E-21 -.128E+01   -.223E-03 -.888E-04 0.857E-04
   0.503E+01 -.611E-04 -.224E+01   -.229E+01 -.197E-04 0.102E+01   -.287E+01 0.115E-20 0.128E+01   0.179E-03 0.369E-04 -.174E-03
   -.100E+01 0.493E+01 -.224E+01   0.456E+00 -.225E+01 0.102E+01   0.571E+00 -.281E+01 0.128E+01   -.786E-04 0.240E-03 -.148E-04
   0.100E+01 -.493E+01 0.224E+01   -.456E+00 0.225E+01 -.102E+01   -.571E+00 0.281E+01 -.128E+01   0.115E-03 -.192E-03 0.121E-03
 -----------------------------------------------------------------------------------------------
   -.667E-04 -.901E-04 -.116E-03   0.339E-14 -.178E-13 0.000E+00   0.000E+00 0.000E+00 0.000E+00   -.838E-04 -.327E-04 0.940E-04
 
 
 POSITION                                       TOTAL-FORCE (eV/Angst)
 -----------------------------------------------------------------------------------
      2.12452      2.59857     -2.36403        -0.000000     -0.000000      0.000000
      3.71372      1.29929      1.20081        -0.000000      0.000000      0.000000
      0.00000      0.00000      0.00000        -0.000000     -0.000000      0.000000
      0.53532      3.89786      1.20081        -0.000000      0.000000      0.000000
      1.43516      1.94893      0.07994         0.555527      0.000000     -0.247653
      3.87614      4.54750     -2.42517        -0.555527      0.000000      0.247653
     -0.02726      3.40329      3.50370         0.110403     -0.544446      0.247653
      3.21404      0.49457      3.64478        -0.110403      0.544446     -0.247653
 -----------------------------------------------------------------------------------
    total drift:                               -0.000151     -0.000123     -0.000022


--------------------------------------------------------------------------------------------------------



  FREE ENERGIE OF THE ION-ELECTRON SYSTEM (eV)
  ---------------------------------------------------
  free  energy   TOTEN  =       -35.23076641 eV

  energy  without entropy=      -35.23076641  energy(sigma->0) =      -35.23076641
 


--------------------------------------------------------------------------------------------------------


    POTLOK:  cpu time      0.9949: real time      0.9977


--------------------------------------------------------------------------------------------------------


 writing wavefunctions
     LOOP+:  cpu time     22.3168: real time     24.0440
    4ORBIT:  cpu time      0.0000: real time      0.0000



 total charge

# of ion       s       p       d       tot
------------------------------------------
    1        0.813   0.628   9.940  11.381
    2        0.813   0.628   9.940  11.381
    3        0.304   0.313   9.383  10.001
    4        0.304   0.313   9.383  10.001
    5        1.423   2.491   0.037   3.950
    6        1.423   2.491   0.037   3.950
    7        1.423   2.491   0.037   3.950
    8        1.423   2.491   0.037   3.950
--------------------------------------------------
tot          7.925  11.845  38.794  58.565



 magnetization (x)

# of ion       s       p       d       tot
------------------------------------------
    1       -0.000   0.000  -0.000  -0.000
    2       -0.000   0.000  -0.000  -0.000
    3       -0.000   0.000  -0.000  -0.000
    4       -0.000   0.000  -0.000  -0.000
    5       -0.000  -0.000  -0.000  -0.000
    6       -0.000  -0.000  -0.000  -0.000
    7       -0.000  -0.000  -0.000  -0.000
    8       -0.000  -0.000  -0.000  -0.000
--------------------------------------------------
tot         -0.000  -0.000  -0.000  -0.000
 

 total amount of memory used by VASP MPI-rank0    40778. kBytes
=======================================================================

   base      :      30000. kBytes
   nonl-proj :        443. kBytes
   fftplans  :       1088. kBytes
   grid      :       2428. kBytes
   one-center:         31. kBytes
   HF        :         64. kBytes
   nonlr-proj:       1238. kBytes
   wavefun   :        104. kBytes
   fock_wrk  :       5382. kBytes
 
  
  
 General timing and accounting informations for this job:
 ========================================================
  
                  Total CPU time used (sec):       40.261
                            User time (sec):       36.083
                          System time (sec):        4.179
                         Elapsed time (sec):       47.521
  
                   Maximum memory used (kb):      293912.
                   Average memory used (kb):          N/A
  
                          Minor page faults:        39332
                          Major page faults:            0
                 Voluntary context switches:         9693
