<?xml version="1.0" encoding="ISO-8859-1"?>
<modeling>
 <generator>
  <i name="program" type="string">vasp </i>
  <i name="version" type="string">6.4.2  </i>
  <i name="subversion" type="string">20Jul23 (build Mar 15 2024 16:31:38) complex                          parallel </i>
  <i name="platform" type="string">LinuxIFC </i>
  <i name="date" type="string">2025 03 26 </i>
  <i name="time" type="string">17:54:31 </i>
 </generator>
 <incar>
  <i type="string" name="PREC">Accurate</i>
  <i type="string" name="ALGO">Normal</i>
  <i type="int" name="ISPIN">     2</i>
  <i type="int" name="NELM">   200</i>
  <i name="EDIFF">      0.00001000</i>
  <i type="int" name="NSW">     0</i>
  <i name="ENCUT">    680.00000000</i>
  <i name="ENAUG">   1360.00000000</i>
  <v name="MAGMOM">      0.60000000      0.60000000      0.60000000      0.60000000      0.60000000      0.60000000      0.60000000      0.60000000</v>
  <i type="logical" name="LREAL"> F  </i>
  <i type="int" name="ISMEAR">     0</i>
  <i name="SIGMA">      0.01000000</i>
  <i type="int" name="LMAXMIX">     4</i>
  <i type="logical" name="LWAVE"> T  </i>
  <i type="logical" name="LCHARG"> T  </i>
  <i type="logical" name="LVTOT"> T  </i>
  <i type="int" name="LORBIT">    11</i>
  <i type="logical" name="LELF"> F  </i>
  <i type="logical" name="LASPH"> T  </i>
  <i type="logical" name="LAECHG"> T  </i>
  <i name="HFSCREEN">      0.20000000</i>
  <i type="logical" name="LHFCALC"> T  </i>
  <i type="string" name="GGA">Pe</i>
  <i type="string" name="PRECFOCK">Fast</i>
  <i type="logical" name="LDAU"> F  </i>
  <i type="logical" name="LMIXTAU"> T  </i>
 </incar>
 <primitive_cell>
  <structure name="primitive_cell" >
   <crystal>
    <varray name="basis" >
     <v>       5.30291920       0.00000000      -2.36402939 </v>
     <v>      -1.05387957       5.19714218      -2.36402972 </v>
     <v>       0.00000000       0.00000000       7.12968660 </v>
    </varray>
    <i name="volume">    196.49434127 </i>
    <varray name="rec_basis" >
     <v>       0.18857538       0.03823943       0.00000000 </v>
     <v>       0.00000000       0.19241344       0.00000000 </v>
     <v>       0.06252698       0.07647885       0.14025862 </v>
    </varray>
   </crystal>
   <varray name="positions" >
    <v>       0.50000000       0.50000000       1.00000000 </v>
    <v>       0.75000000       0.25000000       0.50000000 </v>
    <v>       0.00000000       0.00000000       0.00000000 </v>
    <v>       0.25000000       0.75000000       0.50000000 </v>
    <v>       0.34516103       0.37500000       0.25000000 </v>
    <v>       0.90483897       0.87500000       0.25000000 </v>
    <v>       0.12500000       0.65483897       0.75000000 </v>
    <v>       0.62500000       0.09516103       0.75000000 </v>
   </varray>
  </structure>
  <varray name="primitive_index" >
   <v type="int" >        1 </v>
   <v type="int" >        2 </v>
   <v type="int" >        3 </v>
   <v type="int" >        4 </v>
   <v type="int" >        5 </v>
   <v type="int" >        6 </v>
   <v type="int" >        7 </v>
   <v type="int" >        8 </v>
  </varray>
 </primitive_cell>
 <kpoints>
  <varray name="kpointlist" >
   <v>       0.00000000       0.00000000       0.00000000 </v>
  </varray>
  <varray name="weights" >
   <v>       1.00000000 </v>
  </varray>
 </kpoints>
 <parameters>
  <separator name="general" >
   <i type="string" name="SYSTEM">unknown system</i>
   <i type="logical" name="LCOMPAT"> F  </i>
  </separator>
  <separator name="electronic" >
   <i type="string" name="PREC">accura</i>
   <i name="ENMAX">    680.00000000</i>
   <i name="ENAUG">   1360.00000000</i>
   <i name="EDIFF">      0.00001000</i>
   <i type="int" name="IALGO">    38</i>
   <i type="int" name="IWAVPR">    10</i>
   <i type="int" name="NBANDS">    48</i>
   <i type="int" name="NBANDSLOW">    -1</i>
   <i type="int" name="NBANDSHIGH">    -1</i>
   <i name="NELECT">     72.00000000</i>
   <i type="int" name="TURBO">     0</i>
   <i type="int" name="IRESTART">     0</i>
   <i type="int" name="NREBOOT">     0</i>
   <i type="int" name="NMIN">     0</i>
   <i name="EREF">      0.00000000</i>
   <separator name="electronic smearing" >
    <i type="int" name="ISMEAR">     0</i>
    <i name="SIGMA">      0.01000000</i>
    <i name="KSPACING">      0.50000000</i>
    <i type="logical" name="KGAMMA"> T  </i>
    <i type="logical" name="KBLOWUP"> T  </i>
   </separator>
   <separator name="electronic projectors" >
    <i type="logical" name="LREAL"> F  </i>
    <v name="ROPT">      0.00000000      0.00000000      0.00000000</v>
    <i type="int" name="LMAXPAW">  -100</i>
    <i type="int" name="LMAXMIX">     4</i>
    <i type="logical" name="NLSPLINE"> F  </i>
   </separator>
   <separator name="electronic startup" >
    <i type="int" name="ISTART">     0</i>
    <i type="int" name="ICHARG">     2</i>
    <i type="int" name="INIWAV">     1</i>
   </separator>
   <separator name="electronic spin" >
    <i type="int" name="ISPIN">     2</i>
    <i type="logical" name="LNONCOLLINEAR"> F  </i>
    <v name="MAGMOM">      0.60000000      0.60000000      0.60000000      0.60000000      0.60000000      0.60000000      0.60000000      0.60000000</v>
    <i name="NUPDOWN">     -1.00000000</i>
    <i type="logical" name="LSORBIT"> F  </i>
    <v name="SAXIS">      0.00000000      0.00000000      1.00000000</v>
    <i type="logical" name="LSPIRAL"> F  </i>
    <v name="QSPIRAL">      0.00000000      0.00000000      0.00000000</v>
    <i type="logical" name="LZEROZ"> F  </i>
   </separator>
   <separator name="electronic exchange-correlation" >
    <i type="logical" name="LASPH"> T  </i>
    <i type="logical" name="LMETAGGA"> F  </i>
   </separator>
   <separator name="electronic convergence" >
    <i type="int" name="NELM">   200</i>
    <i type="int" name="NELMDL">    -5</i>
    <i type="int" name="NELMIN">     2</i>
    <i name="ENINI">    680.00000000</i>
    <separator name="electronic convergence detail" >
     <i type="logical" name="LDIAG"> T  </i>
     <i type="logical" name="LSUBROT"> F  </i>
     <i name="WEIMIN">      0.00000000</i>
     <i name="EBREAK">      0.00000005</i>
     <i name="DEPER">      0.30000000</i>
     <i type="int" name="NRMM">     4</i>
     <i name="TIME">      0.40000000</i>
    </separator>
   </separator>
   <separator name="electronic mixer" >
    <i name="AMIX">      0.40000000</i>
    <i name="BMIX">      1.00000000</i>
    <i name="AMIN">      0.10000000</i>
    <i name="AMIX_MAG">      1.60000000</i>
    <i name="BMIX_MAG">      1.00000000</i>
    <separator name="electronic mixer details" >
     <i type="int" name="IMIX">     1</i>
     <i type="logical" name="MIXFIRST"> F  </i>
     <i type="int" name="MAXMIX">   -45</i>
     <i name="WC">    100.00000000</i>
     <i type="int" name="INIMIX">     1</i>
     <i type="int" name="MIXPRE">     1</i>
     <i type="int" name="MREMOVE">     5</i>
    </separator>
   </separator>
   <separator name="electronic dipolcorrection" >
    <i type="logical" name="LDIPOL"> F  </i>
    <i type="logical" name="LMONO"> F  </i>
    <i type="int" name="IDIPOL">     0</i>
    <i name="EPSILON">      1.00000000</i>
    <v name="DIPOL">   -100.00000000   -100.00000000   -100.00000000</v>
    <i name="EFIELD">      0.00000000</i>
   </separator>
  </separator>
  <separator name="grids" >
   <i type="int" name="NGX">    50</i>
   <i type="int" name="NGY">    50</i>
   <i type="int" name="NGZ">    64</i>
   <i type="int" name="NGXF">   100</i>
   <i type="int" name="NGYF">   100</i>
   <i type="int" name="NGZF">   128</i>
   <i type="logical" name="ADDGRID"> F  </i>
  </separator>
  <separator name="ionic" >
   <i type="int" name="NSW">     0</i>
   <i type="int" name="IBRION">    -1</i>
   <i type="int" name="MDALGO">     0</i>
   <i type="int" name="ISIF">     0</i>
   <i name="PSTRESS">      0.00000000</i>
   <i name="EDIFFG">      0.00010000</i>
   <i type="int" name="NFREE">     0</i>
   <i name="POTIM">      0.50000000</i>
   <i name="SMASS">     -3.00000000</i>
   <i name="SCALEE">      1.00000000</i>
  </separator>
  <separator name="ionic md" >
   <i name="TEBEG">      0.00010000</i>
   <i name="TEEND">      0.00010000</i>
   <i type="int" name="NBLOCK">     1</i>
   <i type="int" name="KBLOCK">     1</i>
   <i type="int" name="NPACO">   256</i>
   <i name="APACO">     10.00000000</i>
  </separator>
  <separator name="symmetry" >
   <i type="int" name="ISYM">     3</i>
   <i name="SYMPREC">      0.00001000</i>
  </separator>
  <separator name="dos" >
   <i type="int" name="LORBIT">    11</i>
   <v name="RWIGS">     -1.00000000     -1.00000000     -1.00000000</v>
   <i type="int" name="NEDOS">   301</i>
   <i name="EMIN">     10.00000000</i>
   <i name="EMAX">    -10.00000000</i>
   <i name="EFERMI">      0.00000000</i>
  </separator>
  <separator name="writing" >
   <i type="int" name="NWRITE">     2</i>
   <i type="logical" name="LWAVE"> T  </i>
   <i type="logical" name="LDOWNSAMPLE"> F  </i>
   <i type="logical" name="LCHARG"> T  </i>
   <i type="logical" name="LPARD"> F  </i>
   <i type="logical" name="LVTOT"> T  </i>
   <i type="logical" name="LVHAR"> F  </i>
   <i type="logical" name="LELF"> F  </i>
   <i type="logical" name="LOPTICS"> F  </i>
   <v name="STM">      0.00000000      0.00000000      0.00000000      0.00000000      0.00000000      0.00000000      0.00000000</v>
  </separator>
  <separator name="performance" >
   <i type="int" name="NPAR">    12</i>
   <i type="int" name="NSIM">     4</i>
   <i type="int" name="NBLK">    -1</i>
   <i type="logical" name="LPLANE"> T  </i>
   <i type="logical" name="LSCALAPACK"> T  </i>
   <i type="logical" name="LSCAAWARE"> F  </i>
   <i type="logical" name="LSCALU"> F  </i>
   <i type="logical" name="LASYNC"> F  </i>
   <i type="logical" name="LORBITALREAL"> F  </i>
  </separator>
  <separator name="miscellaneous" >
   <i type="int" name="IDIOT">     3</i>
   <i type="int" name="PHON_NSTRUCT">    -1</i>
   <i type="logical" name="LMUSIC"> F  </i>
   <v name="POMASS">    114.82000000     63.54600000     78.96000000</v>
   <v name="DARWINR">      0.00000000      0.00000000      0.00000000</v>
   <v name="DARWINV">      1.00000000      1.00000000      1.00000000</v>
   <i type="logical" name="LCORR"> T  </i>
  </separator>
  <i type="logical" name="GGA_COMPAT"> T  </i>
  <i type="logical" name="LBERRY"> F  </i>
  <i type="int" name="ICORELEVEL">     0</i>
  <i type="logical" name="LDAU"> F  </i>
  <i type="int" name="I_CONSTRAINED_M">     0</i>
  <separator name="electronic exchange-correlation" >
   <i type="string" name="GGA">PE</i>
   <i type="int" name="VOSKOWN">     0</i>
   <i type="logical" name="LHFCALC"> T  </i>
   <i type="string" name="PRECFOCK">fast</i>
   <i type="logical" name="LSYMGRAD"> F  </i>
   <i type="logical" name="LHFONE"> F  </i>
   <i type="logical" name="LRHFCALC"> F  </i>
   <i type="logical" name="LTHOMAS"> F  </i>
   <i type="logical" name="LMODELHF"> F  </i>
   <i type="logical" name="LFOCKACE"> T  </i>
   <i name="ENCUT4O">     -1.00000000</i>
   <i type="int" name="EXXOEP">     0</i>
   <i type="int" name="FOURORBIT">     0</i>
   <i name="AEXX">      0.25000000</i>
   <i name="HFALPHA">     -1.00000000</i>
   <i name="MCALPHA">      0.00000000</i>
   <i name="ALDAX">      0.75000000</i>
   <i name="AGGAX">      0.75000000</i>
   <i name="ALDAC">      1.00000000</i>
   <i name="AGGAC">      1.00000000</i>
   <i type="int" name="NKREDX">     1</i>
   <i type="int" name="NKREDY">     1</i>
   <i type="int" name="NKREDZ">     1</i>
   <i type="logical" name="SHIFTRED"> F  </i>
   <i type="logical" name="ODDONLY"> F  </i>
   <i type="logical" name="EVENONLY"> F  </i>
   <i type="int" name="LMAXFOCK">     4</i>
   <i type="int" name="NMAXFOCKAE">     1</i>
   <i type="logical" name="LFOCKAEDFT"> F  </i>
   <i name="HFSCREEN">      0.20000000</i>
   <i name="HFSCREENC">      0.20000000</i>
   <i type="int" name="NBANDSGWLOW">     1</i>
  </separator>
  <separator name="vdW DFT" >
   <i type="logical" name="LUSE_VDW"> F  </i>
   <i type="int" name="IVDW_NL">     1</i>
   <i type="logical" name="LSPIN_VDW"> F  </i>
   <i name="Zab_VDW">     -0.84910000</i>
   <i name="PARAM1">      0.12340000</i>
   <i name="PARAM2">      1.00000000</i>
   <i name="PARAM3">      0.00000000</i>
  </separator>
  <separator name="model GW" >
   <i type="int" name="MODEL_GW">     0</i>
   <i name="MODEL_EPS0">     14.73707560</i>
   <i name="MODEL_ALPHA">      1.00000000</i>
  </separator>
  <separator name="linear response parameters" >
   <i type="logical" name="LEPSILON"> F  </i>
   <i type="logical" name="LRPA"> F  </i>
   <i type="logical" name="LNABLA"> F  </i>
   <i type="logical" name="LVEL"> F  </i>
   <i name="CSHIFT">      0.10000000</i>
   <i name="OMEGAMAX">     -1.00000000</i>
   <i name="DEG_THRESHOLD">      0.00200000</i>
   <i name="RTIME">     -0.10000000</i>
   <i name="WPLASMAI">      0.00000000</i>
   <v name="DFIELD">      0.00000000      0.00000000      0.00000000</v>
   <v name="WPLASMA">      0.00000000      0.00000000      0.00000000      0.00000000      0.00000000      0.00000000      0.00000000      0.00000000      0.00000000</v>
  </separator>
  <separator name="orbital magnetization" >
   <i type="logical" name="NUCIND"> F  </i>
   <v name="MAGPOS">      0.00000000      0.00000000      0.00000000</v>
   <i type="logical" name="LNICSALL"> T  </i>
   <i type="logical" name="ORBITALMAG"> F  </i>
   <i type="logical" name="LMAGBLOCH"> F  </i>
   <i type="logical" name="LCHIMAG"> F  </i>
   <i type="logical" name="LGAUGE"> T  </i>
   <i type="int" name="MAGATOM">     0</i>
   <v name="MAGDIPOL">      0.00000000      0.00000000      0.00000000</v>
   <v name="AVECCONST">      0.00000000      0.00000000      0.00000000</v>
  </separator>
  <separator name="response functions" >
   <i type="logical" name="LALL_IN_ONE"> F  </i>
   <i type="int" name="IALL_IN_ONE">    -1</i>
   <i type="int" name="NBANDS_WAVE">    -1</i>
   <i type="logical" name="LFINITE_TEMPERATURE"> F  </i>
   <i type="logical" name="LADDER"> F  </i>
   <i type="logical" name="LRPAFORCE"> F  </i>
   <i type="logical" name="LFXC"> F  </i>
   <i type="logical" name="LHARTREE"> T  </i>
   <i type="int" name="IBSE">     0</i>
   <v type="int" name="KPOINT">    -1     0     0     0</v>
   <i type="logical" name="LTCTC"> F  </i>
   <i type="logical" name="LTCTE"> F  </i>
   <i type="logical" name="LTETE"> F  </i>
   <i type="logical" name="LTRIPLET"> F  </i>
   <i type="logical" name="LFXCEPS"> F  </i>
   <i type="logical" name="LFXHEG"> F  </i>
   <i type="int" name="NATURALO">     2</i>
   <i type="logical" name="LHOLEGF"> F  </i>
   <i type="logical" name="L2ORDER"> F  </i>
   <i type="logical" name="LDMP1"> F  </i>
   <i type="logical" name="LMP2LT"> F  </i>
   <i type="logical" name="LSMP2LT"> F  </i>
   <i type="logical" name="LGWLF"> F  </i>
   <i name="ENCUTGW">     -1.60000002</i>
   <i name="ENCUTGWSOFT">     -1.60000002</i>
   <i name="ENCUTLF">     -1.00000000</i>
   <i type="logical" name="LESF_SPLINES"> F  </i>
   <i type="int" name="LMAXMP2">    -1</i>
   <i name="SCISSOR">      0.00000000</i>
   <i type="int" name="NOMEGA">     0</i>
   <i type="int" name="NOMEGAR">     0</i>
   <i type="int" name="NBANDSGW">    -1</i>
   <i type="int" name="NBANDSO">    -1</i>
   <i type="int" name="NBANDSV">    -1</i>
   <i type="int" name="NELMGW">     1</i>
   <i type="int" name="NELMHF">     1</i>
   <i type="int" name="DIM">     3</i>
   <i type="int" name="IESPILON">     4</i>
   <i type="int" name="ANTIRES">     0</i>
   <i name="OMEGAMAX">    -30.00000000</i>
   <i name="OMEGAMIN">    -30.00000000</i>
   <i name="OMEGATL">   -200.00000000</i>
   <i type="int" name="OMEGAGRID">     0</i>
   <i name="CSHIFT">     -0.10000000</i>
   <i type="logical" name="LSELFENERGY"> F  </i>
   <i type="logical" name="LSPECTRAL"> F  </i>
   <i type="logical" name="LSPECTRALGW"> F  </i>
   <i type="logical" name="LSINGLES"> F  </i>
   <i type="logical" name="LFERMIGW"> F  </i>
   <i type="logical" name="ODDONLYGW"> F  </i>
   <i type="logical" name="EVENONLYGW"> F  </i>
   <i type="int" name="NKREDLFX">     1</i>
   <i type="int" name="NKREDLFY">     1</i>
   <i type="int" name="NKREDLFZ">     1</i>
   <i type="int" name="MAXMEM">  2800</i>
   <i type="int" name="TELESCOPE">     0</i>
   <i type="int" name="NTAUPAR">    -1</i>
   <i type="int" name="NOMEGAPAR">    -1</i>
   <i name="DAMP_NEWTON">      0.80000001</i>
   <i name="LAMBDA">      1.00000000</i>
  </separator>
  <separator name="External order field" >
   <i name="OFIELD_KAPPA">      0.00000000</i>
   <v name="OFIELD_K">      0.00000000      0.00000000      0.00000000</v>
   <i name="OFIELD_Q6_NEAR">      0.00000000</i>
   <i name="OFIELD_Q6_FAR">      0.00000000</i>
   <i name="OFIELD_A">      0.00000000</i>
  </separator>
  <separator name="optional k-points parameters" >
   <i type="int" name="KPOINTS_OPT_MODE">     1</i>
   <i type="logical" name="LKPOINTS_OPT"> F  </i>
  </separator>
 </parameters>
 <atominfo>
  <atoms>       8 </atoms>
  <types>       3 </types>
  <array name="atoms" >
   <dimension dim="1">ion</dimension>
   <field type="string">element</field>
   <field type="int">atomtype</field>
   <set>
    <rc><c>In</c><c>   1</c></rc>
    <rc><c>In</c><c>   1</c></rc>
    <rc><c>Cu</c><c>   2</c></rc>
    <rc><c>Cu</c><c>   2</c></rc>
    <rc><c>Se</c><c>   3</c></rc>
    <rc><c>Se</c><c>   3</c></rc>
    <rc><c>Se</c><c>   3</c></rc>
    <rc><c>Se</c><c>   3</c></rc>
   </set>
  </array>
  <array name="atomtypes" >
   <dimension dim="1">type</dimension>
   <field type="int">atomspertype</field>
   <field type="string">element</field>
   <field>mass</field>
   <field>valence</field>
   <field type="string">pseudopotential</field>
   <set>
    <rc><c>   2</c><c>In</c><c>    114.82000000</c><c>     13.00000000</c><c>  PAW_PBE In_d 06Sep2000                </c></rc>
    <rc><c>   2</c><c>Cu</c><c>     63.54600000</c><c>     11.00000000</c><c>  PAW_PBE Cu 22Jun2005                  </c></rc>
    <rc><c>   4</c><c>Se</c><c>     78.96000000</c><c>      6.00000000</c><c>  PAW_PBE Se 06Sep2000                  </c></rc>
   </set>
  </array>
 </atominfo>
 <structure name="initialpos" >
  <crystal>
   <varray name="basis" >
    <v>       5.30291920       0.00000000      -2.36402939 </v>
    <v>      -1.05387957       5.19714218      -2.36402972 </v>
    <v>       0.00000000       0.00000000       7.12968660 </v>
   </varray>
   <i name="volume">    196.49434127 </i>
   <varray name="rec_basis" >
    <v>       0.18857538       0.03823943       0.00000000 </v>
    <v>       0.00000000       0.19241344       0.00000000 </v>
    <v>       0.06252698       0.07647885       0.14025862 </v>
   </varray>
  </crystal>
  <varray name="positions" >
   <v>       0.50000000       0.50000000       0.00000000 </v>
   <v>       0.75000000       0.25000000       0.50000000 </v>
   <v>       0.00000000       0.00000000       0.00000000 </v>
   <v>       0.25000000       0.75000000       0.50000000 </v>
   <v>       0.34516103       0.37500000       0.25000000 </v>
   <v>       0.90483897       0.87500000       0.25000000 </v>
   <v>       0.12500000       0.65483897       0.75000000 </v>
   <v>       0.62500000       0.09516103       0.75000000 </v>
  </varray>
 </structure>
 <calculation>
  <scstep>
   <time name="dav">    0.33    1.40</time>
   <time name="total">    0.78    1.90</time>
   <energy>
    <i name="alphaZ">    185.64929911 </i>
    <i name="ewald">  -4678.36476469 </i>
    <i name="hartreedc">  -2345.03363423 </i>
    <i name="XCdc">    172.18262993 </i>
    <i name="pawpsdc">   6059.25548889 </i>
    <i name="pawaedc"> -11108.38758097 </i>
    <i name="eentropy">     -0.00000000 </i>
    <i name="bandstr">    375.08202498 </i>
    <i name="atom">   6950.95472638 </i>
    <i name="e_fr_energy">  -4388.66181060 </i>
    <i name="e_wo_entrp">  -4388.66181060 </i>
    <i name="e_0_energy">  -4388.66181060 </i>
   </energy>
  </scstep>
  <scstep>
   <time name="dav">    0.06    0.10</time>
   <time name="total">    0.06    0.10</time>
   <energy>
    <i name="e_fr_energy">  -5028.18407339 </i>
    <i name="e_wo_entrp">  -5028.18407339 </i>
    <i name="e_0_energy">  -5028.18407339 </i>
   </energy>
  </scstep>
  <scstep>
   <time name="dav">    0.05    0.17</time>
   <time name="total">    0.05    0.17</time>
   <energy>
    <i name="e_fr_energy">  -5127.26530196 </i>
    <i name="e_wo_entrp">  -5127.26530196 </i>
    <i name="e_0_energy">  -5127.26530196 </i>
   </energy>
  </scstep>
  <scstep>
   <time name="dav">    0.05    0.07</time>
   <time name="total">    0.05    0.07</time>
   <energy>
    <i name="e_fr_energy">  -5133.72515456 </i>
    <i name="e_wo_entrp">  -5133.72515456 </i>
    <i name="e_0_energy">  -5133.72515456 </i>
   </energy>
  </scstep>
  <scstep>
   <time name="dav">    0.24    0.33</time>
   <time name="total">    1.26    1.36</time>
   <energy>
    <i name="e_fr_energy">    -35.78682920 </i>
    <i name="e_wo_entrp">    -35.78682920 </i>
    <i name="e_0_energy">    -35.78682920 </i>
   </energy>
  </scstep>
  <scstep>
   <time name="dav">    0.15    0.15</time>
   <time name="total">    1.15    1.17</time>
   <energy>
    <i name="e_fr_energy">    -35.13568194 </i>
    <i name="e_wo_entrp">    -35.13568194 </i>
    <i name="e_0_energy">    -35.13568194 </i>
   </energy>
  </scstep>
  <scstep>
   <time name="dav">    0.14    0.14</time>
   <time name="total">    1.13    1.15</time>
   <energy>
    <i name="e_fr_energy">    -35.12803974 </i>
    <i name="e_wo_entrp">    -35.12803974 </i>
    <i name="e_0_energy">    -35.12803974 </i>
   </energy>
  </scstep>
  <scstep>
   <time name="dav">    0.13    0.13</time>
   <time name="total">    1.13    1.15</time>
   <energy>
    <i name="e_fr_energy">    -35.21270273 </i>
    <i name="e_wo_entrp">    -35.21270273 </i>
    <i name="e_0_energy">    -35.21270273 </i>
   </energy>
  </scstep>
  <scstep>
   <time name="dav">    0.13    0.13</time>
   <time name="total">    1.14    1.15</time>
   <energy>
    <i name="e_fr_energy">    -35.22368402 </i>
    <i name="e_wo_entrp">    -35.22368402 </i>
    <i name="e_0_energy">    -35.22368402 </i>
   </energy>
  </scstep>
  <scstep>
   <time name="dav">    0.13    0.13</time>
   <time name="total">    1.13    1.15</time>
   <energy>
    <i name="e_fr_energy">    -35.22654561 </i>
    <i name="e_wo_entrp">    -35.22654561 </i>
    <i name="e_0_energy">    -35.22654561 </i>
   </energy>
  </scstep>
  <scstep>
   <time name="dav">    0.13    0.13</time>
   <time name="total">    1.12    1.14</time>
   <energy>
    <i name="e_fr_energy">    -35.22888063 </i>
    <i name="e_wo_entrp">    -35.22888063 </i>
    <i name="e_0_energy">    -35.22888063 </i>
   </energy>
  </scstep>
  <scstep>
   <time name="dav">    0.13    0.13</time>
   <time name="total">    1.12    1.14</time>
   <energy>
    <i name="e_fr_energy">    -35.22990308 </i>
    <i name="e_wo_entrp">    -35.22990308 </i>
    <i name="e_0_energy">    -35.22990308 </i>
   </energy>
  </scstep>
  <scstep>
   <time name="dav">    0.13    0.14</time>
   <time name="total">    1.13    1.15</time>
   <energy>
    <i name="e_fr_energy">    -35.23035449 </i>
    <i name="e_wo_entrp">    -35.23035449 </i>
    <i name="e_0_energy">    -35.23035449 </i>
   </energy>
  </scstep>
  <scstep>
   <time name="dav">    0.13    0.13</time>
   <time name="total">    1.13    1.15</time>
   <energy>
    <i name="e_fr_energy">    -35.23056633 </i>
    <i name="e_wo_entrp">    -35.23056633 </i>
    <i name="e_0_energy">    -35.23056633 </i>
   </energy>
  </scstep>
  <scstep>
   <time name="dav">    0.13    0.13</time>
   <time name="total">    1.13    1.15</time>
   <energy>
    <i name="e_fr_energy">    -35.23067111 </i>
    <i name="e_wo_entrp">    -35.23067111 </i>
    <i name="e_0_energy">    -35.23067111 </i>
   </energy>
  </scstep>
  <scstep>
   <time name="dav">    0.14    0.14</time>
   <time name="total">    1.14    1.15</time>
   <energy>
    <i name="e_fr_energy">    -35.23072263 </i>
    <i name="e_wo_entrp">    -35.23072263 </i>
    <i name="e_0_energy">    -35.23072263 </i>
   </energy>
  </scstep>
  <scstep>
   <time name="dav">    0.12    0.12</time>
   <time name="total">    1.12    1.14</time>
   <energy>
    <i name="e_fr_energy">    -35.23074776 </i>
    <i name="e_wo_entrp">    -35.23074776 </i>
    <i name="e_0_energy">    -35.23074776 </i>
   </energy>
  </scstep>
  <scstep>
   <time name="dav">    0.12    0.12</time>
   <time name="total">    1.12    1.13</time>
   <energy>
    <i name="e_fr_energy">    -35.23076018 </i>
    <i name="e_wo_entrp">    -35.23076018 </i>
    <i name="e_0_energy">    -35.23076018 </i>
   </energy>
  </scstep>
  <scstep>
   <time name="dav">    0.12    0.12</time>
   <time name="total">    1.11    1.13</time>
   <energy>
    <i name="alphaZ">    185.64929911 </i>
    <i name="ewald">  -4678.36476469 </i>
    <i name="hartreedc">  -2332.78138752 </i>
    <i name="XCdc">    128.82107792 </i>
    <i name="pawpsdc">  10065.14106200 </i>
    <i name="pawaedc"> -10188.13584468 </i>
    <i name="eentropy">     -0.00000000 </i>
    <i name="bandstr">   -328.82099572 </i>
    <i name="atom">   6950.95472638 </i>
    <i name="e_fr_energy">    -35.23076641 </i>
    <i name="e_wo_entrp">    -35.23076641 </i>
    <i name="e_0_energy">    -35.23076641 </i>
   </energy>
  </scstep>
  <structure>
   <crystal>
    <varray name="basis" >
     <v>       5.30291920       0.00000000      -2.36402939 </v>
     <v>      -1.05387957       5.19714218      -2.36402972 </v>
     <v>       0.00000000       0.00000000       7.12968660 </v>
    </varray>
    <i name="volume">    196.49434127 </i>
    <varray name="rec_basis" >
     <v>       0.18857538       0.03823943       0.00000000 </v>
     <v>       0.00000000       0.19241344       0.00000000 </v>
     <v>       0.06252698       0.07647885       0.14025862 </v>
    </varray>
   </crystal>
   <varray name="positions" >
    <v>       0.50000000       0.50000000       0.00000000 </v>
    <v>       0.75000000       0.25000000       0.50000000 </v>
    <v>       0.00000000       0.00000000       0.00000000 </v>
    <v>       0.25000000       0.75000000       0.50000000 </v>
    <v>       0.34516103       0.37500000       0.25000000 </v>
    <v>       0.90483897       0.87500000       0.25000000 </v>
    <v>       0.12500000       0.65483897       0.75000000 </v>
    <v>       0.62500000       0.09516103       0.75000000 </v>
   </varray>
  </structure>
  <varray name="forces" >
   <v>      -0.00000000      -0.00000000       0.00000000 </v>
   <v>      -0.00000000       0.00000000       0.00000000 </v>
   <v>      -0.00000000      -0.00000000       0.00000000 </v>
   <v>      -0.00000000       0.00000000       0.00000000 </v>
   <v>       0.55552688       0.00000000      -0.24765263 </v>
   <v>      -0.55552688       0.00000000       0.24765263 </v>
   <v>       0.11040305      -0.54444582       0.24765266 </v>
   <v>      -0.11040305       0.54444582      -0.24765266 </v>
  </varray>
  <energy>
   <i name="e_fr_energy">    -35.23076641 </i>
   <i name="e_wo_entrp">    -35.23076641 </i>
   <i name="e_0_energy">    -35.23076641 </i>
  </energy>
  <time name="totalsc">   22.32   24.04</time>
  <eigenvalues>
   <array>
    <dimension dim="1">band</dimension>
    <dimension dim="2">kpoint</dimension>
    <dimension dim="3">spin</dimension>
    <field>eigene</field>
    <field>occ</field>
    <set>
     <set comment="spin 1">
      <set comment="kpoint 1">
       <r>  -13.2693    1.0000 </r>
       <r>  -13.2692    1.0000 </r>
       <r>  -13.2665    1.0000 </r>
       <r>  -13.0737    1.0000 </r>
       <r>  -13.0693    1.0000 </r>
       <r>  -13.0693    1.0000 </r>
       <r>  -13.0063    1.0000 </r>
       <r>  -12.9876    1.0000 </r>
       <r>  -12.9826    1.0000 </r>
       <r>  -12.9712    1.0000 </r>
       <r>  -11.4435    1.0000 </r>
       <r>   -9.9663    1.0000 </r>
       <r>   -9.9663    1.0000 </r>
       <r>   -9.9582    1.0000 </r>
       <r>   -3.2740    1.0000 </r>
       <r>   -2.4723    1.0000 </r>
       <r>   -1.4625    1.0000 </r>
       <r>   -0.9422    1.0000 </r>
       <r>   -0.8574    1.0000 </r>
       <r>   -0.3842    1.0000 </r>
       <r>   -0.3842    1.0000 </r>
       <r>   -0.1393    1.0000 </r>
       <r>   -0.1393    1.0000 </r>
       <r>   -0.0653    1.0000 </r>
       <r>   -0.0653    1.0000 </r>
       <r>   -0.0297    1.0000 </r>
       <r>    0.8317    1.0000 </r>
       <r>    0.8663    1.0000 </r>
       <r>    0.9414    1.0000 </r>
       <r>    1.2362    1.0000 </r>
       <r>    1.3105    1.0000 </r>
       <r>    1.3105    1.0000 </r>
       <r>    1.4155    1.0000 </r>
       <r>    3.3821    1.0000 </r>
       <r>    3.3821    1.0000 </r>
       <r>    3.4251    1.0000 </r>
       <r>    4.5955    0.0000 </r>
       <r>    6.5132    0.0000 </r>
       <r>    6.7146    0.0000 </r>
       <r>    8.5522    0.0000 </r>
       <r>    8.5522    0.0000 </r>
       <r>    9.3056    0.0000 </r>
       <r>    9.6210    0.0000 </r>
       <r>    9.6210    0.0000 </r>
       <r>    9.8792    0.0000 </r>
       <r>   10.1476    0.0000 </r>
       <r>   10.8987    0.0000 </r>
       <r>   10.8988    0.0000 </r>
      </set>
     </set>
     <set comment="spin 2">
      <set comment="kpoint 1">
       <r>  -13.2692    1.0000 </r>
       <r>  -13.2692    1.0000 </r>
       <r>  -13.2664    1.0000 </r>
       <r>  -13.0737    1.0000 </r>
       <r>  -13.0692    1.0000 </r>
       <r>  -13.0692    1.0000 </r>
       <r>  -13.0063    1.0000 </r>
       <r>  -12.9875    1.0000 </r>
       <r>  -12.9825    1.0000 </r>
       <r>  -12.9712    1.0000 </r>
       <r>  -11.4433    1.0000 </r>
       <r>   -9.9661    1.0000 </r>
       <r>   -9.9661    1.0000 </r>
       <r>   -9.9581    1.0000 </r>
       <r>   -3.2738    1.0000 </r>
       <r>   -2.4720    1.0000 </r>
       <r>   -1.4623    1.0000 </r>
       <r>   -0.9420    1.0000 </r>
       <r>   -0.8571    1.0000 </r>
       <r>   -0.3840    1.0000 </r>
       <r>   -0.3840    1.0000 </r>
       <r>   -0.1390    1.0000 </r>
       <r>   -0.1390    1.0000 </r>
       <r>   -0.0651    1.0000 </r>
       <r>   -0.0651    1.0000 </r>
       <r>   -0.0295    1.0000 </r>
       <r>    0.8319    1.0000 </r>
       <r>    0.8665    1.0000 </r>
       <r>    0.9415    1.0000 </r>
       <r>    1.2364    1.0000 </r>
       <r>    1.3108    1.0000 </r>
       <r>    1.3108    1.0000 </r>
       <r>    1.4157    1.0000 </r>
       <r>    3.3823    1.0000 </r>
       <r>    3.3823    1.0000 </r>
       <r>    3.4253    1.0000 </r>
       <r>    4.5958    0.0000 </r>
       <r>    6.5138    0.0000 </r>
       <r>    6.7148    0.0000 </r>
       <r>    8.5526    0.0000 </r>
       <r>    8.5526    0.0000 </r>
       <r>    9.3060    0.0000 </r>
       <r>    9.6214    0.0000 </r>
       <r>    9.6214    0.0000 </r>
       <r>    9.8795    0.0000 </r>
       <r>   10.1479    0.0000 </r>
       <r>   10.8991    0.0000 </r>
       <r>   10.8991    0.0000 </r>
      </set>
     </set>
    </set>
   </array>
  </eigenvalues>
  <separator name="orbital magnetization" >
   <v name="MAGDIPOLOUT">      0.00000000      0.00000000      0.00000000</v>
  </separator>
  <dos>
   <i name="efermi">      3.53382417 </i>
   <total>
    <array>
     <dimension dim="1">gridpoints</dimension>
     <dimension dim="2">spin</dimension>
     <field>energy</field>
     <field>total</field>
     <field>integrated</field>
     <set>
      <set comment="spin 1">
       <r>   -14.4777     0.0000     0.0000 </r>
       <r>   -14.3891     0.0000     0.0000 </r>
       <r>   -14.3004     0.0000     0.0000 </r>
       <r>   -14.2118     0.0000     0.0000 </r>
       <r>   -14.1232     0.0000     0.0000 </r>
       <r>   -14.0346     0.0000     0.0000 </r>
       <r>   -13.9460     0.0000     0.0000 </r>
       <r>   -13.8573     0.0000     0.0000 </r>
       <r>   -13.7687     0.0000     0.0000 </r>
       <r>   -13.6801     0.0000     0.0000 </r>
       <r>   -13.5915     0.0000     0.0000 </r>
       <r>   -13.5029     0.0000     0.0000 </r>
       <r>   -13.4143     0.0000     0.0000 </r>
       <r>   -13.3256     0.0000     0.0000 </r>
       <r>   -13.2370    33.8532     3.0000 </r>
       <r>   -13.1484     0.0000     3.0000 </r>
       <r>   -13.0598    31.5387     5.7949 </r>
       <r>   -12.9712    38.8205     9.4402 </r>
       <r>   -12.8826     0.0000    10.0000 </r>
       <r>   -12.7939     0.0000    10.0000 </r>
       <r>   -12.7053     0.0000    10.0000 </r>
       <r>   -12.6167     0.0000    10.0000 </r>
       <r>   -12.5281     0.0000    10.0000 </r>
       <r>   -12.4395     0.0000    10.0000 </r>
       <r>   -12.3509     0.0000    10.0000 </r>
       <r>   -12.2622     0.0000    10.0000 </r>
       <r>   -12.1736     0.0000    10.0000 </r>
       <r>   -12.0850     0.0000    10.0000 </r>
       <r>   -11.9964     0.0000    10.0000 </r>
       <r>   -11.9078     0.0000    10.0000 </r>
       <r>   -11.8191     0.0000    10.0000 </r>
       <r>   -11.7305     0.0000    10.0000 </r>
       <r>   -11.6419     0.0000    10.0000 </r>
       <r>   -11.5533     0.0000    10.0000 </r>
       <r>   -11.4647     0.0155    10.0014 </r>
       <r>   -11.3761    11.2690    11.0000 </r>
       <r>   -11.2874     0.0000    11.0000 </r>
       <r>   -11.1988     0.0000    11.0000 </r>
       <r>   -11.1102     0.0000    11.0000 </r>
       <r>   -11.0216     0.0000    11.0000 </r>
       <r>   -10.9330     0.0000    11.0000 </r>
       <r>   -10.8444     0.0000    11.0000 </r>
       <r>   -10.7557     0.0000    11.0000 </r>
       <r>   -10.6671     0.0000    11.0000 </r>
       <r>   -10.5785     0.0000    11.0000 </r>
       <r>   -10.4899     0.0000    11.0000 </r>
       <r>   -10.4013     0.0000    11.0000 </r>
       <r>   -10.3127     0.0000    11.0000 </r>
       <r>   -10.2240     0.0000    11.0000 </r>
       <r>   -10.1354     0.0000    11.0000 </r>
       <r>   -10.0468     0.0000    11.0000 </r>
       <r>    -9.9582    25.4020    13.2511 </r>
       <r>    -9.8696     0.0000    14.0000 </r>
       <r>    -9.7809     0.0000    14.0000 </r>
       <r>    -9.6923     0.0000    14.0000 </r>
       <r>    -9.6037     0.0000    14.0000 </r>
       <r>    -9.5151     0.0000    14.0000 </r>
       <r>    -9.4265     0.0000    14.0000 </r>
       <r>    -9.3379     0.0000    14.0000 </r>
       <r>    -9.2492     0.0000    14.0000 </r>
       <r>    -9.1606     0.0000    14.0000 </r>
       <r>    -9.0720     0.0000    14.0000 </r>
       <r>    -8.9834     0.0000    14.0000 </r>
       <r>    -8.8948     0.0000    14.0000 </r>
       <r>    -8.8062     0.0000    14.0000 </r>
       <r>    -8.7175     0.0000    14.0000 </r>
       <r>    -8.6289     0.0000    14.0000 </r>
       <r>    -8.5403     0.0000    14.0000 </r>
       <r>    -8.4517     0.0000    14.0000 </r>
       <r>    -8.3631     0.0000    14.0000 </r>
       <r>    -8.2744     0.0000    14.0000 </r>
       <r>    -8.1858     0.0000    14.0000 </r>
       <r>    -8.0972     0.0000    14.0000 </r>
       <r>    -8.0086     0.0000    14.0000 </r>
       <r>    -7.9200     0.0000    14.0000 </r>
       <r>    -7.8314     0.0000    14.0000 </r>
       <r>    -7.7427     0.0000    14.0000 </r>
       <r>    -7.6541     0.0000    14.0000 </r>
       <r>    -7.5655     0.0000    14.0000 </r>
       <r>    -7.4769     0.0000    14.0000 </r>
       <r>    -7.3883     0.0000    14.0000 </r>
       <r>    -7.2997     0.0000    14.0000 </r>
       <r>    -7.2110     0.0000    14.0000 </r>
       <r>    -7.1224     0.0000    14.0000 </r>
       <r>    -7.0338     0.0000    14.0000 </r>
       <r>    -6.9452     0.0000    14.0000 </r>
       <r>    -6.8566     0.0000    14.0000 </r>
       <r>    -6.7680     0.0000    14.0000 </r>
       <r>    -6.6793     0.0000    14.0000 </r>
       <r>    -6.5907     0.0000    14.0000 </r>
       <r>    -6.5021     0.0000    14.0000 </r>
       <r>    -6.4135     0.0000    14.0000 </r>
       <r>    -6.3249     0.0000    14.0000 </r>
       <r>    -6.2362     0.0000    14.0000 </r>
       <r>    -6.1476     0.0000    14.0000 </r>
       <r>    -6.0590     0.0000    14.0000 </r>
       <r>    -5.9704     0.0000    14.0000 </r>
       <r>    -5.8818     0.0000    14.0000 </r>
       <r>    -5.7932     0.0000    14.0000 </r>
       <r>    -5.7045     0.0000    14.0000 </r>
       <r>    -5.6159     0.0000    14.0000 </r>
       <r>    -5.5273     0.0000    14.0000 </r>
       <r>    -5.4387     0.0000    14.0000 </r>
       <r>    -5.3501     0.0000    14.0000 </r>
       <r>    -5.2615     0.0000    14.0000 </r>
       <r>    -5.1728     0.0000    14.0000 </r>
       <r>    -5.0842     0.0000    14.0000 </r>
       <r>    -4.9956     0.0000    14.0000 </r>
       <r>    -4.9070     0.0000    14.0000 </r>
       <r>    -4.8184     0.0000    14.0000 </r>
       <r>    -4.7298     0.0000    14.0000 </r>
       <r>    -4.6411     0.0000    14.0000 </r>
       <r>    -4.5525     0.0000    14.0000 </r>
       <r>    -4.4639     0.0000    14.0000 </r>
       <r>    -4.3753     0.0000    14.0000 </r>
       <r>    -4.2867     0.0000    14.0000 </r>
       <r>    -4.1980     0.0000    14.0000 </r>
       <r>    -4.1094     0.0000    14.0000 </r>
       <r>    -4.0208     0.0000    14.0000 </r>
       <r>    -3.9322     0.0000    14.0000 </r>
       <r>    -3.8436     0.0000    14.0000 </r>
       <r>    -3.7550     0.0000    14.0000 </r>
       <r>    -3.6663     0.0000    14.0000 </r>
       <r>    -3.5777     0.0000    14.0000 </r>
       <r>    -3.4891     0.0000    14.0000 </r>
       <r>    -3.4005     0.0000    14.0000 </r>
       <r>    -3.3119     0.0000    14.0000 </r>
       <r>    -3.2233    11.2845    15.0000 </r>
       <r>    -3.1346     0.0000    15.0000 </r>
       <r>    -3.0460     0.0000    15.0000 </r>
       <r>    -2.9574     0.0000    15.0000 </r>
       <r>    -2.8688     0.0000    15.0000 </r>
       <r>    -2.7802     0.0000    15.0000 </r>
       <r>    -2.6916     0.0000    15.0000 </r>
       <r>    -2.6029     0.0000    15.0000 </r>
       <r>    -2.5143     0.0000    15.0000 </r>
       <r>    -2.4257    11.2845    16.0000 </r>
       <r>    -2.3371     0.0000    16.0000 </r>
       <r>    -2.2485     0.0000    16.0000 </r>
       <r>    -2.1598     0.0000    16.0000 </r>
       <r>    -2.0712     0.0000    16.0000 </r>
       <r>    -1.9826     0.0000    16.0000 </r>
       <r>    -1.8940     0.0000    16.0000 </r>
       <r>    -1.8054     0.0000    16.0000 </r>
       <r>    -1.7168     0.0000    16.0000 </r>
       <r>    -1.6281     0.0000    16.0000 </r>
       <r>    -1.5395     0.0000    16.0000 </r>
       <r>    -1.4509    10.7185    16.9498 </r>
       <r>    -1.3623     0.0000    17.0000 </r>
       <r>    -1.2737     0.0000    17.0000 </r>
       <r>    -1.1851     0.0000    17.0000 </r>
       <r>    -1.0964     0.0000    17.0000 </r>
       <r>    -1.0078     0.0000    17.0000 </r>
       <r>    -0.9192    11.2781    17.9994 </r>
       <r>    -0.8306    11.2836    18.9999 </r>
       <r>    -0.7420     0.0000    19.0000 </r>
       <r>    -0.6533     0.0000    19.0000 </r>
       <r>    -0.5647     0.0000    19.0000 </r>
       <r>    -0.4761     0.0000    19.0000 </r>
       <r>    -0.3875     7.2630    19.6436 </r>
       <r>    -0.2989     0.0000    21.0000 </r>
       <r>    -0.2103     0.0000    21.0000 </r>
       <r>    -0.1216    22.4257    22.9873 </r>
       <r>    -0.0330    26.1913    25.3210 </r>
       <r>     0.0556     0.0000    26.0000 </r>
       <r>     0.1442     0.0000    26.0000 </r>
       <r>     0.2328     0.0000    26.0000 </r>
       <r>     0.3214     0.0000    26.0000 </r>
       <r>     0.4101     0.0000    26.0000 </r>
       <r>     0.4987     0.0000    26.0000 </r>
       <r>     0.5873     0.0000    26.0000 </r>
       <r>     0.6759     0.0000    26.0000 </r>
       <r>     0.7645     0.0000    26.0000 </r>
       <r>     0.8531    11.6226    27.0300 </r>
       <r>     0.9418    16.8177    28.5215 </r>
       <r>     1.0304     0.0000    29.0000 </r>
       <r>     1.1190     0.0000    29.0000 </r>
       <r>     1.2076     0.0003    29.0000 </r>
       <r>     1.2962    11.7698    30.0430 </r>
       <r>     1.3849    22.0834    32.0000 </r>
       <r>     1.4735    11.2844    33.0000 </r>
       <r>     1.5621     0.0000    33.0000 </r>
       <r>     1.6507     0.0000    33.0000 </r>
       <r>     1.7393     0.0000    33.0000 </r>
       <r>     1.8279     0.0000    33.0000 </r>
       <r>     1.9166     0.0000    33.0000 </r>
       <r>     2.0052     0.0000    33.0000 </r>
       <r>     2.0938     0.0000    33.0000 </r>
       <r>     2.1824     0.0000    33.0000 </r>
       <r>     2.2710     0.0000    33.0000 </r>
       <r>     2.3596     0.0000    33.0000 </r>
       <r>     2.4483     0.0000    33.0000 </r>
       <r>     2.5369     0.0000    33.0000 </r>
       <r>     2.6255     0.0000    33.0000 </r>
       <r>     2.7141     0.0000    33.0000 </r>
       <r>     2.8027     0.0000    33.0000 </r>
       <r>     2.8913     0.0000    33.0000 </r>
       <r>     2.9800     0.0000    33.0000 </r>
       <r>     3.0686     0.0000    33.0000 </r>
       <r>     3.1572     0.0000    33.0000 </r>
       <r>     3.2458     0.0000    33.0000 </r>
       <r>     3.3344     0.0000    33.0000 </r>
       <r>     3.4231    26.9012    35.3839 </r>
       <r>     3.5117     0.0000    36.0000 </r>
       <r>     3.6003     0.0000    36.0000 </r>
       <r>     3.6889     0.0000    36.0000 </r>
       <r>     3.7775     0.0000    36.0000 </r>
       <r>     3.8661     0.0000    36.0000 </r>
       <r>     3.9548     0.0000    36.0000 </r>
       <r>     4.0434     0.0000    36.0000 </r>
       <r>     4.1320     0.0000    36.0000 </r>
       <r>     4.2206     0.0000    36.0000 </r>
       <r>     4.3092     0.0000    36.0000 </r>
       <r>     4.3978     0.0000    36.0000 </r>
       <r>     4.4865     0.0000    36.0000 </r>
       <r>     4.5751     0.0220    36.0019 </r>
       <r>     4.6637    11.2625    37.0000 </r>
       <r>     4.7523     0.0000    37.0000 </r>
       <r>     4.8409     0.0000    37.0000 </r>
       <r>     4.9295     0.0000    37.0000 </r>
       <r>     5.0182     0.0000    37.0000 </r>
       <r>     5.1068     0.0000    37.0000 </r>
       <r>     5.1954     0.0000    37.0000 </r>
       <r>     5.2840     0.0000    37.0000 </r>
       <r>     5.3726     0.0000    37.0000 </r>
       <r>     5.4613     0.0000    37.0000 </r>
       <r>     5.5499     0.0000    37.0000 </r>
       <r>     5.6385     0.0000    37.0000 </r>
       <r>     5.7271     0.0000    37.0000 </r>
       <r>     5.8157     0.0000    37.0000 </r>
       <r>     5.9043     0.0000    37.0000 </r>
       <r>     5.9930     0.0000    37.0000 </r>
       <r>     6.0816     0.0000    37.0000 </r>
       <r>     6.1702     0.0000    37.0000 </r>
       <r>     6.2588     0.0000    37.0000 </r>
       <r>     6.3474     0.0000    37.0000 </r>
       <r>     6.4360     0.0000    37.0000 </r>
       <r>     6.5247    10.6845    37.9468 </r>
       <r>     6.6133     0.0000    38.0000 </r>
       <r>     6.7019     0.4141    38.0367 </r>
       <r>     6.7905    10.8703    39.0000 </r>
       <r>     6.8791     0.0000    39.0000 </r>
       <r>     6.9677     0.0000    39.0000 </r>
       <r>     7.0564     0.0000    39.0000 </r>
       <r>     7.1450     0.0000    39.0000 </r>
       <r>     7.2336     0.0000    39.0000 </r>
       <r>     7.3222     0.0000    39.0000 </r>
       <r>     7.4108     0.0000    39.0000 </r>
       <r>     7.4995     0.0000    39.0000 </r>
       <r>     7.5881     0.0000    39.0000 </r>
       <r>     7.6767     0.0000    39.0000 </r>
       <r>     7.7653     0.0000    39.0000 </r>
       <r>     7.8539     0.0000    39.0000 </r>
       <r>     7.9425     0.0000    39.0000 </r>
       <r>     8.0312     0.0000    39.0000 </r>
       <r>     8.1198     0.0000    39.0000 </r>
       <r>     8.2084     0.0000    39.0000 </r>
       <r>     8.2970     0.0000    39.0000 </r>
       <r>     8.3856     0.0000    39.0000 </r>
       <r>     8.4742     0.0000    39.0000 </r>
       <r>     8.5629    21.0823    40.8683 </r>
       <r>     8.6515     0.0000    41.0000 </r>
       <r>     8.7401     0.0000    41.0000 </r>
       <r>     8.8287     0.0000    41.0000 </r>
       <r>     8.9173     0.0000    41.0000 </r>
       <r>     9.0060     0.0000    41.0000 </r>
       <r>     9.0946     0.0000    41.0000 </r>
       <r>     9.1832     0.0000    41.0000 </r>
       <r>     9.2718     0.0000    41.0000 </r>
       <r>     9.3604    11.2845    42.0000 </r>
       <r>     9.4490     0.0000    42.0000 </r>
       <r>     9.5377     0.0000    42.0000 </r>
       <r>     9.6263    17.3963    43.5416 </r>
       <r>     9.7149     0.0000    44.0000 </r>
       <r>     9.8035     0.0000    44.0000 </r>
       <r>     9.8921    10.9032    44.9662 </r>
       <r>     9.9807     0.0000    45.0000 </r>
       <r>    10.0694     0.0000    45.0000 </r>
       <r>    10.1580    10.4883    45.9294 </r>
       <r>    10.2466     0.0000    46.0000 </r>
       <r>    10.3352     0.0000    46.0000 </r>
       <r>    10.4238     0.0000    46.0000 </r>
       <r>    10.5124     0.0000    46.0000 </r>
       <r>    10.6011     0.0000    46.0000 </r>
       <r>    10.6897     0.0000    46.0000 </r>
       <r>    10.7783     0.0000    46.0000 </r>
       <r>    10.8669     0.0001    46.0000 </r>
       <r>    10.9555    22.5688    48.0000 </r>
       <r>    11.0442     0.0000    48.0000 </r>
       <r>    11.1328     0.0000    48.0000 </r>
       <r>    11.2214     0.0000    48.0000 </r>
       <r>    11.3100     0.0000    48.0000 </r>
       <r>    11.3986     0.0000    48.0000 </r>
       <r>    11.4872     0.0000    48.0000 </r>
       <r>    11.5759     0.0000    48.0000 </r>
       <r>    11.6645     0.0000    48.0000 </r>
       <r>    11.7531     0.0000    48.0000 </r>
       <r>    11.8417     0.0000    48.0000 </r>
       <r>    11.9303     0.0000    48.0000 </r>
       <r>    12.0189     0.0000    48.0000 </r>
       <r>    12.1076     0.0000    48.0000 </r>
      </set>
      <set comment="spin 2">
       <r>   -14.4777     0.0000     0.0000 </r>
       <r>   -14.3891     0.0000     0.0000 </r>
       <r>   -14.3004     0.0000     0.0000 </r>
       <r>   -14.2118     0.0000     0.0000 </r>
       <r>   -14.1232     0.0000     0.0000 </r>
       <r>   -14.0346     0.0000     0.0000 </r>
       <r>   -13.9460     0.0000     0.0000 </r>
       <r>   -13.8573     0.0000     0.0000 </r>
       <r>   -13.7687     0.0000     0.0000 </r>
       <r>   -13.6801     0.0000     0.0000 </r>
       <r>   -13.5915     0.0000     0.0000 </r>
       <r>   -13.5029     0.0000     0.0000 </r>
       <r>   -13.4143     0.0000     0.0000 </r>
       <r>   -13.3256     0.0000     0.0000 </r>
       <r>   -13.2370    33.8531     3.0000 </r>
       <r>   -13.1484     0.0000     3.0000 </r>
       <r>   -13.0598    31.4984     5.7913 </r>
       <r>   -12.9712    38.7746     9.4361 </r>
       <r>   -12.8826     0.0000    10.0000 </r>
       <r>   -12.7939     0.0000    10.0000 </r>
       <r>   -12.7053     0.0000    10.0000 </r>
       <r>   -12.6167     0.0000    10.0000 </r>
       <r>   -12.5281     0.0000    10.0000 </r>
       <r>   -12.4395     0.0000    10.0000 </r>
       <r>   -12.3509     0.0000    10.0000 </r>
       <r>   -12.2622     0.0000    10.0000 </r>
       <r>   -12.1736     0.0000    10.0000 </r>
       <r>   -12.0850     0.0000    10.0000 </r>
       <r>   -11.9964     0.0000    10.0000 </r>
       <r>   -11.9078     0.0000    10.0000 </r>
       <r>   -11.8191     0.0000    10.0000 </r>
       <r>   -11.7305     0.0000    10.0000 </r>
       <r>   -11.6419     0.0000    10.0000 </r>
       <r>   -11.5533     0.0000    10.0000 </r>
       <r>   -11.4647     0.0140    10.0012 </r>
       <r>   -11.3761    11.2704    11.0000 </r>
       <r>   -11.2874     0.0000    11.0000 </r>
       <r>   -11.1988     0.0000    11.0000 </r>
       <r>   -11.1102     0.0000    11.0000 </r>
       <r>   -11.0216     0.0000    11.0000 </r>
       <r>   -10.9330     0.0000    11.0000 </r>
       <r>   -10.8444     0.0000    11.0000 </r>
       <r>   -10.7557     0.0000    11.0000 </r>
       <r>   -10.6671     0.0000    11.0000 </r>
       <r>   -10.5785     0.0000    11.0000 </r>
       <r>   -10.4899     0.0000    11.0000 </r>
       <r>   -10.4013     0.0000    11.0000 </r>
       <r>   -10.3127     0.0000    11.0000 </r>
       <r>   -10.2240     0.0000    11.0000 </r>
       <r>   -10.1354     0.0000    11.0000 </r>
       <r>   -10.0468     0.0000    11.0000 </r>
       <r>    -9.9582    25.1735    13.2308 </r>
       <r>    -9.8696     0.0000    14.0000 </r>
       <r>    -9.7809     0.0000    14.0000 </r>
       <r>    -9.6923     0.0000    14.0000 </r>
       <r>    -9.6037     0.0000    14.0000 </r>
       <r>    -9.5151     0.0000    14.0000 </r>
       <r>    -9.4265     0.0000    14.0000 </r>
       <r>    -9.3379     0.0000    14.0000 </r>
       <r>    -9.2492     0.0000    14.0000 </r>
       <r>    -9.1606     0.0000    14.0000 </r>
       <r>    -9.0720     0.0000    14.0000 </r>
       <r>    -8.9834     0.0000    14.0000 </r>
       <r>    -8.8948     0.0000    14.0000 </r>
       <r>    -8.8062     0.0000    14.0000 </r>
       <r>    -8.7175     0.0000    14.0000 </r>
       <r>    -8.6289     0.0000    14.0000 </r>
       <r>    -8.5403     0.0000    14.0000 </r>
       <r>    -8.4517     0.0000    14.0000 </r>
       <r>    -8.3631     0.0000    14.0000 </r>
       <r>    -8.2744     0.0000    14.0000 </r>
       <r>    -8.1858     0.0000    14.0000 </r>
       <r>    -8.0972     0.0000    14.0000 </r>
       <r>    -8.0086     0.0000    14.0000 </r>
       <r>    -7.9200     0.0000    14.0000 </r>
       <r>    -7.8314     0.0000    14.0000 </r>
       <r>    -7.7427     0.0000    14.0000 </r>
       <r>    -7.6541     0.0000    14.0000 </r>
       <r>    -7.5655     0.0000    14.0000 </r>
       <r>    -7.4769     0.0000    14.0000 </r>
       <r>    -7.3883     0.0000    14.0000 </r>
       <r>    -7.2997     0.0000    14.0000 </r>
       <r>    -7.2110     0.0000    14.0000 </r>
       <r>    -7.1224     0.0000    14.0000 </r>
       <r>    -7.0338     0.0000    14.0000 </r>
       <r>    -6.9452     0.0000    14.0000 </r>
       <r>    -6.8566     0.0000    14.0000 </r>
       <r>    -6.7680     0.0000    14.0000 </r>
       <r>    -6.6793     0.0000    14.0000 </r>
       <r>    -6.5907     0.0000    14.0000 </r>
       <r>    -6.5021     0.0000    14.0000 </r>
       <r>    -6.4135     0.0000    14.0000 </r>
       <r>    -6.3249     0.0000    14.0000 </r>
       <r>    -6.2362     0.0000    14.0000 </r>
       <r>    -6.1476     0.0000    14.0000 </r>
       <r>    -6.0590     0.0000    14.0000 </r>
       <r>    -5.9704     0.0000    14.0000 </r>
       <r>    -5.8818     0.0000    14.0000 </r>
       <r>    -5.7932     0.0000    14.0000 </r>
       <r>    -5.7045     0.0000    14.0000 </r>
       <r>    -5.6159     0.0000    14.0000 </r>
       <r>    -5.5273     0.0000    14.0000 </r>
       <r>    -5.4387     0.0000    14.0000 </r>
       <r>    -5.3501     0.0000    14.0000 </r>
       <r>    -5.2615     0.0000    14.0000 </r>
       <r>    -5.1728     0.0000    14.0000 </r>
       <r>    -5.0842     0.0000    14.0000 </r>
       <r>    -4.9956     0.0000    14.0000 </r>
       <r>    -4.9070     0.0000    14.0000 </r>
       <r>    -4.8184     0.0000    14.0000 </r>
       <r>    -4.7298     0.0000    14.0000 </r>
       <r>    -4.6411     0.0000    14.0000 </r>
       <r>    -4.5525     0.0000    14.0000 </r>
       <r>    -4.4639     0.0000    14.0000 </r>
       <r>    -4.3753     0.0000    14.0000 </r>
       <r>    -4.2867     0.0000    14.0000 </r>
       <r>    -4.1980     0.0000    14.0000 </r>
       <r>    -4.1094     0.0000    14.0000 </r>
       <r>    -4.0208     0.0000    14.0000 </r>
       <r>    -3.9322     0.0000    14.0000 </r>
       <r>    -3.8436     0.0000    14.0000 </r>
       <r>    -3.7550     0.0000    14.0000 </r>
       <r>    -3.6663     0.0000    14.0000 </r>
       <r>    -3.5777     0.0000    14.0000 </r>
       <r>    -3.4891     0.0000    14.0000 </r>
       <r>    -3.4005     0.0000    14.0000 </r>
       <r>    -3.3119     0.0000    14.0000 </r>
       <r>    -3.2233    11.2845    15.0000 </r>
       <r>    -3.1346     0.0000    15.0000 </r>
       <r>    -3.0460     0.0000    15.0000 </r>
       <r>    -2.9574     0.0000    15.0000 </r>
       <r>    -2.8688     0.0000    15.0000 </r>
       <r>    -2.7802     0.0000    15.0000 </r>
       <r>    -2.6916     0.0000    15.0000 </r>
       <r>    -2.6029     0.0000    15.0000 </r>
       <r>    -2.5143     0.0000    15.0000 </r>
       <r>    -2.4257    11.2845    16.0000 </r>
       <r>    -2.3371     0.0000    16.0000 </r>
       <r>    -2.2485     0.0000    16.0000 </r>
       <r>    -2.1598     0.0000    16.0000 </r>
       <r>    -2.0712     0.0000    16.0000 </r>
       <r>    -1.9826     0.0000    16.0000 </r>
       <r>    -1.8940     0.0000    16.0000 </r>
       <r>    -1.8054     0.0000    16.0000 </r>
       <r>    -1.7168     0.0000    16.0000 </r>
       <r>    -1.6281     0.0000    16.0000 </r>
       <r>    -1.5395     0.0000    16.0000 </r>
       <r>    -1.4509    10.6770    16.9462 </r>
       <r>    -1.3623     0.0000    17.0000 </r>
       <r>    -1.2737     0.0000    17.0000 </r>
       <r>    -1.1851     0.0000    17.0000 </r>
       <r>    -1.0964     0.0000    17.0000 </r>
       <r>    -1.0078     0.0000    17.0000 </r>
       <r>    -0.9192    11.2772    17.9994 </r>
       <r>    -0.8306    11.2835    18.9999 </r>
       <r>    -0.7420     0.0000    19.0000 </r>
       <r>    -0.6533     0.0000    19.0000 </r>
       <r>    -0.5647     0.0000    19.0000 </r>
       <r>    -0.4761     0.0000    19.0000 </r>
       <r>    -0.3875     7.0253    19.6226 </r>
       <r>    -0.2989     0.0000    21.0000 </r>
       <r>    -0.2103     0.0000    21.0000 </r>
       <r>    -0.1216    22.4111    22.9860 </r>
       <r>    -0.0330    26.0764    25.3108 </r>
       <r>     0.0556     0.0000    26.0000 </r>
       <r>     0.1442     0.0000    26.0000 </r>
       <r>     0.2328     0.0000    26.0000 </r>
       <r>     0.3214     0.0000    26.0000 </r>
       <r>     0.4101     0.0000    26.0000 </r>
       <r>     0.4987     0.0000    26.0000 </r>
       <r>     0.5873     0.0000    26.0000 </r>
       <r>     0.6759     0.0000    26.0000 </r>
       <r>     0.7645     0.0000    26.0000 </r>
       <r>     0.8531    11.6032    27.0282 </r>
       <r>     0.9418    16.7305    28.5122 </r>
       <r>     1.0304     0.0000    29.0000 </r>
       <r>     1.1190     0.0000    29.0000 </r>
       <r>     1.2076     0.0003    29.0000 </r>
       <r>     1.2962    11.7330    30.0398 </r>
       <r>     1.3849    22.1202    32.0000 </r>
       <r>     1.4735    11.2844    33.0000 </r>
       <r>     1.5621     0.0000    33.0000 </r>
       <r>     1.6507     0.0000    33.0000 </r>
       <r>     1.7393     0.0000    33.0000 </r>
       <r>     1.8279     0.0000    33.0000 </r>
       <r>     1.9166     0.0000    33.0000 </r>
       <r>     2.0052     0.0000    33.0000 </r>
       <r>     2.0938     0.0000    33.0000 </r>
       <r>     2.1824     0.0000    33.0000 </r>
       <r>     2.2710     0.0000    33.0000 </r>
       <r>     2.3596     0.0000    33.0000 </r>
       <r>     2.4483     0.0000    33.0000 </r>
       <r>     2.5369     0.0000    33.0000 </r>
       <r>     2.6255     0.0000    33.0000 </r>
       <r>     2.7141     0.0000    33.0000 </r>
       <r>     2.8027     0.0000    33.0000 </r>
       <r>     2.8913     0.0000    33.0000 </r>
       <r>     2.9800     0.0000    33.0000 </r>
       <r>     3.0686     0.0000    33.0000 </r>
       <r>     3.1572     0.0000    33.0000 </r>
       <r>     3.2458     0.0000    33.0000 </r>
       <r>     3.3344     0.0000    33.0000 </r>
       <r>     3.4231    26.7770    35.3729 </r>
       <r>     3.5117     0.0000    36.0000 </r>
       <r>     3.6003     0.0000    36.0000 </r>
       <r>     3.6889     0.0000    36.0000 </r>
       <r>     3.7775     0.0000    36.0000 </r>
       <r>     3.8661     0.0000    36.0000 </r>
       <r>     3.9548     0.0000    36.0000 </r>
       <r>     4.0434     0.0000    36.0000 </r>
       <r>     4.1320     0.0000    36.0000 </r>
       <r>     4.2206     0.0000    36.0000 </r>
       <r>     4.3092     0.0000    36.0000 </r>
       <r>     4.3978     0.0000    36.0000 </r>
       <r>     4.4865     0.0000    36.0000 </r>
       <r>     4.5751     0.0188    36.0017 </r>
       <r>     4.6637    11.2656    37.0000 </r>
       <r>     4.7523     0.0000    37.0000 </r>
       <r>     4.8409     0.0000    37.0000 </r>
       <r>     4.9295     0.0000    37.0000 </r>
       <r>     5.0182     0.0000    37.0000 </r>
       <r>     5.1068     0.0000    37.0000 </r>
       <r>     5.1954     0.0000    37.0000 </r>
       <r>     5.2840     0.0000    37.0000 </r>
       <r>     5.3726     0.0000    37.0000 </r>
       <r>     5.4613     0.0000    37.0000 </r>
       <r>     5.5499     0.0000    37.0000 </r>
       <r>     5.6385     0.0000    37.0000 </r>
       <r>     5.7271     0.0000    37.0000 </r>
       <r>     5.8157     0.0000    37.0000 </r>
       <r>     5.9043     0.0000    37.0000 </r>
       <r>     5.9930     0.0000    37.0000 </r>
       <r>     6.0816     0.0000    37.0000 </r>
       <r>     6.1702     0.0000    37.0000 </r>
       <r>     6.2588     0.0000    37.0000 </r>
       <r>     6.3474     0.0000    37.0000 </r>
       <r>     6.4360     0.0000    37.0000 </r>
       <r>     6.5247    10.5868    37.9382 </r>
       <r>     6.6133     0.0000    38.0000 </r>
       <r>     6.7019     0.3786    38.0336 </r>
       <r>     6.7905    10.9058    39.0000 </r>
       <r>     6.8791     0.0000    39.0000 </r>
       <r>     6.9677     0.0000    39.0000 </r>
       <r>     7.0564     0.0000    39.0000 </r>
       <r>     7.1450     0.0000    39.0000 </r>
       <r>     7.2336     0.0000    39.0000 </r>
       <r>     7.3222     0.0000    39.0000 </r>
       <r>     7.4108     0.0000    39.0000 </r>
       <r>     7.4995     0.0000    39.0000 </r>
       <r>     7.5881     0.0000    39.0000 </r>
       <r>     7.6767     0.0000    39.0000 </r>
       <r>     7.7653     0.0000    39.0000 </r>
       <r>     7.8539     0.0000    39.0000 </r>
       <r>     7.9425     0.0000    39.0000 </r>
       <r>     8.0312     0.0000    39.0000 </r>
       <r>     8.1198     0.0000    39.0000 </r>
       <r>     8.2084     0.0000    39.0000 </r>
       <r>     8.2970     0.0000    39.0000 </r>
       <r>     8.3856     0.0000    39.0000 </r>
       <r>     8.4742     0.0000    39.0000 </r>
       <r>     8.5629    20.8980    40.8519 </r>
       <r>     8.6515     0.0000    41.0000 </r>
       <r>     8.7401     0.0000    41.0000 </r>
       <r>     8.8287     0.0000    41.0000 </r>
       <r>     8.9173     0.0000    41.0000 </r>
       <r>     9.0060     0.0000    41.0000 </r>
       <r>     9.0946     0.0000    41.0000 </r>
       <r>     9.1832     0.0000    41.0000 </r>
       <r>     9.2718     0.0000    41.0000 </r>
       <r>     9.3604    11.2845    42.0000 </r>
       <r>     9.4490     0.0000    42.0000 </r>
       <r>     9.5377     0.0000    42.0000 </r>
       <r>     9.6263    17.0138    43.5077 </r>
       <r>     9.7149     0.0000    44.0000 </r>
       <r>     9.8035     0.0000    44.0000 </r>
       <r>     9.8921    10.8712    44.9634 </r>
       <r>     9.9807     0.0000    45.0000 </r>
       <r>    10.0694     0.0000    45.0000 </r>
       <r>    10.1580    10.4174    45.9232 </r>
       <r>    10.2466     0.0000    46.0000 </r>
       <r>    10.3352     0.0000    46.0000 </r>
       <r>    10.4238     0.0000    46.0000 </r>
       <r>    10.5124     0.0000    46.0000 </r>
       <r>    10.6011     0.0000    46.0000 </r>
       <r>    10.6897     0.0000    46.0000 </r>
       <r>    10.7783     0.0000    46.0000 </r>
       <r>    10.8669     0.0001    46.0000 </r>
       <r>    10.9555    22.5689    48.0000 </r>
       <r>    11.0442     0.0000    48.0000 </r>
       <r>    11.1328     0.0000    48.0000 </r>
       <r>    11.2214     0.0000    48.0000 </r>
       <r>    11.3100     0.0000    48.0000 </r>
       <r>    11.3986     0.0000    48.0000 </r>
       <r>    11.4872     0.0000    48.0000 </r>
       <r>    11.5759     0.0000    48.0000 </r>
       <r>    11.6645     0.0000    48.0000 </r>
       <r>    11.7531     0.0000    48.0000 </r>
       <r>    11.8417     0.0000    48.0000 </r>
       <r>    11.9303     0.0000    48.0000 </r>
       <r>    12.0189     0.0000    48.0000 </r>
       <r>    12.1076     0.0000    48.0000 </r>
      </set>
     </set>
    </array>
   </total>
   <partial>
    <array>
     <dimension dim="1">gridpoints</dimension>
     <dimension dim="2">spin</dimension>
     <dimension dim="3">ion</dimension>
     <field>energy</field>
     <field>    s</field>
     <field>   py</field>
     <field>   pz</field>
     <field>   px</field>
     <field>  dxy</field>
     <field>  dyz</field>
     <field>  dz2</field>
     <field>  dxz</field>
     <field>x2-y2</field>
     <set>
      <set comment="ion 1">
       <set comment="spin 1">
        <r>   -14.4777     0.0000     0.0000     0.0000     0.0000     0.0000     0.0000     0.0000     0.0000     0.0000 </r>
        <r>   -14.3891     0.0000     0.0000     0.0000     0.0000     0.0000     0.0000     0.0000     0.0000     0.0000 </r>
        <r>   -14.3004     0.0000     0.0000     0.0000     0.0000     0.0000     0.0000     0.0000     0.0000     0.0000 </r>
        <r>   -14.2118     0.0000     0.0000     0.0000     0.0000     0.0000     0.0000     0.0000     0.0000     0.0000 </r>
        <r>   -14.1232     0.0000     0.0000     0.0000     0.0000     0.0000     0.0000     0.0000     0.0000     0.0000 </r>
        <r>   -14.0346     0.0000     0.0000     0.0000     0.0000     0.0000     0.0000     0.0000     0.0000     0.0000 </r>
        <r>   -13.9460     0.0000     0.0000     0.0000     0.0000     0.0000     0.0000     0.0000     0.0000     0.0000 </r>
        <r>   -13.8573     0.0000     0.0000     0.0000     0.0000     0.0000     0.0000     0.0000     0.0000     0.0000 </r>
        <r>   -13.7687     0.0000     0.0000     0.0000     0.0000     0.0000     0.0000     0.0000     0.0000     0.0000 </r>
        <r>   -13.6801     0.0000     0.0000     0.0000     0.0000     0.0000     0.0000     0.0000     0.0000     0.0000 </r>
        <r>   -13.5915     0.0000     0.0000     0.0000     0.0000     0.0000     0.0000     0.0000     0.0000     0.0000 </r>
        <r>   -13.5029     0.0000     0.0000     0.0000     0.0000     0.0000     0.0000     0.0000     0.0000     0.0000 </r>
        <r>   -13.4143     0.0000     0.0000     0.0000     0.0000     0.0000     0.0000     0.0000     0.0000     0.0000 </r>
        <r>   -13.3256     0.0000     0.0000     0.0000     0.0000     0.0000     0.0000     0.0000     0.0000     0.0000 </r>
        <r>   -13.2370     0.0000     0.0078     0.0076     0.0078     3.6498     3.0309     3.1385     2.9727     2.4967 </r>
        <r>   -13.1484     0.0000     0.0000     0.0000     0.0000     0.0000     0.0000     0.0000     0.0000     0.0000 </r>
        <r>   -13.0598     0.0000     0.0007     0.0007     0.0007     3.6910     3.0144     3.1412     3.0164     2.5194 </r>
        <r>   -12.9712     0.0003     0.0000     0.0000     0.0000     2.8002     3.9348     3.7649     3.9586     4.5706 </r>
        <r>   -12.8826     0.0000     0.0000     0.0000     0.0000     0.0000     0.0000     0.0000     0.0000     0.0000 </r>
        <r>   -12.7939     0.0000     0.0000     0.0000     0.0000     0.0000     0.0000     0.0000     0.0000     0.0000 </r>
        <r>   -12.7053     0.0000     0.0000     0.0000     0.0000     0.0000     0.0000     0.0000     0.0000     0.0000 </r>
        <r>   -12.6167     0.0000     0.0000     0.0000     0.0000     0.0000     0.0000     0.0000     0.0000     0.0000 </r>
        <r>   -12.5281     0.0000     0.0000     0.0000     0.0000     0.0000     0.0000     0.0000     0.0000     0.0000 </r>
        <r>   -12.4395     0.0000     0.0000     0.0000     0.0000     0.0000     0.0000     0.0000     0.0000     0.0000 </r>
        <r>   -12.3509     0.0000     0.0000     0.0000     0.0000     0.0000     0.0000     0.0000     0.0000     0.0000 </r>
        <r>   -12.2622     0.0000     0.0000     0.0000     0.0000     0.0000     0.0000     0.0000     0.0000     0.0000 </r>
        <r>   -12.1736     0.0000     0.0000     0.0000     0.0000     0.0000     0.0000     0.0000     0.0000     0.0000 </r>
        <r>   -12.0850     0.0000     0.0000     0.0000     0.0000     0.0000     0.0000     0.0000     0.0000     0.0000 </r>
        <r>   -11.9964     0.0000     0.0000     0.0000     0.0000     0.0000     0.0000     0.0000     0.0000     0.0000 </r>
        <r>   -11.9078     0.0000     0.0000     0.0000     0.0000     0.0000     0.0000     0.0000     0.0000     0.0000 </r>
        <r>   -11.8191     0.0000     0.0000     0.0000     0.0000     0.0000     0.0000     0.0000     0.0000     0.0000 </r>
        <r>   -11.7305     0.0000     0.0000     0.0000     0.0000     0.0000     0.0000     0.0000     0.0000     0.0000 </r>
        <r>   -11.6419     0.0000     0.0000     0.0000     0.0000     0.0000     0.0000     0.0000     0.0000     0.0000 </r>
        <r>   -11.5533     0.0000     0.0000     0.0000     0.0000     0.0000     0.0000     0.0000     0.0000     0.0000 </r>
        <r>   -11.4647     0.0005     0.0000     0.0000     0.0000     0.0000     0.0000     0.0000     0.0000     0.0000 </r>
        <r>   -11.3761     0.3645     0.0000     0.0000     0.0000     0.0007     0.0009     0.0009     0.0008     0.0006 </r>
        <r>   -11.2874     0.0000     0.0000     0.0000     0.0000     0.0000     0.0000     0.0000     0.0000     0.0000 </r>
        <r>   -11.1988     0.0000     0.0000     0.0000     0.0000     0.0000     0.0000     0.0000     0.0000     0.0000 </r>
        <r>   -11.1102     0.0000     0.0000     0.0000     0.0000     0.0000     0.0000     0.0000     0.0000     0.0000 </r>
        <r>   -11.0216     0.0000     0.0000     0.0000     0.0000     0.0000     0.0000     0.0000     0.0000     0.0000 </r>
        <r>   -10.9330     0.0000     0.0000     0.0000     0.0000     0.0000     0.0000     0.0000     0.0000     0.0000 </r>
        <r>   -10.8444     0.0000     0.0000     0.0000     0.0000     0.0000     0.0000     0.0000     0.0000     0.0000 </r>
        <r>   -10.7557     0.0000     0.0000     0.0000     0.0000     0.0000     0.0000     0.0000     0.0000     0.0000 </r>
        <r>   -10.6671     0.0000     0.0000     0.0000     0.0000     0.0000     0.0000     0.0000     0.0000     0.0000 </r>
        <r>   -10.5785     0.0000     0.0000     0.0000     0.0000     0.0000     0.0000     0.0000     0.0000     0.0000 </r>
        <r>   -10.4899     0.0000     0.0000     0.0000     0.0000     0.0000     0.0000     0.0000     0.0000     0.0000 </r>
        <r>   -10.4013     0.0000     0.0000     0.0000     0.0000     0.0000     0.0000     0.0000     0.0000     0.0000 </r>
        <r>   -10.3127     0.0000     0.0000     0.0000     0.0000     0.0000     0.0000     0.0000     0.0000     0.0000 </r>
        <r>   -10.2240     0.0000     0.0000     0.0000     0.0000     0.0000     0.0000     0.0000     0.0000     0.0000 </r>
        <r>   -10.1354     0.0000     0.0000     0.0000     0.0000     0.0000     0.0000     0.0000     0.0000     0.0000 </r>
        <r>   -10.0468     0.0000     0.0000     0.0000     0.0000     0.0000     0.0000     0.0000     0.0000     0.0000 </r>
        <r>    -9.9582     0.0000     0.0718     0.0671     0.0725     0.2255     0.2069     0.2160     0.2050     0.1772 </r>
        <r>    -9.8696     0.0000     0.0000     0.0000     0.0000     0.0000     0.0000     0.0000     0.0000     0.0000 </r>
        <r>    -9.7809     0.0000     0.0000     0.0000     0.0000     0.0000     0.0000     0.0000     0.0000     0.0000 </r>
        <r>    -9.6923     0.0000     0.0000     0.0000     0.0000     0.0000     0.0000     0.0000     0.0000     0.0000 </r>
        <r>    -9.6037     0.0000     0.0000     0.0000     0.0000     0.0000     0.0000     0.0000     0.0000     0.0000 </r>
        <r>    -9.5151     0.0000     0.0000     0.0000     0.0000     0.0000     0.0000     0.0000     0.0000     0.0000 </r>
        <r>    -9.4265     0.0000     0.0000     0.0000     0.0000     0.0000     0.0000     0.0000     0.0000     0.0000 </r>
        <r>    -9.3379     0.0000     0.0000     0.0000     0.0000     0.0000     0.0000     0.0000     0.0000     0.0000 </r>
        <r>    -9.2492     0.0000     0.0000     0.0000     0.0000     0.0000     0.0000     0.0000     0.0000     0.0000 </r>
        <r>    -9.1606     0.0000     0.0000     0.0000     0.0000     0.0000     0.0000     0.0000     0.0000     0.0000 </r>
        <r>    -9.0720     0.0000     0.0000     0.0000     0.0000     0.0000     0.0000     0.0000     0.0000     0.0000 </r>
        <r>    -8.9834     0.0000     0.0000     0.0000     0.0000     0.0000     0.0000     0.0000     0.0000     0.0000 </r>
        <r>    -8.8948     0.0000     0.0000     0.0000     0.0000     0.0000     0.0000     0.0000     0.0000     0.0000 </r>
        <r>    -8.8062     0.0000     0.0000     0.0000     0.0000     0.0000     0.0000     0.0000     0.0000     0.0000 </r>
        <r>    -8.7175     0.0000     0.0000     0.0000     0.0000     0.0000     0.0000     0.0000     0.0000     0.0000 </r>
        <r>    -8.6289     0.0000     0.0000     0.0000     0.0000     0.0000     0.0000     0.0000     0.0000     0.0000 </r>
        <r>    -8.5403     0.0000     0.0000     0.0000     0.0000     0.0000     0.0000     0.0000     0.0000     0.0000 </r>
        <r>    -8.4517     0.0000     0.0000     0.0000     0.0000     0.0000     0.0000     0.0000     0.0000     0.0000 </r>
        <r>    -8.3631     0.0000     0.0000     0.0000     0.0000     0.0000     0.0000     0.0000     0.0000     0.0000 </r>
        <r>    -8.2744     0.0000     0.0000     0.0000     0.0000     0.0000     0.0000     0.0000     0.0000     0.0000 </r>
        <r>    -8.1858     0.0000     0.0000     0.0000     0.0000     0.0000     0.0000     0.0000     0.0000     0.0000 </r>
        <r>    -8.0972     0.0000     0.0000     0.0000     0.0000     0.0000     0.0000     0.0000     0.0000     0.0000 </r>
        <r>    -8.0086     0.0000     0.0000     0.0000     0.0000     0.0000     0.0000     0.0000     0.0000     0.0000 </r>
        <r>    -7.9200     0.0000     0.0000     0.0000     0.0000     0.0000     0.0000     0.0000     0.0000     0.0000 </r>
        <r>    -7.8314     0.0000     0.0000     0.0000     0.0000     0.0000     0.0000     0.0000     0.0000     0.0000 </r>
        <r>    -7.7427     0.0000     0.0000     0.0000     0.0000     0.0000     0.0000     0.0000     0.0000     0.0000 </r>
        <r>    -7.6541     0.0000     0.0000     0.0000     0.0000     0.0000     0.0000     0.0000     0.0000     0.0000 </r>
        <r>    -7.5655     0.0000     0.0000     0.0000     0.0000     0.0000     0.0000     0.0000     0.0000     0.0000 </r>
        <r>    -7.4769     0.0000     0.0000     0.0000     0.0000     0.0000     0.0000     0.0000     0.0000     0.0000 </r>
        <r>    -7.3883     0.0000     0.0000     0.0000     0.0000     0.0000     0.0000     0.0000     0.0000     0.0000 </r>
        <r>    -7.2997     0.0000     0.0000     0.0000     0.0000     0.0000     0.0000     0.0000     0.0000     0.0000 </r>
        <r>    -7.2110     0.0000     0.0000     0.0000     0.0000     0.0000     0.0000     0.0000     0.0000     0.0000 </r>
        <r>    -7.1224     0.0000     0.0000     0.0000     0.0000     0.0000     0.0000     0.0000     0.0000     0.0000 </r>
        <r>    -7.0338     0.0000     0.0000     0.0000     0.0000     0.0000     0.0000     0.0000     0.0000     0.0000 </r>
        <r>    -6.9452     0.0000     0.0000     0.0000     0.0000     0.0000     0.0000     0.0000     0.0000     0.0000 </r>
        <r>    -6.8566     0.0000     0.0000     0.0000     0.0000     0.0000     0.0000     0.0000     0.0000     0.0000 </r>
        <r>    -6.7680     0.0000     0.0000     0.0000     0.0000     0.0000     0.0000     0.0000     0.0000     0.0000 </r>
        <r>    -6.6793     0.0000     0.0000     0.0000     0.0000     0.0000     0.0000     0.0000     0.0000     0.0000 </r>
        <r>    -6.5907     0.0000     0.0000     0.0000     0.0000     0.0000     0.0000     0.0000     0.0000     0.0000 </r>
        <r>    -6.5021     0.0000     0.0000     0.0000     0.0000     0.0000     0.0000     0.0000     0.0000     0.0000 </r>
        <r>    -6.4135     0.0000     0.0000     0.0000     0.0000     0.0000     0.0000     0.0000     0.0000     0.0000 </r>
        <r>    -6.3249     0.0000     0.0000     0.0000     0.0000     0.0000     0.0000     0.0000     0.0000     0.0000 </r>
        <r>    -6.2362     0.0000     0.0000     0.0000     0.0000     0.0000     0.0000     0.0000     0.0000     0.0000 </r>
        <r>    -6.1476     0.0000     0.0000     0.0000     0.0000     0.0000     0.0000     0.0000     0.0000     0.0000 </r>
        <r>    -6.0590     0.0000     0.0000     0.0000     0.0000     0.0000     0.0000     0.0000     0.0000     0.0000 </r>
        <r>    -5.9704     0.0000     0.0000     0.0000     0.0000     0.0000     0.0000     0.0000     0.0000     0.0000 </r>
        <r>    -5.8818     0.0000     0.0000     0.0000     0.0000     0.0000     0.0000     0.0000     0.0000     0.0000 </r>
        <r>    -5.7932     0.0000     0.0000     0.0000     0.0000     0.0000     0.0000     0.0000     0.0000     0.0000 </r>
        <r>    -5.7045     0.0000     0.0000     0.0000     0.0000     0.0000     0.0000     0.0000     0.0000     0.0000 </r>
        <r>    -5.6159     0.0000     0.0000     0.0000     0.0000     0.0000     0.0000     0.0000     0.0000     0.0000 </r>
        <r>    -5.5273     0.0000     0.0000     0.0000     0.0000     0.0000     0.0000     0.0000     0.0000     0.0000 </r>
        <r>    -5.4387     0.0000     0.0000     0.0000     0.0000     0.0000     0.0000     0.0000     0.0000     0.0000 </r>
        <r>    -5.3501     0.0000     0.0000     0.0000     0.0000     0.0000     0.0000     0.0000     0.0000     0.0000 </r>
        <r>    -5.2615     0.0000     0.0000     0.0000     0.0000     0.0000     0.0000     0.0000     0.0000     0.0000 </r>
        <r>    -5.1728     0.0000     0.0000     0.0000     0.0000     0.0000     0.0000     0.0000     0.0000     0.0000 </r>
        <r>    -5.0842     0.0000     0.0000     0.0000     0.0000     0.0000     0.0000     0.0000     0.0000     0.0000 </r>
        <r>    -4.9956     0.0000     0.0000     0.0000     0.0000     0.0000     0.0000     0.0000     0.0000     0.0000 </r>
        <r>    -4.9070     0.0000     0.0000     0.0000     0.0000     0.0000     0.0000     0.0000     0.0000     0.0000 </r>
        <r>    -4.8184     0.0000     0.0000     0.0000     0.0000     0.0000     0.0000     0.0000     0.0000     0.0000 </r>
        <r>    -4.7298     0.0000     0.0000     0.0000     0.0000     0.0000     0.0000     0.0000     0.0000     0.0000 </r>
        <r>    -4.6411     0.0000     0.0000     0.0000     0.0000     0.0000     0.0000     0.0000     0.0000     0.0000 </r>
        <r>    -4.5525     0.0000     0.0000     0.0000     0.0000     0.0000     0.0000     0.0000     0.0000     0.0000 </r>
        <r>    -4.4639     0.0000     0.0000     0.0000     0.0000     0.0000     0.0000     0.0000     0.0000     0.0000 </r>
        <r>    -4.3753     0.0000     0.0000     0.0000     0.0000     0.0000     0.0000     0.0000     0.0000     0.0000 </r>
        <r>    -4.2867     0.0000     0.0000     0.0000     0.0000     0.0000     0.0000     0.0000     0.0000     0.0000 </r>
        <r>    -4.1980     0.0000     0.0000     0.0000     0.0000     0.0000     0.0000     0.0000     0.0000     0.0000 </r>
        <r>    -4.1094     0.0000     0.0000     0.0000     0.0000     0.0000     0.0000     0.0000     0.0000     0.0000 </r>
        <r>    -4.0208     0.0000     0.0000     0.0000     0.0000     0.0000     0.0000     0.0000     0.0000     0.0000 </r>
        <r>    -3.9322     0.0000     0.0000     0.0000     0.0000     0.0000     0.0000     0.0000     0.0000     0.0000 </r>
        <r>    -3.8436     0.0000     0.0000     0.0000     0.0000     0.0000     0.0000     0.0000     0.0000     0.0000 </r>
        <r>    -3.7550     0.0000     0.0000     0.0000     0.0000     0.0000     0.0000     0.0000     0.0000     0.0000 </r>
        <r>    -3.6663     0.0000     0.0000     0.0000     0.0000     0.0000     0.0000     0.0000     0.0000     0.0000 </r>
        <r>    -3.5777     0.0000     0.0000     0.0000     0.0000     0.0000     0.0000     0.0000     0.0000     0.0000 </r>
        <r>    -3.4891     0.0000     0.0000     0.0000     0.0000     0.0000     0.0000     0.0000     0.0000     0.0000 </r>
        <r>    -3.4005     0.0000     0.0000     0.0000     0.0000     0.0000     0.0000     0.0000     0.0000     0.0000 </r>
        <r>    -3.3119     0.0000     0.0000     0.0000     0.0000     0.0000     0.0000     0.0000     0.0000     0.0000 </r>
        <r>    -3.2233     2.2381     0.0000     0.0000     0.0000     0.0017     0.0022     0.0022     0.0020     0.0014 </r>
        <r>    -3.1346     0.0000     0.0000     0.0000     0.0000     0.0000     0.0000     0.0000     0.0000     0.0000 </r>
        <r>    -3.0460     0.0000     0.0000     0.0000     0.0000     0.0000     0.0000     0.0000     0.0000     0.0000 </r>
        <r>    -2.9574     0.0000     0.0000     0.0000     0.0000     0.0000     0.0000     0.0000     0.0000     0.0000 </r>
        <r>    -2.8688     0.0000     0.0000     0.0000     0.0000     0.0000     0.0000     0.0000     0.0000     0.0000 </r>
        <r>    -2.7802     0.0000     0.0000     0.0000     0.0000     0.0000     0.0000     0.0000     0.0000     0.0000 </r>
        <r>    -2.6916     0.0000     0.0000     0.0000     0.0000     0.0000     0.0000     0.0000     0.0000     0.0000 </r>
        <r>    -2.6029     0.0000     0.0000     0.0000     0.0000     0.0000     0.0000     0.0000     0.0000     0.0000 </r>
        <r>    -2.5143     0.0000     0.0000     0.0000     0.0000     0.0000     0.0000     0.0000     0.0000     0.0000 </r>
        <r>    -2.4257     1.6203     0.0000     0.0000     0.0000     0.0008     0.0010     0.0010     0.0009     0.0006 </r>
        <r>    -2.3371     0.0000     0.0000     0.0000     0.0000     0.0000     0.0000     0.0000     0.0000     0.0000 </r>
        <r>    -2.2485     0.0000     0.0000     0.0000     0.0000     0.0000     0.0000     0.0000     0.0000     0.0000 </r>
        <r>    -2.1598     0.0000     0.0000     0.0000     0.0000     0.0000     0.0000     0.0000     0.0000     0.0000 </r>
        <r>    -2.0712     0.0000     0.0000     0.0000     0.0000     0.0000     0.0000     0.0000     0.0000     0.0000 </r>
        <r>    -1.9826     0.0000     0.0000     0.0000     0.0000     0.0000     0.0000     0.0000     0.0000     0.0000 </r>
        <r>    -1.8940     0.0000     0.0000     0.0000     0.0000     0.0000     0.0000     0.0000     0.0000     0.0000 </r>
[...]
        <r>  0.0000  0.0057  0.0023  0.0002  0.0013  0.0642  0.0209  0.0465  0.0588 </r>
        <r>  0.0000  0.0011  0.0024  0.0047  0.0145  0.0286  0.0170  0.0853  0.0462 </r>
        <r>  0.0000  0.0004  0.0019  0.0647  0.0000  0.0002  0.0001  0.0003  0.0000 </r>
        <r>  0.0000  0.0105  0.0328  0.0237  0.0000  0.0001  0.0000  0.0000  0.0005 </r>
        <r>  0.0000  0.0143  0.0329  0.0179  0.0000  0.0000  0.0000  0.0001  0.0004 </r>
        <r>  0.0000  0.0614  0.0029  0.0008  0.0000  0.0002  0.0000  0.0003  0.0000 </r>
       </set>
       <set comment="band 25">
        <r>  0.0000  0.0081  0.0066  0.0052  0.0010  0.0000  0.0026  0.0007  0.0000 </r>
        <r>  0.0000  0.0085  0.0066  0.0047  0.0007  0.0007  0.0027  0.0000  0.0003 </r>
        <r>  0.0000  0.0009  0.0004  0.0069  0.0420  0.0002  0.1065  0.0390  0.0039 </r>
        <r>  0.0000  0.0055  0.0003  0.0024  0.0288  0.0357  0.1104  0.0002  0.0165 </r>
        <r>  0.0000  0.0004  0.0488  0.0160  0.0000  0.0002  0.0003  0.0000  0.0000 </r>
        <r>  0.0000  0.0115  0.0002  0.0534  0.0001  0.0000  0.0002  0.0000  0.0003 </r>
        <r>  0.0000  0.0641  0.0000  0.0028  0.0002  0.0000  0.0002  0.0000  0.0002 </r>
        <r>  0.0000  0.0170  0.0478  0.0022  0.0000  0.0000  0.0003  0.0002  0.0000 </r>
       </set>
       <set comment="band 26">
        <r>  0.0000  0.0015  0.0049  0.0010  0.0036  0.0003  0.0004  0.0010  0.0001 </r>
        <r>  0.0000  0.0015  0.0049  0.0010  0.0027  0.0011  0.0004  0.0001  0.0009 </r>
        <r>  0.0000  0.0000  0.0001  0.0000  0.1417  0.0654  0.0206  0.0035  0.0596 </r>
        <r>  0.0000  0.0000  0.0001  0.0000  0.1953  0.0119  0.0206  0.0570  0.0061 </r>
        <r>  0.0000  0.0026  0.0382  0.0076  0.0005  0.0001  0.0000  0.0000  0.0000 </r>
        <r>  0.0000  0.0197  0.0240  0.0048  0.0001  0.0000  0.0002  0.0002  0.0001 </r>
        <r>  0.0000  0.0091  0.0240  0.0153  0.0001  0.0002  0.0002  0.0000  0.0000 </r>
        <r>  0.0000  0.0091  0.0383  0.0011  0.0004  0.0000  0.0000  0.0001  0.0001 </r>
       </set>
       <set comment="band 27">
        <r>  0.0000  0.0005  0.0018  0.0004  0.0000  0.0000  0.0000  0.0000  0.0000 </r>
        <r>  0.0000  0.0005  0.0018  0.0004  0.0000  0.0000  0.0000  0.0000  0.0000 </r>
        <r>  0.0000  0.0001  0.0002  0.0000  0.2824  0.0082  0.0281  0.1041  0.0293 </r>
        <r>  0.0000  0.0001  0.0002  0.0000  0.1788  0.1118  0.0281  0.0006  0.1330 </r>
        <r>  0.0003  0.0000  0.0000  0.0002  0.0001  0.0007  0.0000  0.0001  0.0008 </r>
        <r>  0.0003  0.0000  0.0000  0.0002  0.0000  0.0000  0.0009  0.0008  0.0000 </r>
        <r>  0.0003  0.0002  0.0000  0.0000  0.0000  0.0007  0.0009  0.0001  0.0000 </r>
        <r>  0.0003  0.0002  0.0000  0.0000  0.0005  0.0003  0.0000  0.0006  0.0004 </r>
       </set>
       <set comment="band 28">
        <r>  0.0227  0.0000  0.0000  0.0000  0.0000  0.0000  0.0000  0.0000  0.0000 </r>
        <r>  0.0227  0.0000  0.0000  0.0000  0.0000  0.0000  0.0000  0.0000  0.0000 </r>
        <r>  0.0016  0.0000  0.0000  0.0000  0.0342  0.1728  0.1094  0.1155  0.0014 </r>
        <r>  0.0016  0.0000  0.0000  0.0000  0.0343  0.1732  0.1096  0.1156  0.0014 </r>
        <r>  0.0000  0.0006  0.0000  0.0000  0.0006  0.0001  0.0004  0.0004  0.0001 </r>
        <r>  0.0000  0.0003  0.0003  0.0001  0.0014  0.0003  0.0000  0.0000  0.0000 </r>
        <r>  0.0000  0.0000  0.0003  0.0003  0.0012  0.0000  0.0000  0.0003  0.0002 </r>
        <r>  0.0000  0.0000  0.0000  0.0006  0.0007  0.0005  0.0004  0.0000  0.0000 </r>
       </set>
       <set comment="band 29">
        <r>  0.0055  0.0000  0.0000  0.0000  0.0000  0.0000  0.0000  0.0000  0.0000 </r>
        <r>  0.0055  0.0000  0.0000  0.0000  0.0000  0.0000  0.0000  0.0000  0.0000 </r>
        <r>  0.0007  0.0000  0.0000  0.0000  0.0366  0.1843  0.1169  0.1232  0.0015 </r>
        <r>  0.0007  0.0000  0.0000  0.0000  0.0366  0.1840  0.1167  0.1230  0.0015 </r>
        <r>  0.0004  0.0000  0.0000  0.0000  0.0001  0.0007  0.0000  0.0001  0.0000 </r>
        <r>  0.0004  0.0000  0.0000  0.0000  0.0000  0.0001  0.0005  0.0003  0.0000 </r>
        <r>  0.0004  0.0000  0.0000  0.0000  0.0000  0.0004  0.0005  0.0000  0.0001 </r>
        <r>  0.0004  0.0000  0.0000  0.0000  0.0002  0.0002  0.0000  0.0006  0.0000 </r>
       </set>
       <set comment="band 30">
        <r>  0.0000  0.0021  0.0069  0.0014  0.0013  0.0000  0.0001  0.0006  0.0002 </r>
        <r>  0.0000  0.0021  0.0069  0.0014  0.0007  0.0006  0.0001  0.0000  0.0008 </r>
        <r>  0.0000  0.0005  0.0018  0.0004  0.0292  0.0385  0.0006  0.0919  0.2357 </r>
        <r>  0.0000  0.0005  0.0018  0.0004  0.0010  0.0666  0.0006  0.0639  0.2639 </r>
        <r>  0.0000  0.0075  0.0096  0.0019  0.0000  0.0000  0.0001  0.0001  0.0000 </r>
        <r>  0.0000  0.0189  0.0000  0.0000  0.0001  0.0000  0.0001  0.0001  0.0000 </r>
        <r>  0.0000  0.0007  0.0000  0.0183  0.0000  0.0001  0.0001  0.0000  0.0001 </r>
        <r>  0.0000  0.0007  0.0096  0.0087  0.0000  0.0001  0.0001  0.0000  0.0001 </r>
       </set>
       <set comment="band 31">
        <r>  0.0000  0.0035  0.0002  0.0015  0.0000  0.0002  0.0001  0.0001  0.0001 </r>
        <r>  0.0000  0.0000  0.0009  0.0043  0.0000  0.0001  0.0000  0.0003  0.0002 </r>
        <r>  0.0000  0.0011  0.0009  0.0114  0.0033  0.0866  0.0009  0.1224  0.1005 </r>
        <r>  0.0000  0.0055  0.0000  0.0078  0.0021  0.1046  0.0331  0.0775  0.0964 </r>
        <r>  0.0008  0.0242  0.0010  0.0062  0.0005  0.0000  0.0000  0.0000  0.0003 </r>
        <r>  0.0008  0.0093  0.0060  0.0161  0.0002  0.0001  0.0001  0.0004  0.0000 </r>
        <r>  0.0021  0.0190  0.0003  0.0082  0.0002  0.0002  0.0000  0.0005  0.0001 </r>
        <r>  0.0021  0.0101  0.0027  0.0147  0.0000  0.0000  0.0001  0.0000  0.0008 </r>
       </set>
       <set comment="band 32">
        <r>  0.0000  0.0007  0.0015  0.0030  0.0001  0.0000  0.0002  0.0002  0.0000 </r>
        <r>  0.0000  0.0042  0.0008  0.0002  0.0001  0.0001  0.0004  0.0000  0.0000 </r>
        <r>  0.0000  0.0096  0.0036  0.0002  0.0676  0.0188  0.2077  0.0176  0.0021 </r>
        <r>  0.0000  0.0052  0.0044  0.0038  0.0688  0.0007  0.1755  0.0625  0.0062 </r>
        <r>  0.0021  0.0098  0.0031  0.0146  0.0001  0.0002  0.0002  0.0000  0.0005 </r>
        <r>  0.0021  0.0038  0.0157  0.0081  0.0000  0.0006  0.0001  0.0000  0.0002 </r>
        <r>  0.0008  0.0022  0.0213  0.0079  0.0001  0.0001  0.0003  0.0003  0.0001 </r>
        <r>  0.0008  0.0111  0.0014  0.0189  0.0005  0.0000  0.0001  0.0002  0.0000 </r>
       </set>
       <set comment="band 33">
        <r>  0.0000  0.0015  0.0049  0.0010  0.0003  0.0005  0.0001  0.0000  0.0009 </r>
        <r>  0.0000  0.0015  0.0049  0.0010  0.0008  0.0000  0.0001  0.0005  0.0004 </r>
        <r>  0.0000  0.0013  0.0045  0.0009  0.0247  0.0927  0.0074  0.0225  0.2298 </r>
        <r>  0.0000  0.0013  0.0045  0.0009  0.1100  0.0075  0.0074  0.1077  0.1444 </r>
        <r>  0.0006  0.0000  0.0031  0.0155  0.0001  0.0003  0.0000  0.0000  0.0003 </r>
        <r>  0.0006  0.0000  0.0031  0.0155  0.0000  0.0002  0.0001  0.0000  0.0003 </r>
        <r>  0.0006  0.0149  0.0031  0.0006  0.0000  0.0000  0.0001  0.0002  0.0004 </r>
        <r>  0.0006  0.0149  0.0031  0.0006  0.0000  0.0000  0.0000  0.0003  0.0003 </r>
       </set>
       <set comment="band 34">
        <r>  0.0000  0.0029  0.0016  0.0006  0.0023  0.0009  0.0072  0.0004  0.0002 </r>
        <r>  0.0000  0.0009  0.0016  0.0027  0.0023  0.0009  0.0072  0.0004  0.0002 </r>
        <r>  0.0000  0.0019  0.0026  0.0038  0.0323  0.0160  0.1062  0.0034  0.0038 </r>
        <r>  0.0000  0.0041  0.0027  0.0015  0.0345  0.0108  0.1074  0.0075  0.0014 </r>
        <r>  0.0013  0.0422  0.0237  0.0304  0.0001  0.0000  0.0000  0.0003  0.0002 </r>
        <r>  0.0013  0.0322  0.0407  0.0234  0.0002  0.0000  0.0000  0.0003  0.0002 </r>
        <r>  0.0011  0.0270  0.0420  0.0288  0.0001  0.0002  0.0000  0.0000  0.0003 </r>
        <r>  0.0011  0.0375  0.0231  0.0373  0.0000  0.0003  0.0000  0.0000  0.0003 </r>
       </set>
       <set comment="band 35">
        <r>  0.0000  0.0012  0.0001  0.0039  0.0002  0.0028  0.0000  0.0045  0.0034 </r>
        <r>  0.0000  0.0033  0.0002  0.0017  0.0002  0.0028  0.0000  0.0045  0.0034 </r>
        <r>  0.0000  0.0047  0.0001  0.0034  0.0043  0.0383  0.0012  0.0687  0.0491 </r>
        <r>  0.0000  0.0025  0.0000  0.0057  0.0021  0.0434  0.0000  0.0646  0.0515 </r>
        <r>  0.0011  0.0519  0.0001  0.0458  0.0001  0.0000  0.0001  0.0000  0.0004 </r>
        <r>  0.0011  0.0396  0.0018  0.0565  0.0002  0.0001  0.0001  0.0001  0.0002 </r>
        <r>  0.0013  0.0448  0.0004  0.0510  0.0003  0.0001  0.0001  0.0001  0.0001 </r>
        <r>  0.0013  0.0344  0.0007  0.0611  0.0003  0.0000  0.0001  0.0001  0.0002 </r>
       </set>
       <set comment="band 36">
        <r>  0.0000  0.0006  0.0021  0.0004  0.0064  0.0014  0.0008  0.0008  0.0004 </r>
        <r>  0.0000  0.0006  0.0021  0.0004  0.0066  0.0012  0.0008  0.0010  0.0002 </r>
        <r>  0.0000  0.0022  0.0074  0.0015  0.1152  0.0226  0.0142  0.0155  0.0045 </r>
        <r>  0.0000  0.0022  0.0074  0.0015  0.1147  0.0231  0.0142  0.0150  0.0050 </r>
        <r>  0.0000  0.0304  0.0544  0.0108  0.0000  0.0000  0.0002  0.0002  0.0001 </r>
        <r>  0.0000  0.0097  0.0717  0.0142  0.0002  0.0000  0.0001  0.0001  0.0000 </r>
        <r>  0.0000  0.0186  0.0717  0.0053  0.0001  0.0001  0.0001  0.0001  0.0001 </r>
        <r>  0.0000  0.0186  0.0544  0.0226  0.0000  0.0002  0.0002  0.0000  0.0001 </r>
       </set>
       <set comment="band 37">
        <r>  0.0974  0.0000  0.0000  0.0000  0.0000  0.0000  0.0000  0.0000  0.0000 </r>
        <r>  0.0974  0.0000  0.0000  0.0000  0.0000  0.0000  0.0000  0.0000  0.0000 </r>
        <r>  0.0434  0.0000  0.0000  0.0000  0.0002  0.0009  0.0006  0.0006  0.0000 </r>
        <r>  0.0434  0.0000  0.0000  0.0000  0.0002  0.0009  0.0006  0.0006  0.0000 </r>
        <r>  0.0480  0.0000  0.0047  0.0236  0.0000  0.0000  0.0000  0.0000  0.0000 </r>
        <r>  0.0480  0.0000  0.0047  0.0237  0.0000  0.0000  0.0000  0.0000  0.0000 </r>
        <r>  0.0480  0.0228  0.0047  0.0009  0.0000  0.0000  0.0000  0.0000  0.0000 </r>
        <r>  0.0480  0.0227  0.0047  0.0009  0.0000  0.0000  0.0000  0.0000  0.0000 </r>
       </set>
       <set comment="band 38">
        <r>  0.0000  0.0113  0.0382  0.0076  0.0091  0.0016  0.0011  0.0014  0.0002 </r>
        <r>  0.0000  0.0113  0.0382  0.0076  0.0087  0.0020  0.0011  0.0010  0.0006 </r>
        <r>  0.0000  0.0032  0.0106  0.0021  0.0183  0.0034  0.0022  0.0026  0.0006 </r>
        <r>  0.0000  0.0032  0.0106  0.0021  0.0179  0.0038  0.0022  0.0022  0.0009 </r>
        <r>  0.0115  0.0000  0.0009  0.0046  0.0006  0.0028  0.0026  0.0025  0.0000 </r>
        <r>  0.0115  0.0000  0.0009  0.0046  0.0008  0.0039  0.0017  0.0020  0.0001 </r>
        <r>  0.0115  0.0044  0.0009  0.0002  0.0009  0.0032  0.0017  0.0028  0.0000 </r>
        <r>  0.0115  0.0044  0.0009  0.0002  0.0005  0.0035  0.0026  0.0018  0.0001 </r>
       </set>
       <set comment="band 39">
        <r>  0.1282  0.0000  0.0000  0.0000  0.0004  0.0019  0.0012  0.0013  0.0000 </r>
        <r>  0.1282  0.0000  0.0000  0.0000  0.0004  0.0019  0.0012  0.0013  0.0000 </r>
        <r>  0.0077  0.0000  0.0000  0.0000  0.0033  0.0166  0.0105  0.0111  0.0001 </r>
        <r>  0.0077  0.0000  0.0000  0.0000  0.0033  0.0166  0.0105  0.0111  0.0001 </r>
        <r>  0.0000  0.0070  0.0394  0.0078  0.0034  0.0007  0.0019  0.0020  0.0006 </r>
        <r>  0.0000  0.0502  0.0034  0.0007  0.0071  0.0014  0.0000  0.0001  0.0000 </r>
        <r>  0.0000  0.0049  0.0034  0.0459  0.0063  0.0002  0.0000  0.0013  0.0009 </r>
        <r>  0.0000  0.0049  0.0394  0.0100  0.0041  0.0024  0.0019  0.0003  0.0000 </r>
       </set>
       <set comment="band 40">
        <r>  0.0000  0.0391  0.0002  0.0441  0.0012  0.0018  0.0015  0.0061  0.0031 </r>
        <r>  0.0000  0.0054  0.0063  0.0717  0.0010  0.0040  0.0050  0.0010  0.0028 </r>
        <r>  0.0000  0.0009  0.0002  0.0042  0.0019  0.0012  0.0031  0.0063  0.0026 </r>
        <r>  0.0000  0.0017  0.0000  0.0035  0.0016  0.0038  0.0072  0.0004  0.0022 </r>
        <r>  0.0006  0.0019  0.0176  0.0038  0.0004  0.0043  0.0003  0.0084  0.0007 </r>
        <r>  0.0006  0.0082  0.0128  0.0023  0.0004  0.0004  0.0002  0.0000  0.0130 </r>
        <r>  0.0002  0.0102  0.0296  0.0145  0.0000  0.0001  0.0001  0.0007  0.0084 </r>
        <r>  0.0002  0.0107  0.0414  0.0022  0.0000  0.0053  0.0001  0.0037  0.0001 </r>
       </set>
       <set comment="band 41">
        <r>  0.0000  0.0277  0.0275  0.0283  0.0019  0.0028  0.0076  0.0001  0.0014 </r>
        <r>  0.0000  0.0615  0.0213  0.0006  0.0021  0.0006  0.0041  0.0052  0.0017 </r>
        <r>  0.0000  0.0033  0.0016  0.0003  0.0015  0.0039  0.0070  0.0005  0.0023 </r>
        <r>  0.0000  0.0025  0.0017  0.0010  0.0018  0.0013  0.0029  0.0064  0.0027 </r>
        <r>  0.0002  0.0044  0.0418  0.0080  0.0008  0.0013  0.0046  0.0000  0.0025 </r>
        <r>  0.0002  0.0191  0.0292  0.0060  0.0017  0.0001  0.0026  0.0023  0.0025 </r>
        <r>  0.0006  0.0048  0.0124  0.0061  0.0040  0.0020  0.0027  0.0001  0.0054 </r>
        <r>  0.0006  0.0042  0.0180  0.0010  0.0001  0.0007  0.0047  0.0043  0.0043 </r>
       </set>
       <set comment="band 42">
        <r>  0.0000  0.0315  0.1061  0.0211  0.0004  0.0000  0.0000  0.0001  0.0000 </r>
        <r>  0.0000  0.0315  0.1061  0.0211  0.0003  0.0002  0.0000  0.0000  0.0002 </r>
        <r>  0.0000  0.0068  0.0230  0.0046  0.0000  0.0001  0.0000  0.0000  0.0001 </r>
        <r>  0.0000  0.0068  0.0230  0.0046  0.0001  0.0000  0.0000  0.0001  0.0001 </r>
        <r>  0.0000  0.0021  0.0045  0.0009  0.0129  0.0026  0.0026  0.0028  0.0009 </r>
        <r>  0.0000  0.0074  0.0001  0.0000  0.0159  0.0032  0.0011  0.0012  0.0004 </r>
        <r>  0.0000  0.0004  0.0001  0.0070  0.0153  0.0020  0.0011  0.0023  0.0010 </r>
        <r>  0.0000  0.0004  0.0045  0.0025  0.0135  0.0038  0.0026  0.0015  0.0003 </r>
       </set>
       <set comment="band 43">
        <r>  0.0000  0.0923  0.0279  0.0000  0.0000  0.0025  0.0004  0.0024  0.0025 </r>
        <r>  0.0000  0.0071  0.0303  0.0828  0.0003  0.0016  0.0002  0.0034  0.0022 </r>
        <r>  0.0000  0.0008  0.0041  0.0123  0.0001  0.0027  0.0013  0.0016  0.0023 </r>
        <r>  0.0000  0.0134  0.0038  0.0000  0.0007  0.0010  0.0010  0.0035  0.0018 </r>
        <r>  0.0059  0.0010  0.0027  0.0097  0.0010  0.0005  0.0100  0.0004  0.0030 </r>
        <r>  0.0059  0.0025  0.0099  0.0010  0.0036  0.0059  0.0040  0.0004  0.0011 </r>
        <r>  0.0068  0.0008  0.0093  0.0029  0.0019  0.0009  0.0039  0.0063  0.0028 </r>
        <r>  0.0068  0.0109  0.0019  0.0001  0.0026  0.0001  0.0105  0.0006  0.0020 </r>
       </set>
       <set comment="band 44">
        <r>  0.0000  0.0040  0.0120  0.1042  0.0018  0.0001  0.0048  0.0011  0.0000 </r>
        <r>  0.0000  0.0892  0.0095  0.0214  0.0014  0.0010  0.0050  0.0001  0.0003 </r>
        <r>  0.0000  0.0130  0.0015  0.0026  0.0017  0.0000  0.0040  0.0020  0.0003 </r>
        <r>  0.0000  0.0004  0.0019  0.0149  0.0011  0.0017  0.0043  0.0001  0.0009 </r>
        <r>  0.0068  0.0009  0.0109  0.0012  0.0013  0.0001  0.0010  0.0031  0.0103 </r>
        <r>  0.0068  0.0022  0.0013  0.0094  0.0005  0.0103  0.0003  0.0046  0.0002 </r>
        <r>  0.0059  0.0106  0.0019  0.0009  0.0005  0.0023  0.0004  0.0116  0.0001 </r>
        <r>  0.0059  0.0004  0.0116  0.0014  0.0000  0.0029  0.0006  0.0004  0.0109 </r>
       </set>
       <set comment="band 45">
        <r>  0.0617  0.0000  0.0000  0.0000  0.0003  0.0013  0.0008  0.0008  0.0000 </r>
        <r>  0.0617  0.0000  0.0000  0.0000  0.0002  0.0013  0.0008  0.0008  0.0000 </r>
        <r>  0.0860  0.0000  0.0000  0.0000  0.0005  0.0023  0.0015  0.0016  0.0000 </r>
        <r>  0.0860  0.0000  0.0000  0.0000  0.0005  0.0024  0.0015  0.0016  0.0000 </r>
        <r>  0.0071  0.0000  0.0089  0.0446  0.0009  0.0045  0.0045  0.0012  0.0030 </r>
        <r>  0.0071  0.0000  0.0089  0.0447  0.0008  0.0041  0.0048  0.0013  0.0030 </r>
        <r>  0.0071  0.0429  0.0089  0.0018  0.0023  0.0005  0.0048  0.0048  0.0016 </r>
        <r>  0.0071  0.0429  0.0089  0.0018  0.0024  0.0004  0.0045  0.0052  0.0015 </r>
       </set>
       <set comment="band 46">
        <r>  0.0203  0.0000  0.0000  0.0000  0.0013  0.0065  0.0041  0.0044  0.0001 </r>
        <r>  0.0203  0.0000  0.0000  0.0000  0.0013  0.0065  0.0041  0.0044  0.0001 </r>
        <r>  0.1001  0.0000  0.0000  0.0000  0.0000  0.0000  0.0000  0.0000  0.0000 </r>
        <r>  0.1001  0.0000  0.0000  0.0000  0.0000  0.0000  0.0000  0.0000  0.0000 </r>
        <r>  0.0000  0.0249  0.0117  0.0023  0.0154  0.0031  0.0010  0.0011  0.0003 </r>
        <r>  0.0000  0.0360  0.0025  0.0005  0.0015  0.0003  0.0080  0.0086  0.0027 </r>
        <r>  0.0000  0.0003  0.0025  0.0362  0.0031  0.0089  0.0080  0.0000  0.0011 </r>
        <r>  0.0000  0.0003  0.0117  0.0270  0.0115  0.0005  0.0010  0.0037  0.0043 </r>
       </set>
       <set comment="band 47">
        <r>  0.0000  0.0155  0.0104  0.0060  0.0000  0.0017  0.0007  0.0012  0.0016 </r>
        <r>  0.0000  0.0180  0.0101  0.0039  0.0002  0.0012  0.0001  0.0022  0.0016 </r>
        <r>  0.0000  0.0035  0.0066  0.0643  0.0000  0.0017  0.0002  0.0017  0.0017 </r>
        <r>  0.0000  0.0430  0.0013  0.0301  0.0000  0.0015  0.0000  0.0020  0.0017 </r>
        <r>  0.0159  0.0015  0.0001  0.0010  0.0001  0.0099  0.0027  0.0001  0.0085 </r>
        <r>  0.0159  0.0004  0.0020  0.0002  0.0012  0.0000  0.0024  0.0173  0.0003 </r>
        <r>  0.0084  0.0001  0.0028  0.0007  0.0009  0.0141  0.0001  0.0011  0.0018 </r>
        <r>  0.0084  0.0012  0.0000  0.0023  0.0005  0.0001  0.0041  0.0069  0.0064 </r>
       </set>
       <set comment="band 48">
        <r>  0.0000  0.0101  0.0001  0.0217  0.0011  0.0000  0.0028  0.0011  0.0001 </r>
        <r>  0.0000  0.0076  0.0005  0.0238  0.0010  0.0006  0.0034  0.0001  0.0001 </r>
        <r>  0.0000  0.0561  0.0180  0.0002  0.0012  0.0001  0.0033  0.0006  0.0000 </r>
        <r>  0.0000  0.0167  0.0233  0.0344  0.0012  0.0002  0.0035  0.0004  0.0000 </r>
        <r>  0.0084  0.0029  0.0003  0.0003  0.0045  0.0021  0.0023  0.0088  0.0003 </r>
        <r>  0.0084  0.0007  0.0012  0.0017  0.0013  0.0007  0.0146  0.0001  0.0013 </r>
        <r>  0.0159  0.0015  0.0003  0.0008  0.0001  0.0027  0.0169  0.0002  0.0013 </r>
        <r>  0.0159  0.0004  0.0003  0.0019  0.0063  0.0109  0.0008  0.0030  0.0003 </r>
       </set>
      </set>
     </set>
    </set>
   </array>
  </projected>
 </calculation>
 <structure name="finalpos" >
  <crystal>
   <varray name="basis" >
    <v>       5.30291920       0.00000000      -2.36402939 </v>
    <v>      -1.05387957       5.19714218      -2.36402972 </v>
    <v>       0.00000000       0.00000000       7.12968660 </v>
   </varray>
   <i name="volume">    196.49434127 </i>
   <varray name="rec_basis" >
    <v>       0.18857538       0.03823943       0.00000000 </v>
    <v>       0.00000000       0.19241344       0.00000000 </v>
    <v>       0.06252698       0.07647885       0.14025862 </v>
   </varray>
  </crystal>
  <varray name="positions" >
   <v>       0.50000000       0.50000000       0.00000000 </v>
   <v>       0.75000000       0.25000000       0.50000000 </v>
   <v>       0.00000000       0.00000000       0.00000000 </v>
   <v>       0.25000000       0.75000000       0.50000000 </v>
   <v>       0.34516103       0.37500000       0.25000000 </v>
   <v>       0.90483897       0.87500000       0.25000000 </v>
   <v>       0.12500000       0.65483897       0.75000000 </v>
   <v>       0.62500000       0.09516103       0.75000000 </v>
  </varray>
 </structure>
</modeling>
