<?xml version="1.0" encoding="ISO-8859-1"?>
<modeling>
 <generator>
  <i name="program" type="string">vasp </i>
  <i name="version" type="string">6.4.2  </i>
  <i name="subversion" type="string">20Jul23 (build Mar 15 2024 16:31:38) complex                          parallel </i>
  <i name="platform" type="string">LinuxIFC </i>
  <i name="date" type="string">2025 03 26 </i>
  <i name="time" type="string">18:29:06 </i>
 </generator>
 <incar>
  <i type="string" name="PREC">Accurate</i>
  <i type="string" name="ALGO">Normal</i>
  <i type="int" name="ISPIN">     2</i>
  <i type="int" name="NELM">   200</i>
  <i name="EDIFF">      0.00001000</i>
  <i type="int" name="NSW">     0</i>
  <i name="ENCUT">    680.00000000</i>
  <i name="ENAUG">   1360.00000000</i>
  <v name="MAGMOM">      0.60000000      0.60000000      0.60000000      0.60000000      0.60000000      0.60000000      0.60000000      0.60000000      0.60000000      0.60000000      0.60000000      0.60000000      0.60000000      0.60000000      0.60000000      0.60000000      0.60000000      0.60000000      0.60000000      0.60000000
</v>
  <i type="logical" name="LREAL"> F  </i>
  <i type="int" name="ISMEAR">     0</i>
  <i name="SIGMA">      0.01000000</i>
  <i type="int" name="LMAXMIX">     4</i>
  <i type="logical" name="LWAVE"> T  </i>
  <i type="logical" name="LCHARG"> T  </i>
  <i type="logical" name="LVTOT"> T  </i>
  <i type="int" name="LORBIT">    11</i>
  <i type="logical" name="LELF"> F  </i>
  <i type="logical" name="LASPH"> T  </i>
  <i type="logical" name="LAECHG"> T  </i>
  <i name="HFSCREEN">      0.20000000</i>
  <i type="logical" name="LHFCALC"> T  </i>
  <i type="string" name="GGA">Pe</i>
  <i type="string" name="PRECFOCK">Accurate</i>
  <i type="logical" name="LDAU"> F  </i>
  <i type="logical" name="LMIXTAU"> T  </i>
 </incar>
 <primitive_cell>
  <structure name="primitive_cell" >
   <crystal>
    <varray name="basis" >
     <v>       3.84473291       0.00000000       0.00000000 </v>
     <v>      -0.00000000      11.36714114       0.00000000 </v>
     <v>       0.00000000       0.00000000      11.80011845 </v>
    </varray>
    <i name="volume">    515.70791197 </i>
    <varray name="rec_basis" >
     <v>       0.26009609       0.00000000       0.00000000 </v>
     <v>       0.00000000       0.08797287       0.00000000 </v>
     <v>      -0.00000000      -0.00000000       0.08474491 </v>
    </varray>
   </crystal>
   <varray name="positions" >
    <v>       0.75000000       0.46558362       0.85735040 </v>
    <v>       0.25000000       0.53441638       0.14264960 </v>
    <v>       0.25000000       0.96558362       0.64264960 </v>
    <v>       0.75000000       0.03441638       0.35735040 </v>
    <v>       0.25000000       0.17308267       0.96694360 </v>
    <v>       0.75000000       0.82691733       0.03305640 </v>
    <v>       0.75000000       0.67308267       0.53305640 </v>
    <v>       0.25000000       0.32691733       0.46694360 </v>
    <v>       0.75000000       0.06146949       0.87592716 </v>
    <v>       0.25000000       0.93853051       0.12407284 </v>
    <v>       0.25000000       0.56146949       0.62407284 </v>
    <v>       0.75000000       0.43853051       0.37592716 </v>
    <v>       0.75000000       0.37923204       0.04854145 </v>
    <v>       0.25000000       0.62076796       0.95145855 </v>
    <v>       0.25000000       0.87923204       0.45145855 </v>
    <v>       0.75000000       0.12076796       0.54854145 </v>
    <v>       0.25000000       0.18854761       0.30024927 </v>
    <v>       0.75000000       0.81145239       0.69975073 </v>
    <v>       0.75000000       0.68854761       0.19975073 </v>
    <v>       0.25000000       0.31145239       0.80024927 </v>
   </varray>
  </structure>
  <varray name="primitive_index" >
   <v type="int" >        1 </v>
   <v type="int" >        2 </v>
   <v type="int" >        3 </v>
   <v type="int" >        4 </v>
   <v type="int" >        5 </v>
   <v type="int" >        6 </v>
   <v type="int" >        7 </v>
   <v type="int" >        8 </v>
   <v type="int" >        9 </v>
   <v type="int" >       10 </v>
   <v type="int" >       11 </v>
   <v type="int" >       12 </v>
   <v type="int" >       13 </v>
   <v type="int" >       14 </v>
   <v type="int" >       15 </v>
   <v type="int" >       16 </v>
   <v type="int" >       17 </v>
   <v type="int" >       18 </v>
   <v type="int" >       19 </v>
   <v type="int" >       20 </v>
  </varray>
 </primitive_cell>
 <kpoints>
  <varray name="kpointlist" >
   <v>       0.00000000       0.00000000       0.00000000 </v>
   <v>       0.00000000       0.50000000       0.00000000 </v>
   <v>       0.00000000       0.00000000       0.50000000 </v>
  </varray>
  <varray name="weights" >
   <v>       0.33333333 </v>
   <v>       0.33333333 </v>
   <v>       0.33333333 </v>
  </varray>
 </kpoints>
 <parameters>
  <separator name="general" >
   <i type="string" name="SYSTEM">unknown system</i>
   <i type="logical" name="LCOMPAT"> F  </i>
  </separator>
  <separator name="electronic" >
   <i type="string" name="PREC">accura</i>
   <i name="ENMAX">    680.00000000</i>
   <i name="ENAUG">   1360.00000000</i>
   <i name="EDIFF">      0.00001000</i>
   <i type="int" name="IALGO">    38</i>
   <i type="int" name="IWAVPR">    10</i>
   <i type="int" name="NBANDS">    84</i>
   <i type="int" name="NBANDSLOW">    -1</i>
   <i type="int" name="NBANDSHIGH">    -1</i>
   <i name="NELECT">    112.00000000</i>
   <i type="int" name="TURBO">     0</i>
   <i type="int" name="IRESTART">     0</i>
   <i type="int" name="NREBOOT">     0</i>
   <i type="int" name="NMIN">     0</i>
   <i name="EREF">      0.00000000</i>
   <separator name="electronic smearing" >
    <i type="int" name="ISMEAR">     0</i>
    <i name="SIGMA">      0.01000000</i>
    <i name="KSPACING">      0.50000000</i>
    <i type="logical" name="KGAMMA"> T  </i>
    <i type="logical" name="KBLOWUP"> T  </i>
   </separator>
   <separator name="electronic projectors" >
    <i type="logical" name="LREAL"> F  </i>
    <v name="ROPT">      0.00000000      0.00000000</v>
    <i type="int" name="LMAXPAW">  -100</i>
    <i type="int" name="LMAXMIX">     4</i>
    <i type="logical" name="NLSPLINE"> F  </i>
   </separator>
   <separator name="electronic startup" >
    <i type="int" name="ISTART">     0</i>
    <i type="int" name="ICHARG">     2</i>
    <i type="int" name="INIWAV">     1</i>
   </separator>
   <separator name="electronic spin" >
    <i type="int" name="ISPIN">     2</i>
    <i type="logical" name="LNONCOLLINEAR"> F  </i>
    <v name="MAGMOM">      0.60000000      0.60000000      0.60000000      0.60000000      0.60000000      0.60000000      0.60000000      0.60000000      0.60000000      0.60000000      0.60000000      0.60000000      0.60000000      0.60000000      0.60000000      0.60000000      0.60000000      0.60000000      0.60000000      0.60000000
</v>
    <i name="NUPDOWN">     -1.00000000</i>
    <i type="logical" name="LSORBIT"> F  </i>
    <v name="SAXIS">      0.00000000      0.00000000      1.00000000</v>
    <i type="logical" name="LSPIRAL"> F  </i>
    <v name="QSPIRAL">      0.00000000      0.00000000      0.00000000</v>
    <i type="logical" name="LZEROZ"> F  </i>
   </separator>
   <separator name="electronic exchange-correlation" >
    <i type="logical" name="LASPH"> T  </i>
    <i type="logical" name="LMETAGGA"> F  </i>
   </separator>
   <separator name="electronic convergence" >
    <i type="int" name="NELM">   200</i>
    <i type="int" name="NELMDL">    -5</i>
    <i type="int" name="NELMIN">     2</i>
    <i name="ENINI">    680.00000000</i>
    <separator name="electronic convergence detail" >
     <i type="logical" name="LDIAG"> T  </i>
     <i type="logical" name="LSUBROT"> F  </i>
     <i name="WEIMIN">      0.00000000</i>
     <i name="EBREAK">      0.00000003</i>
     <i name="DEPER">      0.30000000</i>
     <i type="int" name="NRMM">     4</i>
     <i name="TIME">      0.40000000</i>
    </separator>
   </separator>
   <separator name="electronic mixer" >
    <i name="AMIX">      0.40000000</i>
    <i name="BMIX">      1.00000000</i>
    <i name="AMIN">      0.10000000</i>
    <i name="AMIX_MAG">      1.60000000</i>
    <i name="BMIX_MAG">      1.00000000</i>
    <separator name="electronic mixer details" >
     <i type="int" name="IMIX">     1</i>
     <i type="logical" name="MIXFIRST"> F  </i>
     <i type="int" name="MAXMIX">   -45</i>
     <i name="WC">    100.00000000</i>
     <i type="int" name="INIMIX">     1</i>
     <i type="int" name="MIXPRE">     1</i>
     <i type="int" name="MREMOVE">     5</i>
    </separator>
   </separator>
   <separator name="electronic dipolcorrection" >
    <i type="logical" name="LDIPOL"> F  </i>
    <i type="logical" name="LMONO"> F  </i>
    <i type="int" name="IDIPOL">     0</i>
    <i name="EPSILON">      1.00000000</i>
    <v name="DIPOL">   -100.00000000   -100.00000000   -100.00000000</v>
    <i name="EFIELD">      0.00000000</i>
   </separator>
  </separator>
  <separator name="grids" >
   <i type="int" name="NGX">    36</i>
   <i type="int" name="NGY">    98</i>
   <i type="int" name="NGZ">   100</i>
   <i type="int" name="NGXF">    72</i>
   <i type="int" name="NGYF">   196</i>
   <i type="int" name="NGZF">   200</i>
   <i type="logical" name="ADDGRID"> F  </i>
  </separator>
  <separator name="ionic" >
   <i type="int" name="NSW">     0</i>
   <i type="int" name="IBRION">    -1</i>
   <i type="int" name="MDALGO">     0</i>
   <i type="int" name="ISIF">     0</i>
   <i name="PSTRESS">      0.00000000</i>
   <i name="EDIFFG">      0.00010000</i>
   <i type="int" name="NFREE">     0</i>
   <i name="POTIM">      0.50000000</i>
   <i name="SMASS">     -3.00000000</i>
   <i name="SCALEE">      1.00000000</i>
  </separator>
  <separator name="ionic md" >
   <i name="TEBEG">      0.00010000</i>
   <i name="TEEND">      0.00010000</i>
   <i type="int" name="NBLOCK">     1</i>
   <i type="int" name="KBLOCK">     1</i>
   <i type="int" name="NPACO">   256</i>
   <i name="APACO">     10.00000000</i>
  </separator>
  <separator name="symmetry" >
   <i type="int" name="ISYM">     3</i>
   <i name="SYMPREC">      0.00001000</i>
  </separator>
  <separator name="dos" >
   <i type="int" name="LORBIT">    11</i>
   <v name="RWIGS">     -1.00000000     -1.00000000</v>
   <i type="int" name="NEDOS">   301</i>
   <i name="EMIN">     10.00000000</i>
   <i name="EMAX">    -10.00000000</i>
   <i name="EFERMI">      0.00000000</i>
  </separator>
  <separator name="writing" >
   <i type="int" name="NWRITE">     2</i>
   <i type="logical" name="LWAVE"> T  </i>
   <i type="logical" name="LDOWNSAMPLE"> F  </i>
   <i type="logical" name="LCHARG"> T  </i>
   <i type="logical" name="LPARD"> F  </i>
   <i type="logical" name="LVTOT"> T  </i>
   <i type="logical" name="LVHAR"> F  </i>
   <i type="logical" name="LELF"> F  </i>
   <i type="logical" name="LOPTICS"> F  </i>
   <v name="STM">      0.00000000      0.00000000      0.00000000      0.00000000      0.00000000      0.00000000      0.00000000</v>
  </separator>
  <separator name="performance" >
   <i type="int" name="NPAR">    12</i>
   <i type="int" name="NSIM">     4</i>
   <i type="int" name="NBLK">    -1</i>
   <i type="logical" name="LPLANE"> T  </i>
   <i type="logical" name="LSCALAPACK"> T  </i>
   <i type="logical" name="LSCAAWARE"> F  </i>
   <i type="logical" name="LSCALU"> F  </i>
   <i type="logical" name="LASYNC"> F  </i>
   <i type="logical" name="LORBITALREAL"> F  </i>
  </separator>
  <separator name="miscellaneous" >
   <i type="int" name="IDIOT">     3</i>
   <i type="int" name="PHON_NSTRUCT">    -1</i>
   <i type="logical" name="LMUSIC"> F  </i>
   <v name="POMASS">    121.75000000     32.06600000</v>
   <v name="DARWINR">      0.00000000      0.00000000</v>
   <v name="DARWINV">      1.00000000      1.00000000</v>
   <i type="logical" name="LCORR"> T  </i>
  </separator>
  <i type="logical" name="GGA_COMPAT"> T  </i>
  <i type="logical" name="LBERRY"> F  </i>
  <i type="int" name="ICORELEVEL">     0</i>
  <i type="logical" name="LDAU"> F  </i>
  <i type="int" name="I_CONSTRAINED_M">     0</i>
  <separator name="electronic exchange-correlation" >
   <i type="string" name="GGA">PE</i>
   <i type="int" name="VOSKOWN">     0</i>
   <i type="logical" name="LHFCALC"> T  </i>
   <i type="string" name="PRECFOCK">accur.</i>
   <i type="logical" name="LSYMGRAD"> F  </i>
   <i type="logical" name="LHFONE"> F  </i>
   <i type="logical" name="LRHFCALC"> F  </i>
   <i type="logical" name="LTHOMAS"> F  </i>
   <i type="logical" name="LMODELHF"> F  </i>
   <i type="logical" name="LFOCKACE"> T  </i>
   <i name="ENCUT4O">     -1.00000000</i>
   <i type="int" name="EXXOEP">     0</i>
   <i type="int" name="FOURORBIT">     0</i>
   <i name="AEXX">      0.25000000</i>
   <i name="HFALPHA">     -1.00000000</i>
   <i name="MCALPHA">      0.00000000</i>
   <i name="ALDAX">      0.75000000</i>
   <i name="AGGAX">      0.75000000</i>
   <i name="ALDAC">      1.00000000</i>
   <i name="AGGAC">      1.00000000</i>
   <i type="int" name="NKREDX">     1</i>
   <i type="int" name="NKREDY">     1</i>
   <i type="int" name="NKREDZ">     1</i>
   <i type="logical" name="SHIFTRED"> F  </i>
   <i type="logical" name="ODDONLY"> F  </i>
   <i type="logical" name="EVENONLY"> F  </i>
   <i type="int" name="LMAXFOCK">     4</i>
   <i type="int" name="NMAXFOCKAE">     1</i>
   <i type="logical" name="LFOCKAEDFT"> F  </i>
   <i name="HFSCREEN">      0.20000000</i>
   <i name="HFSCREENC">      0.20000000</i>
   <i type="int" name="NBANDSGWLOW">     1</i>
  </separator>
  <separator name="vdW DFT" >
   <i type="logical" name="LUSE_VDW"> F  </i>
   <i type="int" name="IVDW_NL">     1</i>
   <i type="logical" name="LSPIN_VDW"> F  </i>
   <i name="Zab_VDW">     -0.84910000</i>
   <i name="PARAM1">      0.12340000</i>
   <i name="PARAM2">      1.00000000</i>
   <i name="PARAM3">      0.00000000</i>
  </separator>
  <separator name="model GW" >
   <i type="int" name="MODEL_GW">     0</i>
   <i name="MODEL_EPS0">     15.47123736</i>
   <i name="MODEL_ALPHA">      1.00000000</i>
  </separator>
  <separator name="linear response parameters" >
   <i type="logical" name="LEPSILON"> F  </i>
   <i type="logical" name="LRPA"> F  </i>
   <i type="logical" name="LNABLA"> F  </i>
   <i type="logical" name="LVEL"> F  </i>
   <i name="CSHIFT">      0.10000000</i>
   <i name="OMEGAMAX">     -1.00000000</i>
   <i name="DEG_THRESHOLD">      0.00200000</i>
   <i name="RTIME">     -0.10000000</i>
   <i name="WPLASMAI">      0.00000000</i>
   <v name="DFIELD">      0.00000000      0.00000000      0.00000000</v>
   <v name="WPLASMA">      0.00000000      0.00000000      0.00000000      0.00000000      0.00000000      0.00000000      0.00000000      0.00000000      0.00000000</v>
  </separator>
  <separator name="orbital magnetization" >
   <i type="logical" name="NUCIND"> F  </i>
   <v name="MAGPOS">      0.00000000      0.00000000      0.00000000</v>
   <i type="logical" name="LNICSALL"> T  </i>
   <i type="logical" name="ORBITALMAG"> F  </i>
   <i type="logical" name="LMAGBLOCH"> F  </i>
   <i type="logical" name="LCHIMAG"> F  </i>
   <i type="logical" name="LGAUGE"> T  </i>
   <i type="int" name="MAGATOM">     0</i>
   <v name="MAGDIPOL">      0.00000000      0.00000000      0.00000000</v>
   <v name="AVECCONST">      0.00000000      0.00000000      0.00000000</v>
  </separator>
  <separator name="response functions" >
   <i type="logical" name="LALL_IN_ONE"> F  </i>
   <i type="int" name="IALL_IN_ONE">    -1</i>
   <i type="int" name="NBANDS_WAVE">    -1</i>
   <i type="logical" name="LFINITE_TEMPERATURE"> F  </i>
   <i type="logical" name="LADDER"> F  </i>
   <i type="logical" name="LRPAFORCE"> F  </i>
   <i type="logical" name="LFXC"> F  </i>
   <i type="logical" name="LHARTREE"> T  </i>
   <i type="int" name="IBSE">     0</i>
   <v type="int" name="KPOINT">    -1     0     0     0</v>
   <i type="logical" name="LTCTC"> F  </i>
   <i type="logical" name="LTCTE"> F  </i>
   <i type="logical" name="LTETE"> F  </i>
   <i type="logical" name="LTRIPLET"> F  </i>
   <i type="logical" name="LFXCEPS"> F  </i>
   <i type="logical" name="LFXHEG"> F  </i>
   <i type="int" name="NATURALO">     2</i>
   <i type="logical" name="LHOLEGF"> F  </i>
   <i type="logical" name="L2ORDER"> F  </i>
   <i type="logical" name="LDMP1"> F  </i>
   <i type="logical" name="LMP2LT"> F  </i>
   <i type="logical" name="LSMP2LT"> F  </i>
   <i type="logical" name="LGWLF"> F  </i>
   <i name="ENCUTGW">     -1.60000002</i>
   <i name="ENCUTGWSOFT">     -1.60000002</i>
   <i name="ENCUTLF">     -1.00000000</i>
   <i type="logical" name="LESF_SPLINES"> F  </i>
   <i type="int" name="LMAXMP2">    -1</i>
   <i name="SCISSOR">      0.00000000</i>
   <i type="int" name="NOMEGA">     0</i>
   <i type="int" name="NOMEGAR">     0</i>
   <i type="int" name="NBANDSGW">    -1</i>
   <i type="int" name="NBANDSO">    -1</i>
   <i type="int" name="NBANDSV">    -1</i>
   <i type="int" name="NELMGW">     1</i>
   <i type="int" name="NELMHF">     1</i>
   <i type="int" name="DIM">     3</i>
   <i type="int" name="IESPILON">     4</i>
   <i type="int" name="ANTIRES">     0</i>
   <i name="OMEGAMAX">    -30.00000000</i>
   <i name="OMEGAMIN">    -30.00000000</i>
   <i name="OMEGATL">   -200.00000000</i>
   <i type="int" name="OMEGAGRID">     0</i>
   <i name="CSHIFT">     -0.10000000</i>
   <i type="logical" name="LSELFENERGY"> F  </i>
   <i type="logical" name="LSPECTRAL"> F  </i>
   <i type="logical" name="LSPECTRALGW"> F  </i>
   <i type="logical" name="LSINGLES"> F  </i>
   <i type="logical" name="LFERMIGW"> F  </i>
   <i type="logical" name="ODDONLYGW"> F  </i>
   <i type="logical" name="EVENONLYGW"> F  </i>
   <i type="int" name="NKREDLFX">     1</i>
   <i type="int" name="NKREDLFY">     1</i>
   <i type="int" name="NKREDLFZ">     1</i>
   <i type="int" name="MAXMEM">  2800</i>
   <i type="int" name="TELESCOPE">     0</i>
   <i type="int" name="NTAUPAR">    -1</i>
   <i type="int" name="NOMEGAPAR">    -1</i>
   <i name="DAMP_NEWTON">      0.80000001</i>
   <i name="LAMBDA">      1.00000000</i>
  </separator>
  <separator name="External order field" >
   <i name="OFIELD_KAPPA">      0.00000000</i>
   <v name="OFIELD_K">      0.00000000      0.00000000      0.00000000</v>
   <i name="OFIELD_Q6_NEAR">      0.00000000</i>
   <i name="OFIELD_Q6_FAR">      0.00000000</i>
   <i name="OFIELD_A">      0.00000000</i>
  </separator>
  <separator name="optional k-points parameters" >
   <i type="int" name="KPOINTS_OPT_MODE">     1</i>
   <i type="logical" name="LKPOINTS_OPT"> F  </i>
  </separator>
 </parameters>
 <atominfo>
  <atoms>      20 </atoms>
  <types>       2 </types>
  <array name="atoms" >
   <dimension dim="1">ion</dimension>
   <field type="string">element</field>
   <field type="int">atomtype</field>
   <set>
    <rc><c>Sb</c><c>   1</c></rc>
    <rc><c>Sb</c><c>   1</c></rc>
    <rc><c>Sb</c><c>   1</c></rc>
    <rc><c>Sb</c><c>   1</c></rc>
    <rc><c>Sb</c><c>   1</c></rc>
    <rc><c>Sb</c><c>   1</c></rc>
    <rc><c>Sb</c><c>   1</c></rc>
    <rc><c>Sb</c><c>   1</c></rc>
    <rc><c>S </c><c>   2</c></rc>
    <rc><c>S </c><c>   2</c></rc>
    <rc><c>S </c><c>   2</c></rc>
    <rc><c>S </c><c>   2</c></rc>
    <rc><c>S </c><c>   2</c></rc>
    <rc><c>S </c><c>   2</c></rc>
    <rc><c>S </c><c>   2</c></rc>
    <rc><c>S </c><c>   2</c></rc>
    <rc><c>S </c><c>   2</c></rc>
    <rc><c>S </c><c>   2</c></rc>
    <rc><c>S </c><c>   2</c></rc>
    <rc><c>S </c><c>   2</c></rc>
   </set>
  </array>
  <array name="atomtypes" >
   <dimension dim="1">type</dimension>
   <field type="int">atomspertype</field>
   <field type="string">element</field>
   <field>mass</field>
   <field>valence</field>
   <field type="string">pseudopotential</field>
   <set>
    <rc><c>   8</c><c>Sb</c><c>    121.75000000</c><c>      5.00000000</c><c>  PAW_PBE Sb 06Sep2000                  </c></rc>
    <rc><c>  12</c><c>S </c><c>     32.06600000</c><c>      6.00000000</c><c>  PAW_PBE S 06Sep2000                   </c></rc>
   </set>
  </array>
 </atominfo>
 <structure name="initialpos" >
  <crystal>
   <varray name="basis" >
    <v>       3.84473291       0.00000000       0.00000000 </v>
    <v>      -0.00000000      11.36714114       0.00000000 </v>
    <v>       0.00000000       0.00000000      11.80011845 </v>
   </varray>
   <i name="volume">    515.70791197 </i>
   <varray name="rec_basis" >
    <v>       0.26009609       0.00000000       0.00000000 </v>
    <v>       0.00000000       0.08797287       0.00000000 </v>
    <v>      -0.00000000      -0.00000000       0.08474491 </v>
   </varray>
  </crystal>
  <varray name="positions" >
   <v>       0.75000000       0.46558362       0.85735040 </v>
   <v>       0.25000000       0.53441638       0.14264960 </v>
   <v>       0.25000000       0.96558362       0.64264960 </v>
   <v>       0.75000000       0.03441638       0.35735040 </v>
   <v>       0.25000000       0.17308267       0.96694360 </v>
   <v>       0.75000000       0.82691733       0.03305640 </v>
   <v>       0.75000000       0.67308267       0.53305640 </v>
   <v>       0.25000000       0.32691733       0.46694360 </v>
   <v>       0.75000000       0.06146949       0.87592716 </v>
   <v>       0.25000000       0.93853051       0.12407284 </v>
   <v>       0.25000000       0.56146949       0.62407284 </v>
   <v>       0.75000000       0.43853051       0.37592716 </v>
   <v>       0.75000000       0.37923204       0.04854145 </v>
   <v>       0.25000000       0.62076796       0.95145855 </v>
   <v>       0.25000000       0.87923204       0.45145855 </v>
   <v>       0.75000000       0.12076796       0.54854145 </v>
   <v>       0.25000000       0.18854761       0.30024927 </v>
   <v>       0.75000000       0.81145239       0.69975073 </v>
   <v>       0.75000000       0.68854761       0.19975073 </v>
   <v>       0.25000000       0.31145239       0.80024927 </v>
  </varray>
 </structure>
 <calculation>
  <scstep>
   <time name="dav">    0.76    1.97</time>
   <time name="total">    1.25    2.51</time>
   <energy>
    <i name="alphaZ">     44.85403091 </i>
    <i name="ewald">  -4141.68316538 </i>
    <i name="hartreedc">   -625.64737553 </i>
    <i name="XCdc">   -221.70043745 </i>
    <i name="pawpsdc">   3918.68903453 </i>
    <i name="pawaedc"> -14101.98906641 </i>
    <i name="eentropy">     -0.00236310 </i>
    <i name="bandstr">    703.99851271 </i>
    <i name="atom">   4490.65986132 </i>
    <i name="e_fr_energy">  -9932.82096840 </i>
    <i name="e_wo_entrp">  -9932.81860530 </i>
    <i name="e_0_energy">  -9932.81978685 </i>
   </energy>
  </scstep>
  <scstep>
   <time name="dav">    0.53    0.57</time>
   <time name="total">    0.53    0.57</time>
   <energy>
    <i name="e_fr_energy"> -10735.18404117 </i>
    <i name="e_wo_entrp"> -10735.18404117 </i>
    <i name="e_0_energy"> -10735.18404117 </i>
   </energy>
  </scstep>
  <scstep>
   <time name="dav">    0.48    0.50</time>
   <time name="total">    0.48    0.50</time>
   <energy>
    <i name="e_fr_energy"> -10829.22065478 </i>
    <i name="e_wo_entrp"> -10829.22065478 </i>
    <i name="e_0_energy"> -10829.22065478 </i>
   </energy>
  </scstep>
  <scstep>
   <time name="dav">    0.46    0.48</time>
   <time name="total">    0.46    0.48</time>
   <energy>
    <i name="e_fr_energy"> -10831.93661794 </i>
    <i name="e_wo_entrp"> -10831.93661794 </i>
    <i name="e_0_energy"> -10831.93661794 </i>
   </energy>
  </scstep>
  <scstep>
   <time name="dav">   21.90   22.05</time>
   <time name="total">   22.97   23.14</time>
   <energy>
    <i name="e_fr_energy">    -92.09281090 </i>
    <i name="e_wo_entrp">    -92.09281090 </i>
    <i name="e_0_energy">    -92.09281090 </i>
   </energy>
  </scstep>
  <scstep>
   <time name="dav">   22.44   22.50</time>
   <time name="total">   23.51   23.58</time>
   <energy>
    <i name="e_fr_energy">    -81.48064018 </i>
    <i name="e_wo_entrp">    -81.48064018 </i>
    <i name="e_0_energy">    -81.48064018 </i>
   </energy>
  </scstep>
  <scstep>
   <time name="dav">   22.01   22.09</time>
   <time name="total">   23.10   23.19</time>
   <energy>
    <i name="e_fr_energy">    -82.90132279 </i>
    <i name="e_wo_entrp">    -82.90132279 </i>
    <i name="e_0_energy">    -82.90132279 </i>
   </energy>
  </scstep>
  <scstep>
   <time name="dav">   22.55   22.62</time>
   <time name="total">   23.61   23.70</time>
   <energy>
    <i name="e_fr_energy">    -83.12669143 </i>
    <i name="e_wo_entrp">    -83.12669143 </i>
    <i name="e_0_energy">    -83.12669143 </i>
   </energy>
  </scstep>
  <scstep>
   <time name="dav">   22.33   22.40</time>
   <time name="total">   23.45   23.54</time>
   <energy>
    <i name="e_fr_energy">    -83.06156203 </i>
    <i name="e_wo_entrp">    -83.06156203 </i>
    <i name="e_0_energy">    -83.06156203 </i>
   </energy>
  </scstep>
  <scstep>
   <time name="dav">   22.23   22.31</time>
   <time name="total">   23.30   23.40</time>
   <energy>
    <i name="e_fr_energy">    -83.08874774 </i>
    <i name="e_wo_entrp">    -83.08874774 </i>
    <i name="e_0_energy">    -83.08874774 </i>
   </energy>
  </scstep>
  <scstep>
   <time name="dav">   22.53   22.63</time>
   <time name="total">   23.59   23.71</time>
   <energy>
    <i name="e_fr_energy">    -83.09484416 </i>
    <i name="e_wo_entrp">    -83.09484416 </i>
    <i name="e_0_energy">    -83.09484416 </i>
   </energy>
  </scstep>
  <scstep>
   <time name="dav">   22.22   22.30</time>
   <time name="total">   23.29   23.38</time>
   <energy>
    <i name="e_fr_energy">    -83.09693752 </i>
    <i name="e_wo_entrp">    -83.09693752 </i>
    <i name="e_0_energy">    -83.09693752 </i>
   </energy>
  </scstep>
  <scstep>
   <time name="dav">   22.56   22.63</time>
   <time name="total">   23.63   23.72</time>
   <energy>
    <i name="e_fr_energy">    -83.09846777 </i>
    <i name="e_wo_entrp">    -83.09846777 </i>
    <i name="e_0_energy">    -83.09846777 </i>
   </energy>
  </scstep>
  <scstep>
   <time name="dav">   22.40   22.47</time>
   <time name="total">   23.50   23.60</time>
   <energy>
    <i name="e_fr_energy">    -83.09908779 </i>
    <i name="e_wo_entrp">    -83.09908779 </i>
    <i name="e_0_energy">    -83.09908779 </i>
   </energy>
  </scstep>
  <scstep>
   <time name="dav">   22.32   22.38</time>
   <time name="total">   23.41   23.48</time>
   <energy>
    <i name="e_fr_energy">    -83.09938817 </i>
    <i name="e_wo_entrp">    -83.09938817 </i>
    <i name="e_0_energy">    -83.09938817 </i>
   </energy>
  </scstep>
  <scstep>
   <time name="dav">   22.61   22.68</time>
   <time name="total">   23.67   23.77</time>
   <energy>
    <i name="e_fr_energy">    -83.09952995 </i>
    <i name="e_wo_entrp">    -83.09952995 </i>
    <i name="e_0_energy">    -83.09952995 </i>
   </energy>
  </scstep>
  <scstep>
   <time name="dav">   22.36   22.43</time>
   <time name="total">   23.43   23.51</time>
   <energy>
    <i name="e_fr_energy">    -83.09959787 </i>
    <i name="e_wo_entrp">    -83.09959787 </i>
    <i name="e_0_energy">    -83.09959787 </i>
   </energy>
  </scstep>
  <scstep>
   <time name="dav">   22.58   22.65</time>
   <time name="total">   23.64   23.74</time>
   <energy>
    <i name="e_fr_energy">    -83.09963141 </i>
    <i name="e_wo_entrp">    -83.09963141 </i>
    <i name="e_0_energy">    -83.09963141 </i>
   </energy>
  </scstep>
  <scstep>
   <time name="dav">   22.32   22.39</time>
   <time name="total">   23.44   23.54</time>
   <energy>
    <i name="e_fr_energy">    -83.09964785 </i>
    <i name="e_wo_entrp">    -83.09964785 </i>
    <i name="e_0_energy">    -83.09964785 </i>
   </energy>
  </scstep>
  <scstep>
   <time name="dav">   22.37   22.44</time>
   <time name="total">   23.41   23.50</time>
   <energy>
    <i name="alphaZ">     44.85403091 </i>
    <i name="ewald">  -4141.68316538 </i>
    <i name="hartreedc">   -698.42730740 </i>
    <i name="XCdc">   -179.09760166 </i>
    <i name="pawpsdc">  23992.25758833 </i>
    <i name="pawaedc"> -23617.67491828 </i>
    <i name="eentropy">     -0.00000000 </i>
    <i name="bandstr">   -159.68735059 </i>
    <i name="atom">   4490.65986132 </i>
    <i name="e_fr_energy">    -83.09965607 </i>
    <i name="e_wo_entrp">    -83.09965607 </i>
    <i name="e_0_energy">    -83.09965607 </i>
   </energy>
  </scstep>
  <structure>
   <crystal>
    <varray name="basis" >
     <v>       3.84473291       0.00000000       0.00000000 </v>
     <v>      -0.00000000      11.36714114       0.00000000 </v>
     <v>       0.00000000       0.00000000      11.80011845 </v>
    </varray>
    <i name="volume">    515.70791197 </i>
    <varray name="rec_basis" >
     <v>       0.26009609       0.00000000       0.00000000 </v>
     <v>       0.00000000       0.08797287       0.00000000 </v>
     <v>      -0.00000000      -0.00000000       0.08474491 </v>
    </varray>
   </crystal>
   <varray name="positions" >
    <v>       0.75000000       0.46558362       0.85735040 </v>
    <v>       0.25000000       0.53441638       0.14264960 </v>
    <v>       0.25000000       0.96558362       0.64264960 </v>
    <v>       0.75000000       0.03441638       0.35735040 </v>
    <v>       0.25000000       0.17308267       0.96694360 </v>
    <v>       0.75000000       0.82691733       0.03305640 </v>
    <v>       0.75000000       0.67308267       0.53305640 </v>
    <v>       0.25000000       0.32691733       0.46694360 </v>
    <v>       0.75000000       0.06146949       0.87592716 </v>
    <v>       0.25000000       0.93853051       0.12407284 </v>
    <v>       0.25000000       0.56146949       0.62407284 </v>
    <v>       0.75000000       0.43853051       0.37592716 </v>
    <v>       0.75000000       0.37923204       0.04854145 </v>
    <v>       0.25000000       0.62076796       0.95145855 </v>
    <v>       0.25000000       0.87923204       0.45145855 </v>
    <v>       0.75000000       0.12076796       0.54854145 </v>
    <v>       0.25000000       0.18854761       0.30024927 </v>
    <v>       0.75000000       0.81145239       0.69975073 </v>
    <v>       0.75000000       0.68854761       0.19975073 </v>
    <v>       0.25000000       0.31145239       0.80024927 </v>
   </varray>
  </structure>
  <varray name="forces" >
   <v>       0.00000000      -0.46193922       0.43787154 </v>
   <v>      -0.00000000       0.46193922      -0.43787154 </v>
   <v>       0.00000000      -0.46193922      -0.43787154 </v>
   <v>      -0.00000000       0.46193922       0.43787154 </v>
   <v>       0.00000000      -0.17972130      -0.54834725 </v>
   <v>      -0.00000000       0.17972130       0.54834725 </v>
   <v>       0.00000000      -0.17972130       0.54834725 </v>
   <v>      -0.00000000       0.17972130      -0.54834725 </v>
   <v>      -0.00000000       0.12310118       0.01663720 </v>
   <v>       0.00000000      -0.12310118      -0.01663720 </v>
   <v>      -0.00000000       0.12310118      -0.01663720 </v>
   <v>       0.00000000      -0.12310118       0.01663720 </v>
   <v>      -0.00000000       0.77368986      -0.30280832 </v>
   <v>       0.00000000      -0.77368986       0.30280832 </v>
   <v>      -0.00000000       0.77368986       0.30280832 </v>
   <v>       0.00000000      -0.77368986      -0.30280832 </v>
   <v>       0.00000000      -0.17968015       0.72081105 </v>
   <v>      -0.00000000       0.17968015      -0.72081105 </v>
   <v>       0.00000000      -0.17968015      -0.72081105 </v>
   <v>      -0.00000000       0.17968015       0.72081105 </v>
  </varray>
  <energy>
   <i name="e_fr_energy">    -83.09965607 </i>
   <i name="e_wo_entrp">    -83.09965607 </i>
   <i name="e_0_energy">    -83.09965607 </i>
  </energy>
  <time name="totalsc">  399.52  402.53</time>
  <eigenvalues>
   <array>
    <dimension dim="1">band</dimension>
    <dimension dim="2">kpoint</dimension>
    <dimension dim="3">spin</dimension>
    <field>eigene</field>
    <field>occ</field>
    <set>
     <set comment="spin 1">
      <set comment="kpoint 1">
       <r>  -11.2748    1.0000 </r>
       <r>  -11.0953    1.0000 </r>
       <r>  -10.5042    1.0000 </r>
       <r>  -10.4066    1.0000 </r>
       <r>  -10.1910    1.0000 </r>
       <r>  -10.0533    1.0000 </r>
       <r>   -9.2643    1.0000 </r>
       <r>   -9.0428    1.0000 </r>
       <r>   -8.9959    1.0000 </r>
       <r>   -8.8025    1.0000 </r>
       <r>   -8.7904    1.0000 </r>
       <r>   -8.7253    1.0000 </r>
       <r>   -5.5269    1.0000 </r>
       <r>   -5.2986    1.0000 </r>
       <r>   -5.0997    1.0000 </r>
       <r>   -4.5899    1.0000 </r>
       <r>   -4.3934    1.0000 </r>
       <r>   -4.3060    1.0000 </r>
       <r>   -3.0863    1.0000 </r>
       <r>   -2.5560    1.0000 </r>
       <r>   -0.6722    1.0000 </r>
       <r>   -0.6323    1.0000 </r>
       <r>   -0.2219    1.0000 </r>
       <r>   -0.0962    1.0000 </r>
       <r>    0.2245    1.0000 </r>
       <r>    0.3149    1.0000 </r>
       <r>    0.4827    1.0000 </r>
       <r>    0.5615    1.0000 </r>
       <r>    0.5994    1.0000 </r>
       <r>    1.0500    1.0000 </r>
       <r>    1.0523    1.0000 </r>
       <r>    1.1922    1.0000 </r>
       <r>    1.2075    1.0000 </r>
       <r>    1.4500    1.0000 </r>
       <r>    1.4597    1.0000 </r>
       <r>    1.8225    1.0000 </r>
       <r>    1.8433    1.0000 </r>
       <r>    1.9249    1.0000 </r>
       <r>    2.0255    1.0000 </r>
       <r>    2.1980    1.0000 </r>
       <r>    2.2739    1.0000 </r>
       <r>    2.8905    1.0000 </r>
       <r>    2.9003    1.0000 </r>
       <r>    2.9167    1.0000 </r>
       <r>    2.9636    1.0000 </r>
       <r>    2.9895    1.0000 </r>
       <r>    3.0452    1.0000 </r>
       <r>    3.0502    1.0000 </r>
       <r>    3.0998    1.0000 </r>
       <r>    3.3798    1.0000 </r>
       <r>    3.7965    1.0000 </r>
       <r>    4.0003    1.0000 </r>
       <r>    4.1525    1.0000 </r>
       <r>    4.1816    1.0000 </r>
       <r>    4.3096    1.0000 </r>
       <r>    4.4635    1.0000 </r>
       <r>    6.3197    0.0000 </r>
       <r>    6.4023    0.0000 </r>
       <r>    6.5033    0.0000 </r>
       <r>    6.7495    0.0000 </r>
       <r>    7.0393    0.0000 </r>
       <r>    7.0897    0.0000 </r>
       <r>    7.4938    0.0000 </r>
       <r>    7.6392    0.0000 </r>
       <r>    7.7302    0.0000 </r>
       <r>    7.7818    0.0000 </r>
       <r>    7.7900    0.0000 </r>
       <r>    8.0553    0.0000 </r>
       <r>    8.2412    0.0000 </r>
       <r>    8.3014    0.0000 </r>
       <r>    8.3701    0.0000 </r>
       <r>    8.4255    0.0000 </r>
       <r>    8.5954    0.0000 </r>
       <r>    8.7610    0.0000 </r>
       <r>    8.9701    0.0000 </r>
       <r>    9.1440    0.0000 </r>
       <r>    9.4313    0.0000 </r>
       <r>    9.7768    0.0000 </r>
       <r>   10.0973    0.0000 </r>
       <r>   10.1848    0.0000 </r>
       <r>   10.3429    0.0000 </r>
       <r>   10.3604    0.0000 </r>
       <r>   11.5991    0.0000 </r>
       <r>   11.8220    0.0000 </r>
      </set>
      <set comment="kpoint 2">
       <r>  -11.1571    1.0000 </r>
       <r>  -11.1571    1.0000 </r>
       <r>  -10.6437    1.0000 </r>
       <r>  -10.6437    1.0000 </r>
       <r>   -9.7790    1.0000 </r>
       <r>   -9.7790    1.0000 </r>
       <r>   -9.4499    1.0000 </r>
       <r>   -9.4499    1.0000 </r>
       <r>   -8.8020    1.0000 </r>
       <r>   -8.8020    1.0000 </r>
       <r>   -8.7412    1.0000 </r>
       <r>   -8.7412    1.0000 </r>
       <r>   -5.3851    1.0000 </r>
       <r>   -5.3851    1.0000 </r>
       <r>   -5.1345    1.0000 </r>
       <r>   -5.1345    1.0000 </r>
       <r>   -3.9335    1.0000 </r>
       <r>   -3.9335    1.0000 </r>
       <r>   -2.9574    1.0000 </r>
       <r>   -2.9574    1.0000 </r>
       <r>   -0.6254    1.0000 </r>
       <r>   -0.6254    1.0000 </r>
       <r>   -0.4222    1.0000 </r>
       <r>   -0.4222    1.0000 </r>
       <r>    0.1788    1.0000 </r>
       <r>    0.1788    1.0000 </r>
       <r>    0.4973    1.0000 </r>
       <r>    0.4973    1.0000 </r>
       <r>    0.8395    1.0000 </r>
       <r>    0.8395    1.0000 </r>
       <r>    1.4792    1.0000 </r>
       <r>    1.4792    1.0000 </r>
       <r>    1.5929    1.0000 </r>
       <r>    1.5929    1.0000 </r>
       <r>    1.6610    1.0000 </r>
       <r>    1.6610    1.0000 </r>
       <r>    1.8602    1.0000 </r>
       <r>    1.8602    1.0000 </r>
       <r>    2.0513    1.0000 </r>
       <r>    2.0513    1.0000 </r>
       <r>    2.3515    1.0000 </r>
       <r>    2.3515    1.0000 </r>
       <r>    2.9369    1.0000 </r>
       <r>    2.9369    1.0000 </r>
       <r>    2.9788    1.0000 </r>
       <r>    2.9788    1.0000 </r>
       <r>    3.0130    1.0000 </r>
       <r>    3.0130    1.0000 </r>
       <r>    3.3810    1.0000 </r>
       <r>    3.3810    1.0000 </r>
       <r>    3.7354    1.0000 </r>
       <r>    3.7354    1.0000 </r>
       <r>    4.1634    1.0000 </r>
       <r>    4.1634    1.0000 </r>
       <r>    4.3355    1.0000 </r>
       <r>    4.3355    1.0000 </r>
       <r>    6.2115    0.0000 </r>
       <r>    6.2115    0.0000 </r>
       <r>    7.1048    0.0000 </r>
       <r>    7.1048    0.0000 </r>
       <r>    7.3635    0.0000 </r>
       <r>    7.3635    0.0000 </r>
       <r>    7.4871    0.0000 </r>
       <r>    7.4871    0.0000 </r>
       <r>    7.5948    0.0000 </r>
       <r>    7.5948    0.0000 </r>
       <r>    7.5948    0.0000 </r>
       <r>    7.5948    0.0000 </r>
       <r>    7.9275    0.0000 </r>
       <r>    7.9275    0.0000 </r>
       <r>    8.6666    0.0000 </r>
       <r>    8.6666    0.0000 </r>
       <r>    8.7764    0.0000 </r>
       <r>    8.7764    0.0000 </r>
       <r>    9.4061    0.0000 </r>
       <r>    9.4061    0.0000 </r>
       <r>    9.6850    0.0000 </r>
       <r>    9.6850    0.0000 </r>
       <r>    9.6890    0.0000 </r>
       <r>    9.6890    0.0000 </r>
       <r>   10.2709    0.0000 </r>
       <r>   10.2709    0.0000 </r>
       <r>   11.6201    0.0000 </r>
       <r>   11.6201    0.0000 </r>
      </set>
      <set comment="kpoint 3">
       <r>  -11.1936    1.0000 </r>
       <r>  -11.1936    1.0000 </r>
       <r>  -10.4438    1.0000 </r>
       <r>  -10.4438    1.0000 </r>
       <r>  -10.1380    1.0000 </r>
       <r>  -10.1380    1.0000 </r>
       <r>   -9.1464    1.0000 </r>
       <r>   -9.1464    1.0000 </r>
       <r>   -8.8702    1.0000 </r>
       <r>   -8.8702    1.0000 </r>
       <r>   -8.7796    1.0000 </r>
       <r>   -8.7796    1.0000 </r>
       <r>   -5.4866    1.0000 </r>
       <r>   -5.4866    1.0000 </r>
       <r>   -4.7775    1.0000 </r>
       <r>   -4.7775    1.0000 </r>
       <r>   -4.3843    1.0000 </r>
       <r>   -4.3843    1.0000 </r>
       <r>   -2.7522    1.0000 </r>
       <r>   -2.7522    1.0000 </r>
       <r>   -0.6280    1.0000 </r>
       <r>   -0.6280    1.0000 </r>
       <r>   -0.1596    1.0000 </r>
       <r>   -0.1596    1.0000 </r>
       <r>    0.3401    1.0000 </r>
       <r>    0.3401    1.0000 </r>
       <r>    0.4192    1.0000 </r>
       <r>    0.4192    1.0000 </r>
       <r>    0.5987    1.0000 </r>
       <r>    0.5987    1.0000 </r>
       <r>    1.1471    1.0000 </r>
       <r>    1.1471    1.0000 </r>
       <r>    1.3089    1.0000 </r>
       <r>    1.3089    1.0000 </r>
       <r>    1.5394    1.0000 </r>
       <r>    1.5394    1.0000 </r>
       <r>    2.1463    1.0000 </r>
       <r>    2.1463    1.0000 </r>
       <r>    2.1748    1.0000 </r>
       <r>    2.1748    1.0000 </r>
       <r>    2.6369    1.0000 </r>
       <r>    2.6369    1.0000 </r>
       <r>    2.9047    1.0000 </r>
       <r>    2.9047    1.0000 </r>
       <r>    2.9325    1.0000 </r>
       <r>    2.9325    1.0000 </r>
       <r>    3.0566    1.0000 </r>
       <r>    3.0566    1.0000 </r>
       <r>    3.2522    1.0000 </r>
       <r>    3.2522    1.0000 </r>
       <r>    3.7857    1.0000 </r>
       <r>    3.7857    1.0000 </r>
       <r>    4.2506    1.0000 </r>
       <r>    4.2506    1.0000 </r>
       <r>    4.3829    1.0000 </r>
       <r>    4.3829    1.0000 </r>
       <r>    6.3640    0.0000 </r>
       <r>    6.3640    0.0000 </r>
       <r>    6.7215    0.0000 </r>
       <r>    6.7215    0.0000 </r>
       <r>    6.9967    0.0000 </r>
       <r>    6.9967    0.0000 </r>
       <r>    7.5272    0.0000 </r>
       <r>    7.5272    0.0000 </r>
       <r>    7.6541    0.0000 </r>
       <r>    7.6541    0.0000 </r>
       <r>    8.0183    0.0000 </r>
       <r>    8.0183    0.0000 </r>
       <r>    8.2452    0.0000 </r>
       <r>    8.2452    0.0000 </r>
       <r>    8.4953    0.0000 </r>
       <r>    8.4953    0.0000 </r>
       <r>    8.5133    0.0000 </r>
       <r>    8.5133    0.0000 </r>
       <r>    9.1297    0.0000 </r>
       <r>    9.1297    0.0000 </r>
       <r>    9.8110    0.0000 </r>
       <r>    9.8110    0.0000 </r>
       <r>   10.0453    0.0000 </r>
       <r>   10.0453    0.0000 </r>
       <r>   10.2594    0.0000 </r>
       <r>   10.2594    0.0000 </r>
       <r>   11.5829    0.0000 </r>
       <r>   11.5829    0.0000 </r>
      </set>
     </set>
     <set comment="spin 2">
      <set comment="kpoint 1">
       <r>  -11.2750    1.0000 </r>
       <r>  -11.0954    1.0000 </r>
       <r>  -10.5043    1.0000 </r>
       <r>  -10.4068    1.0000 </r>
       <r>  -10.1911    1.0000 </r>
       <r>  -10.0534    1.0000 </r>
       <r>   -9.2644    1.0000 </r>
       <r>   -9.0429    1.0000 </r>
       <r>   -8.9960    1.0000 </r>
       <r>   -8.8027    1.0000 </r>
       <r>   -8.7905    1.0000 </r>
       <r>   -8.7254    1.0000 </r>
       <r>   -5.5270    1.0000 </r>
       <r>   -5.2988    1.0000 </r>
       <r>   -5.0999    1.0000 </r>
       <r>   -4.5901    1.0000 </r>
       <r>   -4.3936    1.0000 </r>
       <r>   -4.3062    1.0000 </r>
       <r>   -3.0865    1.0000 </r>
       <r>   -2.5561    1.0000 </r>
       <r>   -0.6724    1.0000 </r>
       <r>   -0.6324    1.0000 </r>
       <r>   -0.2220    1.0000 </r>
       <r>   -0.0963    1.0000 </r>
       <r>    0.2243    1.0000 </r>
       <r>    0.3147    1.0000 </r>
       <r>    0.4826    1.0000 </r>
       <r>    0.5614    1.0000 </r>
       <r>    0.5992    1.0000 </r>
       <r>    1.0498    1.0000 </r>
       <r>    1.0522    1.0000 </r>
       <r>    1.1921    1.0000 </r>
       <r>    1.2074    1.0000 </r>
       <r>    1.4499    1.0000 </r>
       <r>    1.4596    1.0000 </r>
       <r>    1.8223    1.0000 </r>
       <r>    1.8432    1.0000 </r>
       <r>    1.9248    1.0000 </r>
       <r>    2.0254    1.0000 </r>
       <r>    2.1979    1.0000 </r>
       <r>    2.2738    1.0000 </r>
       <r>    2.8903    1.0000 </r>
       <r>    2.9001    1.0000 </r>
       <r>    2.9166    1.0000 </r>
       <r>    2.9635    1.0000 </r>
       <r>    2.9893    1.0000 </r>
       <r>    3.0450    1.0000 </r>
       <r>    3.0501    1.0000 </r>
       <r>    3.0997    1.0000 </r>
       <r>    3.3797    1.0000 </r>
       <r>    3.7964    1.0000 </r>
       <r>    4.0002    1.0000 </r>
       <r>    4.1524    1.0000 </r>
       <r>    4.1814    1.0000 </r>
       <r>    4.3095    1.0000 </r>
       <r>    4.4634    1.0000 </r>
       <r>    6.3195    0.0000 </r>
       <r>    6.4021    0.0000 </r>
       <r>    6.5031    0.0000 </r>
       <r>    6.7493    0.0000 </r>
       <r>    7.0392    0.0000 </r>
       <r>    7.0896    0.0000 </r>
       <r>    7.4936    0.0000 </r>
       <r>    7.6391    0.0000 </r>
       <r>    7.7301    0.0000 </r>
       <r>    7.7817    0.0000 </r>
       <r>    7.7899    0.0000 </r>
       <r>    8.0552    0.0000 </r>
       <r>    8.2410    0.0000 </r>
       <r>    8.3013    0.0000 </r>
       <r>    8.3699    0.0000 </r>
       <r>    8.4254    0.0000 </r>
       <r>    8.5952    0.0000 </r>
       <r>    8.7609    0.0000 </r>
       <r>    8.9699    0.0000 </r>
       <r>    9.1438    0.0000 </r>
       <r>    9.4312    0.0000 </r>
       <r>    9.7767    0.0000 </r>
       <r>   10.0972    0.0000 </r>
       <r>   10.1847    0.0000 </r>
       <r>   10.3428    0.0000 </r>
       <r>   10.3603    0.0000 </r>
       <r>   11.5989    0.0000 </r>
       <r>   11.8259    0.0000 </r>
      </set>
      <set comment="kpoint 2">
       <r>  -11.1572    1.0000 </r>
       <r>  -11.1572    1.0000 </r>
       <r>  -10.6438    1.0000 </r>
       <r>  -10.6438    1.0000 </r>
       <r>   -9.7791    1.0000 </r>
       <r>   -9.7791    1.0000 </r>
       <r>   -9.4500    1.0000 </r>
       <r>   -9.4500    1.0000 </r>
       <r>   -8.8021    1.0000 </r>
       <r>   -8.8021    1.0000 </r>
       <r>   -8.7413    1.0000 </r>
       <r>   -8.7413    1.0000 </r>
       <r>   -5.3852    1.0000 </r>
       <r>   -5.3852    1.0000 </r>
       <r>   -5.1346    1.0000 </r>
       <r>   -5.1346    1.0000 </r>
       <r>   -3.9336    1.0000 </r>
       <r>   -3.9336    1.0000 </r>
       <r>   -2.9576    1.0000 </r>
       <r>   -2.9576    1.0000 </r>
       <r>   -0.6255    1.0000 </r>
       <r>   -0.6255    1.0000 </r>
       <r>   -0.4223    1.0000 </r>
       <r>   -0.4223    1.0000 </r>
       <r>    0.1786    1.0000 </r>
       <r>    0.1786    1.0000 </r>
       <r>    0.4972    1.0000 </r>
       <r>    0.4972    1.0000 </r>
       <r>    0.8394    1.0000 </r>
       <r>    0.8394    1.0000 </r>
       <r>    1.4791    1.0000 </r>
       <r>    1.4791    1.0000 </r>
       <r>    1.5928    1.0000 </r>
       <r>    1.5928    1.0000 </r>
       <r>    1.6608    1.0000 </r>
       <r>    1.6608    1.0000 </r>
       <r>    1.8600    1.0000 </r>
       <r>    1.8600    1.0000 </r>
       <r>    2.0512    1.0000 </r>
       <r>    2.0512    1.0000 </r>
       <r>    2.3514    1.0000 </r>
       <r>    2.3514    1.0000 </r>
       <r>    2.9368    1.0000 </r>
       <r>    2.9368    1.0000 </r>
       <r>    2.9786    1.0000 </r>
       <r>    2.9786    1.0000 </r>
       <r>    3.0129    1.0000 </r>
       <r>    3.0129    1.0000 </r>
       <r>    3.3808    1.0000 </r>
       <r>    3.3808    1.0000 </r>
       <r>    3.7353    1.0000 </r>
       <r>    3.7353    1.0000 </r>
       <r>    4.1633    1.0000 </r>
       <r>    4.1633    1.0000 </r>
       <r>    4.3354    1.0000 </r>
       <r>    4.3354    1.0000 </r>
       <r>    6.2114    0.0000 </r>
       <r>    6.2114    0.0000 </r>
       <r>    7.1047    0.0000 </r>
       <r>    7.1047    0.0000 </r>
       <r>    7.3634    0.0000 </r>
       <r>    7.3634    0.0000 </r>
       <r>    7.4870    0.0000 </r>
       <r>    7.4870    0.0000 </r>
       <r>    7.5946    0.0000 </r>
       <r>    7.5946    0.0000 </r>
       <r>    7.5947    0.0000 </r>
       <r>    7.5947    0.0000 </r>
       <r>    7.9274    0.0000 </r>
       <r>    7.9274    0.0000 </r>
       <r>    8.6664    0.0000 </r>
       <r>    8.6664    0.0000 </r>
       <r>    8.7763    0.0000 </r>
       <r>    8.7763    0.0000 </r>
       <r>    9.4060    0.0000 </r>
       <r>    9.4060    0.0000 </r>
       <r>    9.6848    0.0000 </r>
       <r>    9.6848    0.0000 </r>
       <r>    9.6889    0.0000 </r>
       <r>    9.6889    0.0000 </r>
       <r>   10.2708    0.0000 </r>
       <r>   10.2708    0.0000 </r>
       <r>   11.6200    0.0000 </r>
       <r>   11.6200    0.0000 </r>
      </set>
      <set comment="kpoint 3">
       <r>  -11.1937    1.0000 </r>
       <r>  -11.1937    1.0000 </r>
       <r>  -10.4439    1.0000 </r>
       <r>  -10.4439    1.0000 </r>
       <r>  -10.1381    1.0000 </r>
       <r>  -10.1381    1.0000 </r>
       <r>   -9.1465    1.0000 </r>
       <r>   -9.1465    1.0000 </r>
       <r>   -8.8703    1.0000 </r>
       <r>   -8.8703    1.0000 </r>
       <r>   -8.7798    1.0000 </r>
       <r>   -8.7798    1.0000 </r>
       <r>   -5.4868    1.0000 </r>
       <r>   -5.4868    1.0000 </r>
       <r>   -4.7776    1.0000 </r>
       <r>   -4.7776    1.0000 </r>
       <r>   -4.3844    1.0000 </r>
       <r>   -4.3844    1.0000 </r>
       <r>   -2.7523    1.0000 </r>
       <r>   -2.7523    1.0000 </r>
       <r>   -0.6281    1.0000 </r>
       <r>   -0.6281    1.0000 </r>
       <r>   -0.1597    1.0000 </r>
       <r>   -0.1597    1.0000 </r>
       <r>    0.3400    1.0000 </r>
       <r>    0.3400    1.0000 </r>
       <r>    0.4191    1.0000 </r>
       <r>    0.4191    1.0000 </r>
       <r>    0.5985    1.0000 </r>
       <r>    0.5985    1.0000 </r>
       <r>    1.1469    1.0000 </r>
       <r>    1.1469    1.0000 </r>
       <r>    1.3087    1.0000 </r>
       <r>    1.3087    1.0000 </r>
       <r>    1.5392    1.0000 </r>
       <r>    1.5392    1.0000 </r>
       <r>    2.1462    1.0000 </r>
       <r>    2.1462    1.0000 </r>
       <r>    2.1747    1.0000 </r>
       <r>    2.1747    1.0000 </r>
       <r>    2.6367    1.0000 </r>
       <r>    2.6367    1.0000 </r>
       <r>    2.9046    1.0000 </r>
       <r>    2.9046    1.0000 </r>
       <r>    2.9323    1.0000 </r>
       <r>    2.9323    1.0000 </r>
       <r>    3.0565    1.0000 </r>
       <r>    3.0565    1.0000 </r>
       <r>    3.2521    1.0000 </r>
       <r>    3.2521    1.0000 </r>
       <r>    3.7856    1.0000 </r>
       <r>    3.7856    1.0000 </r>
       <r>    4.2505    1.0000 </r>
       <r>    4.2505    1.0000 </r>
       <r>    4.3828    1.0000 </r>
       <r>    4.3828    1.0000 </r>
       <r>    6.3638    0.0000 </r>
       <r>    6.3638    0.0000 </r>
       <r>    6.7214    0.0000 </r>
       <r>    6.7214    0.0000 </r>
       <r>    6.9966    0.0000 </r>
       <r>    6.9966    0.0000 </r>
       <r>    7.5271    0.0000 </r>
       <r>    7.5271    0.0000 </r>
       <r>    7.6539    0.0000 </r>
       <r>    7.6539    0.0000 </r>
       <r>    8.0182    0.0000 </r>
       <r>    8.0182    0.0000 </r>
       <r>    8.2451    0.0000 </r>
       <r>    8.2451    0.0000 </r>
       <r>    8.4952    0.0000 </r>
       <r>    8.4952    0.0000 </r>
       <r>    8.5132    0.0000 </r>
       <r>    8.5132    0.0000 </r>
       <r>    9.1295    0.0000 </r>
       <r>    9.1295    0.0000 </r>
       <r>    9.8109    0.0000 </r>
       <r>    9.8109    0.0000 </r>
       <r>   10.0451    0.0000 </r>
       <r>   10.0451    0.0000 </r>
       <r>   10.2593    0.0000 </r>
       <r>   10.2593    0.0000 </r>
       <r>   11.5827    0.0000 </r>
       <r>   11.5827    0.0000 </r>
      </set>
     </set>
    </set>
   </array>
  </eigenvalues>
  <separator name="orbital magnetization" >
   <v name="MAGDIPOLOUT">      0.00000000      0.00000000      0.00000000</v>
  </separator>
  <dos>
   <i name="efermi">      4.53178365 </i>
   <total>
    <array>
     <dimension dim="1">gridpoints</dimension>
     <dimension dim="2">spin</dimension>
     <field>energy</field>
     <field>total</field>
     <field>integrated</field>
     <set>
      <set comment="spin 1">
       <r>   -12.4300     0.0000     0.0000 </r>
       <r>   -12.3453     0.0000     0.0000 </r>
       <r>   -12.2606     0.0000     0.0000 </r>
       <r>   -12.1759     0.0000     0.0000 </r>
       <r>   -12.0912     0.0000     0.0000 </r>
       <r>   -12.0065     0.0000     0.0000 </r>
       <r>   -11.9218     0.0000     0.0000 </r>
       <r>   -11.8371     0.0000     0.0000 </r>
       <r>   -11.7524     0.0000     0.0000 </r>
       <r>   -11.6677     0.0000     0.0000 </r>
       <r>   -11.5830     0.0000     0.0000 </r>
       <r>   -11.4983     0.0000     0.0000 </r>
       <r>   -11.4136     0.0000     0.0000 </r>
       <r>   -11.3289     0.0000     0.0000 </r>
       <r>   -11.2442     3.9353     0.3333 </r>
       <r>   -11.1595    10.7595     1.2447 </r>
       <r>   -11.0748     3.9281     1.9994 </r>
       <r>   -10.9901     0.0000     2.0000 </r>
       <r>   -10.9054     0.0000     2.0000 </r>
       <r>   -10.8207     0.0000     2.0000 </r>
       <r>   -10.7360     0.0000     2.0000 </r>
       <r>   -10.6513     1.1230     2.0951 </r>
       <r>   -10.5665     6.7477     2.6667 </r>
       <r>   -10.4818     3.9323     2.9997 </r>
       <r>   -10.3971    11.4537     3.9702 </r>
       <r>   -10.3124     0.0000     4.0000 </r>
       <r>   -10.2277     0.0000     4.0000 </r>
       <r>   -10.1430     5.7937     4.4907 </r>
       <r>   -10.0583     6.9480     5.0793 </r>
       <r>    -9.9736     2.9996     5.3333 </r>
       <r>    -9.8889     0.0000     5.3333 </r>
       <r>    -9.8042     0.0014     5.3335 </r>
       <r>    -9.7195     7.8692     6.0000 </r>
       <r>    -9.6348     0.0000     6.0000 </r>
       <r>    -9.5501     0.0000     6.0000 </r>
       <r>    -9.4654     0.1101     6.0093 </r>
       <r>    -9.3807     7.7605     6.6667 </r>
       <r>    -9.2960     0.0000     6.6667 </r>
       <r>    -9.2113     3.9353     7.0000 </r>
       <r>    -9.1266     7.8502     7.6649 </r>
       <r>    -9.0419     2.1678     7.8503 </r>
       <r>    -8.9572     3.9353     8.3333 </r>
       <r>    -8.8725     2.9483     8.5831 </r>
       <r>    -8.7878    15.0696    10.2764 </r>
       <r>    -8.7031    18.6921    11.9997 </r>
       <r>    -8.6184     0.0000    12.0000 </r>
       <r>    -8.5337     0.0000    12.0000 </r>
       <r>    -8.4490     0.0000    12.0000 </r>
       <r>    -8.3643     0.0000    12.0000 </r>
       <r>    -8.2796     0.0000    12.0000 </r>
       <r>    -8.1949     0.0000    12.0000 </r>
       <r>    -8.1102     0.0000    12.0000 </r>
       <r>    -8.0255     0.0000    12.0000 </r>
       <r>    -7.9408     0.0000    12.0000 </r>
       <r>    -7.8560     0.0000    12.0000 </r>
       <r>    -7.7713     0.0000    12.0000 </r>
       <r>    -7.6866     0.0000    12.0000 </r>
       <r>    -7.6019     0.0000    12.0000 </r>
       <r>    -7.5172     0.0000    12.0000 </r>
       <r>    -7.4325     0.0000    12.0000 </r>
       <r>    -7.3478     0.0000    12.0000 </r>
       <r>    -7.2631     0.0000    12.0000 </r>
       <r>    -7.1784     0.0000    12.0000 </r>
       <r>    -7.0937     0.0000    12.0000 </r>
       <r>    -7.0090     0.0000    12.0000 </r>
       <r>    -6.9243     0.0000    12.0000 </r>
       <r>    -6.8396     0.0000    12.0000 </r>
       <r>    -6.7549     0.0000    12.0000 </r>
       <r>    -6.6702     0.0000    12.0000 </r>
       <r>    -6.5855     0.0000    12.0000 </r>
       <r>    -6.5008     0.0000    12.0000 </r>
       <r>    -6.4161     0.0000    12.0000 </r>
       <r>    -6.3314     0.0000    12.0000 </r>
       <r>    -6.2467     0.0000    12.0000 </r>
       <r>    -6.1620     0.0000    12.0000 </r>
       <r>    -6.0773     0.0000    12.0000 </r>
       <r>    -5.9926     0.0000    12.0000 </r>
       <r>    -5.9079     0.0000    12.0000 </r>
       <r>    -5.8232     0.0000    12.0000 </r>
       <r>    -5.7385     0.0000    12.0000 </r>
       <r>    -5.6538     0.0000    12.0000 </r>
       <r>    -5.5691     0.0000    12.0000 </r>
       <r>    -5.4844     8.8656    12.7509 </r>
       <r>    -5.3997     0.1547    13.0131 </r>
       <r>    -5.3150     7.7572    13.6702 </r>
       <r>    -5.2303     3.8941    14.0000 </r>
       <r>    -5.1455     0.4591    14.0389 </r>
       <r>    -5.0608    11.3468    15.0000 </r>
       <r>    -4.9761     0.0000    15.0000 </r>
       <r>    -4.8914     0.0000    15.0000 </r>
       <r>    -4.8067     0.0001    15.0000 </r>
       <r>    -4.7220     7.8705    15.6667 </r>
       <r>    -4.6373     0.0000    15.6667 </r>
       <r>    -4.5526     3.9353    16.0000 </r>
       <r>    -4.4679     0.0000    16.0000 </r>
       <r>    -4.3832     8.0539    16.6822 </r>
       <r>    -4.2985     3.3679    17.2853 </r>
       <r>    -4.2138     0.0000    17.3333 </r>
       <r>    -4.1291     0.0000    17.3333 </r>
       <r>    -4.0444     0.0000    17.3333 </r>
       <r>    -3.9597     0.0008    17.3334 </r>
       <r>    -3.8750     7.8698    18.0000 </r>
       <r>    -3.7903     0.0000    18.0000 </r>
       <r>    -3.7056     0.0000    18.0000 </r>
       <r>    -3.6209     0.0000    18.0000 </r>
       <r>    -3.5362     0.0000    18.0000 </r>
       <r>    -3.4515     0.0000    18.0000 </r>
       <r>    -3.3668     0.0000    18.0000 </r>
       <r>    -3.2821     0.0000    18.0000 </r>
       <r>    -3.1974     0.0000    18.0000 </r>
       <r>    -3.1127     0.0004    18.0000 </r>
       <r>    -3.0280     3.9349    18.3333 </r>
       <r>    -2.9433     7.6928    18.9849 </r>
       <r>    -2.8586     0.0000    19.0000 </r>
       <r>    -2.7739     0.0085    19.0007 </r>
       <r>    -2.6892     7.8622    19.6667 </r>
       <r>    -2.6045     0.0000    19.6667 </r>
       <r>    -2.5198     3.9353    20.0000 </r>
       <r>    -2.4350     0.0000    20.0000 </r>
       <r>    -2.3503     0.0000    20.0000 </r>
       <r>    -2.2656     0.0000    20.0000 </r>
       <r>    -2.1809     0.0000    20.0000 </r>
       <r>    -2.0962     0.0000    20.0000 </r>
       <r>    -2.0115     0.0000    20.0000 </r>
       <r>    -1.9268     0.0000    20.0000 </r>
       <r>    -1.8421     0.0000    20.0000 </r>
       <r>    -1.7574     0.0000    20.0000 </r>
       <r>    -1.6727     0.0000    20.0000 </r>
       <r>    -1.5880     0.0000    20.0000 </r>
       <r>    -1.5033     0.0000    20.0000 </r>
       <r>    -1.4186     0.0000    20.0000 </r>
       <r>    -1.3339     0.0000    20.0000 </r>
       <r>    -1.2492     0.0000    20.0000 </r>
       <r>    -1.1645     0.0000    20.0000 </r>
       <r>    -1.0798     0.0000    20.0000 </r>
       <r>    -0.9951     0.0000    20.0000 </r>
       <r>    -0.9104     0.0000    20.0000 </r>
       <r>    -0.8257     0.0000    20.0000 </r>
       <r>    -0.7410     0.0000    20.0000 </r>
       <r>    -0.6563     3.8892    20.3294 </r>
       <r>    -0.5716    19.6749    22.0000 </r>
       <r>    -0.4869     0.0000    22.0000 </r>
       <r>    -0.4022     7.8522    22.6651 </r>
       <r>    -0.3175     0.0000    22.6667 </r>
       <r>    -0.2328     0.2451    22.6874 </r>
       <r>    -0.1481    11.1505    23.6319 </r>
       <r>    -0.0634     3.9353    24.0000 </r>
       <r>     0.0213     0.0000    24.0000 </r>
       <r>     0.1060     0.0000    24.0000 </r>
       <r>     0.1907     7.5158    24.6366 </r>
       <r>     0.2755     3.9353    25.0000 </r>
       <r>     0.3602    11.7877    25.9985 </r>
       <r>     0.4449     7.8695    26.6666 </r>
       <r>     0.5296    11.8059    27.6667 </r>
       <r>     0.6143    15.5639    28.9850 </r>
       <r>     0.6990     0.0000    29.0000 </r>
       <r>     0.7837     0.0000    29.0000 </r>
       <r>     0.8684     7.8705    29.6667 </r>
       <r>     0.9531     0.0000    29.6667 </r>
       <r>     1.0378     0.2457    29.6875 </r>
       <r>     1.1225     7.6269    30.3335 </r>
       <r>     1.2072    13.6357    31.4885 </r>
       <r>     1.2919     0.0646    31.6721 </r>
       <r>     1.3766     7.8060    32.3333 </r>
       <r>     1.4613     6.0684    32.8473 </r>
       <r>     1.5460    14.3238    34.2170 </r>
       <r>     1.6307     7.8707    35.0000 </r>
       <r>     1.7154     7.8706    35.6667 </r>
       <r>     1.8001     0.0031    35.6669 </r>
       <r>     1.8848    15.7362    36.9998 </r>
       <r>     1.9695     3.9353    37.3333 </r>
       <r>     2.0542     9.1235    38.1061 </r>
       <r>     2.1389     1.1630    38.4318 </r>
       <r>     2.2236    18.5129    40.0000 </r>
       <r>     2.3083     3.9353    40.3333 </r>
       <r>     2.3930     7.8706    41.0000 </r>
       <r>     2.4777     0.0000    41.0000 </r>
       <r>     2.5624     0.0000    41.0000 </r>
       <r>     2.6471     7.2931    41.6177 </r>
       <r>     2.7318     0.0000    41.6667 </r>
       <r>     2.8165     0.0000    41.6667 </r>
       <r>     2.9012     8.3756    42.3761 </r>
       <r>     2.9860    31.4223    45.6664 </r>
       <r>     3.0707    23.4202    47.9838 </r>
       <r>     3.1554     3.9352    48.3333 </r>
       <r>     3.2401     0.3362    48.3618 </r>
       <r>     3.3248     7.5345    49.0000 </r>
       <r>     3.4095    11.8057    50.0000 </r>
       <r>     3.4942     0.0000    50.0000 </r>
       <r>     3.5789     0.0000    50.0000 </r>
       <r>     3.6636     0.0000    50.0000 </r>
       <r>     3.7483     7.6014    50.6439 </r>
       <r>     3.8330    11.8059    51.6667 </r>
       <r>     3.9177     0.0000    51.6667 </r>
       <r>     4.0024     2.4251    51.8721 </r>
       <r>     4.0871     0.0000    52.0000 </r>
       <r>     4.1718    11.1887    52.9477 </r>
       <r>     4.2565     9.8794    53.8646 </r>
       <r>     4.3412    10.1398    54.8589 </r>
       <r>     4.4259     7.8706    55.6667 </r>
       <r>     4.5106     3.9353    56.0000 </r>
       <r>     4.5953     0.0000    56.0000 </r>
       <r>     4.6800     0.0000    56.0000 </r>
       <r>     4.7647     0.0000    56.0000 </r>
       <r>     4.8494     0.0000    56.0000 </r>
       <r>     4.9341     0.0000    56.0000 </r>
       <r>     5.0188     0.0000    56.0000 </r>
       <r>     5.1035     0.0000    56.0000 </r>
       <r>     5.1882     0.0000    56.0000 </r>
       <r>     5.2729     0.0000    56.0000 </r>
       <r>     5.3576     0.0000    56.0000 </r>
       <r>     5.4423     0.0000    56.0000 </r>
       <r>     5.5270     0.0000    56.0000 </r>
       <r>     5.6117     0.0000    56.0000 </r>
       <r>     5.6965     0.0000    56.0000 </r>
       <r>     5.7812     0.0000    56.0000 </r>
       <r>     5.8659     0.0000    56.0000 </r>
       <r>     5.9506     0.0000    56.0000 </r>
       <r>     6.0353     0.0000    56.0000 </r>
       <r>     6.1200     0.0000    56.0000 </r>
       <r>     6.2047     1.3106    56.1110 </r>
       <r>     6.2894     6.5600    56.6667 </r>
       <r>     6.3741    11.2035    57.6156 </r>
       <r>     6.4588     3.9352    58.0000 </r>
       <r>     6.5435     3.9353    58.3333 </r>
       <r>     6.6282     0.0000    58.3333 </r>
       <r>     6.7129     0.8808    58.4079 </r>
       <r>     6.7976    10.9252    59.3333 </r>
       <r>     6.8823     0.0000    59.3333 </r>
       <r>     6.9670     0.0001    59.3333 </r>
       <r>     7.0517    11.6477    60.3199 </r>
       <r>     7.1364    11.8059    61.3333 </r>
       <r>     7.2211     0.0000    61.3333 </r>
       <r>     7.3058     0.0000    61.3333 </r>
       <r>     7.3905     7.8701    62.0000 </r>
       <r>     7.4752     0.3823    62.0324 </r>
       <r>     7.5599    19.2943    63.6667 </r>
       <r>     7.6446    19.5199    65.3201 </r>
       <r>     7.7293     8.9239    66.1499 </r>
       <r>     7.8140     7.8693    66.9999 </r>
       <r>     7.8987     0.0002    67.0000 </r>
       <r>     7.9834     7.8704    67.6667 </r>
       <r>     8.0681    11.6686    68.6550 </r>
       <r>     8.1528     0.0000    68.6667 </r>
       <r>     8.2375     2.2946    68.8610 </r>
       <r>     8.3222    10.7018    69.9995 </r>
       <r>     8.4070     3.9522    70.3348 </r>
       <r>     8.4917     6.2942    70.8679 </r>
       <r>     8.5764     7.8760    72.0012 </r>
       <r>     8.6611     5.6383    72.4788 </r>
       <r>     8.7458     6.2143    73.0051 </r>
       <r>     8.8305    11.7453    74.0000 </r>
       <r>     8.9152     0.0000    74.0000 </r>
       <r>     8.9999     3.9353    74.3333 </r>
       <r>     9.0846     0.0000    74.3333 </r>
       <r>     9.1693    11.8053    75.3333 </r>
       <r>     9.2540     0.0000    75.3333 </r>
       <r>     9.3387     0.0000    75.3333 </r>
       <r>     9.4234     8.3331    76.0392 </r>
       <r>     9.5081     3.4157    76.3333 </r>
       <r>     9.5928     0.0000    76.3333 </r>
       <r>     9.6775     1.5534    76.4649 </r>
       <r>     9.7622    14.2635    77.6731 </r>
       <r>     9.8469    11.7302    78.6667 </r>
       <r>     9.9316     0.0000    78.6667 </r>
       <r>    10.0163     0.0002    78.6667 </r>
       <r>    10.1010    10.6257    79.5667 </r>
       <r>    10.1857     2.1723    79.8507 </r>
       <r>    10.2704    11.1159    80.9416 </r>
       <r>    10.3551     4.6613    81.7282 </r>
       <r>    10.4398     3.0453    82.0000 </r>
       <r>    10.5245     0.0000    82.0000 </r>
       <r>    10.6092     0.0000    82.0000 </r>
       <r>    10.6939     0.0000    82.0000 </r>
       <r>    10.7786     0.0000    82.0000 </r>
       <r>    10.8633     0.0000    82.0000 </r>
       <r>    10.9480     0.0000    82.0000 </r>
       <r>    11.0327     0.0000    82.0000 </r>
       <r>    11.1175     0.0000    82.0000 </r>
       <r>    11.2022     0.0000    82.0000 </r>
       <r>    11.2869     0.0000    82.0000 </r>
       <r>    11.3716     0.0000    82.0000 </r>
       <r>    11.4563     0.0000    82.0000 </r>
       <r>    11.5410     0.0000    82.0000 </r>
       <r>    11.6257    17.9659    83.5218 </r>
       <r>    11.7104     0.0000    83.6667 </r>
       <r>    11.7951     0.0003    83.6667 </r>
       <r>    11.8798     3.9350    84.0000 </r>
       <r>    11.9645     0.0000    84.0000 </r>
       <r>    12.0492     0.0000    84.0000 </r>
       <r>    12.1339     0.0000    84.0000 </r>
       <r>    12.2186     0.0000    84.0000 </r>
       <r>    12.3033     0.0000    84.0000 </r>
       <r>    12.3880     0.0000    84.0000 </r>
       <r>    12.4727     0.0000    84.0000 </r>
       <r>    12.5574     0.0000    84.0000 </r>
       <r>    12.6421     0.0000    84.0000 </r>
       <r>    12.7268     0.0000    84.0000 </r>
       <r>    12.8115     0.0000    84.0000 </r>
       <r>    12.8962     0.0000    84.0000 </r>
       <r>    12.9809     0.0000    84.0000 </r>
      </set>
      <set comment="spin 2">
       <r>   -12.4300     0.0000     0.0000 </r>
       <r>   -12.3453     0.0000     0.0000 </r>
       <r>   -12.2606     0.0000     0.0000 </r>
       <r>   -12.1759     0.0000     0.0000 </r>
       <r>   -12.0912     0.0000     0.0000 </r>
       <r>   -12.0065     0.0000     0.0000 </r>
       <r>   -11.9218     0.0000     0.0000 </r>
       <r>   -11.8371     0.0000     0.0000 </r>
       <r>   -11.7524     0.0000     0.0000 </r>
       <r>   -11.6677     0.0000     0.0000 </r>
       <r>   -11.5830     0.0000     0.0000 </r>
       <r>   -11.4983     0.0000     0.0000 </r>
       <r>   -11.4136     0.0000     0.0000 </r>
       <r>   -11.3289     0.0000     0.0000 </r>
       <r>   -11.2442     3.9353     0.3333 </r>
       <r>   -11.1595    10.8118     1.2491 </r>
       <r>   -11.0748     3.9285     1.9994 </r>
       <r>   -10.9901     0.0000     2.0000 </r>
       <r>   -10.9054     0.0000     2.0000 </r>
       <r>   -10.8207     0.0000     2.0000 </r>
       <r>   -10.7360     0.0000     2.0000 </r>
       <r>   -10.6513     1.1546     2.0978 </r>
       <r>   -10.5665     6.7160     2.6667 </r>
       <r>   -10.4818     3.9324     2.9998 </r>
       <r>   -10.3971    11.4646     3.9711 </r>
       <r>   -10.3124     0.0000     4.0000 </r>
       <r>   -10.2277     0.0000     4.0000 </r>
       <r>   -10.1430     5.8366     4.4944 </r>
       <r>   -10.0583     6.9263     5.0811 </r>
       <r>    -9.9736     2.9784     5.3333 </r>
       <r>    -9.8889     0.0000     5.3333 </r>
       <r>    -9.8042     0.0015     5.3335 </r>
       <r>    -9.7195     7.8691     6.0000 </r>
       <r>    -9.6348     0.0000     6.0000 </r>
       <r>    -9.5501     0.0000     6.0000 </r>
       <r>    -9.4654     0.1150     6.0097 </r>
       <r>    -9.3807     7.7556     6.6667 </r>
       <r>    -9.2960     0.0000     6.6667 </r>
       <r>    -9.2113     3.9353     7.0000 </r>
       <r>    -9.1266     7.8512     7.6650 </r>
       <r>    -9.0419     2.1941     7.8525 </r>
       <r>    -8.9572     3.9353     8.3333 </r>
       <r>    -8.8725     2.9980     8.5873 </r>
       <r>    -8.7878    15.1319    10.2817 </r>
       <r>    -8.7031    18.6648    11.9997 </r>
       <r>    -8.6184     0.0000    12.0000 </r>
       <r>    -8.5337     0.0000    12.0000 </r>
       <r>    -8.4490     0.0000    12.0000 </r>
       <r>    -8.3643     0.0000    12.0000 </r>
       <r>    -8.2796     0.0000    12.0000 </r>
       <r>    -8.1949     0.0000    12.0000 </r>
       <r>    -8.1102     0.0000    12.0000 </r>
       <r>    -8.0255     0.0000    12.0000 </r>
       <r>    -7.9408     0.0000    12.0000 </r>
       <r>    -7.8560     0.0000    12.0000 </r>
       <r>    -7.7713     0.0000    12.0000 </r>
       <r>    -7.6866     0.0000    12.0000 </r>
       <r>    -7.6019     0.0000    12.0000 </r>
       <r>    -7.5172     0.0000    12.0000 </r>
       <r>    -7.4325     0.0000    12.0000 </r>
       <r>    -7.3478     0.0000    12.0000 </r>
       <r>    -7.2631     0.0000    12.0000 </r>
       <r>    -7.1784     0.0000    12.0000 </r>
       <r>    -7.0937     0.0000    12.0000 </r>
       <r>    -7.0090     0.0000    12.0000 </r>
       <r>    -6.9243     0.0000    12.0000 </r>
       <r>    -6.8396     0.0000    12.0000 </r>
       <r>    -6.7549     0.0000    12.0000 </r>
       <r>    -6.6702     0.0000    12.0000 </r>
       <r>    -6.5855     0.0000    12.0000 </r>
       <r>    -6.5008     0.0000    12.0000 </r>
       <r>    -6.4161     0.0000    12.0000 </r>
       <r>    -6.3314     0.0000    12.0000 </r>
       <r>    -6.2467     0.0000    12.0000 </r>
       <r>    -6.1620     0.0000    12.0000 </r>
       <r>    -6.0773     0.0000    12.0000 </r>
       <r>    -5.9926     0.0000    12.0000 </r>
       <r>    -5.9079     0.0000    12.0000 </r>
       <r>    -5.8232     0.0000    12.0000 </r>
       <r>    -5.7385     0.0000    12.0000 </r>
       <r>    -5.6538     0.0000    12.0000 </r>
       <r>    -5.5691     0.0000    12.0000 </r>
       <r>    -5.4844     8.9191    12.7555 </r>
       <r>    -5.3997     0.1615    13.0137 </r>
       <r>    -5.3150     7.7523    13.6703 </r>
       <r>    -5.2303     3.8921    14.0000 </r>
       <r>    -5.1455     0.4769    14.0404 </r>
       <r>    -5.0608    11.3291    15.0000 </r>
       <r>    -4.9761     0.0000    15.0000 </r>
       <r>    -4.8914     0.0000    15.0000 </r>
       <r>    -4.8067     0.0001    15.0000 </r>
       <r>    -4.7220     7.8705    15.6667 </r>
       <r>    -4.6373     0.0000    15.6667 </r>
       <r>    -4.5526     3.9353    16.0000 </r>
       <r>    -4.4679     0.0000    16.0000 </r>
       <r>    -4.3832     8.1250    16.6882 </r>
       <r>    -4.2985     3.3852    17.2867 </r>
       <r>    -4.2138     0.0000    17.3333 </r>
       <r>    -4.1291     0.0000    17.3333 </r>
       <r>    -4.0444     0.0000    17.3333 </r>
       <r>    -3.9597     0.0009    17.3334 </r>
       <r>    -3.8750     7.8697    18.0000 </r>
       <r>    -3.7903     0.0000    18.0000 </r>
       <r>    -3.7056     0.0000    18.0000 </r>
       <r>    -3.6209     0.0000    18.0000 </r>
       <r>    -3.5362     0.0000    18.0000 </r>
       <r>    -3.4515     0.0000    18.0000 </r>
       <r>    -3.3668     0.0000    18.0000 </r>
       <r>    -3.2821     0.0000    18.0000 </r>
       <r>    -3.1974     0.0000    18.0000 </r>
       <r>    -3.1127     0.0004    18.0000 </r>
       <r>    -3.0280     3.9349    18.3333 </r>
       <r>    -2.9433     7.7003    18.9856 </r>
       <r>    -2.8586     0.0000    19.0000 </r>
       <r>    -2.7739     0.0090    19.0008 </r>
       <r>    -2.6892     7.8616    19.6667 </r>
       <r>    -2.6045     0.0000    19.6667 </r>
       <r>    -2.5198     3.9353    20.0000 </r>
       <r>    -2.4350     0.0000    20.0000 </r>
       <r>    -2.3503     0.0000    20.0000 </r>
       <r>    -2.2656     0.0000    20.0000 </r>
       <r>    -2.1809     0.0000    20.0000 </r>
       <r>    -2.0962     0.0000    20.0000 </r>
       <r>    -2.0115     0.0000    20.0000 </r>
       <r>    -1.9268     0.0000    20.0000 </r>
       <r>    -1.8421     0.0000    20.0000 </r>
       <r>    -1.7574     0.0000    20.0000 </r>
       <r>    -1.6727     0.0000    20.0000 </r>
       <r>    -1.5880     0.0000    20.0000 </r>
       <r>    -1.5033     0.0000    20.0000 </r>
       <r>    -1.4186     0.0000    20.0000 </r>
       <r>    -1.3339     0.0000    20.0000 </r>
       <r>    -1.2492     0.0000    20.0000 </r>
       <r>    -1.1645     0.0000    20.0000 </r>
       <r>    -1.0798     0.0000    20.0000 </r>
       <r>    -0.9951     0.0000    20.0000 </r>
       <r>    -0.9104     0.0000    20.0000 </r>
       <r>    -0.8257     0.0000    20.0000 </r>
       <r>    -0.7410     0.0000    20.0000 </r>
       <r>    -0.6563     3.8918    20.3296 </r>
       <r>    -0.5716    19.6748    22.0000 </r>
       <r>    -0.4869     0.0000    22.0000 </r>
       <r>    -0.4022     7.8534    22.6652 </r>
       <r>    -0.3175     0.0000    22.6667 </r>
       <r>    -0.2328     0.2548    22.6882 </r>
       <r>    -0.1481    11.1574    23.6333 </r>
       <r>    -0.0634     3.9353    24.0000 </r>
       <r>     0.0213     0.0000    24.0000 </r>
       <r>     0.1060     0.0000    24.0000 </r>
       <r>     0.1907     7.5301    24.6378 </r>
       <r>     0.2755     3.9353    25.0000 </r>
       <r>     0.3602    11.7888    25.9986 </r>
       <r>     0.4449     7.8696    26.6666 </r>
       <r>     0.5296    11.8059    27.6667 </r>
       <r>     0.6143    15.5725    28.9857 </r>
       <r>     0.6990     0.0000    29.0000 </r>
       <r>     0.7837     0.0000    29.0000 </r>
       <r>     0.8684     7.8705    29.6667 </r>
       <r>     0.9531     0.0000    29.6667 </r>
       <r>     1.0378     0.2565    29.6884 </r>
       <r>     1.1225     7.6163    30.3335 </r>
       <r>     1.2072    13.6659    31.4911 </r>
       <r>     1.2919     0.0678    31.6724 </r>
       <r>     1.3766     7.8028    32.3333 </r>
       <r>     1.4613     6.1055    32.8505 </r>
       <r>     1.5460    14.3594    34.2202 </r>
       <r>     1.6307     7.8707    35.0000 </r>
       <r>     1.7154     7.8705    35.6667 </r>
       <r>     1.8001     0.0033    35.6669 </r>
       <r>     1.8848    15.7362    36.9998 </r>
       <r>     1.9695     3.9353    37.3333 </r>
       <r>     2.0542     9.1740    38.1104 </r>
       <r>     2.1389     1.1978    38.4348 </r>
       <r>     2.2236    18.4782    40.0000 </r>
       <r>     2.3083     3.9353    40.3333 </r>
       <r>     2.3930     7.8706    41.0000 </r>
       <r>     2.4777     0.0000    41.0000 </r>
       <r>     2.5624     0.0000    41.0000 </r>
       <r>     2.6471     7.3129    41.6194 </r>
       <r>     2.7318     0.0000    41.6667 </r>
       <r>     2.8165     0.0000    41.6667 </r>
       <r>     2.9012     8.4679    42.3839 </r>
       <r>     2.9860    31.4771    45.6712 </r>
       <r>     3.0707    23.4281    47.9845 </r>
       <r>     3.1554     3.9352    48.3333 </r>
       <r>     3.2401     0.3494    48.3629 </r>
       <r>     3.3248     7.5212    49.0000 </r>
       <r>     3.4095    11.8057    50.0000 </r>
       <r>     3.4942     0.0000    50.0000 </r>
       <r>     3.5789     0.0000    50.0000 </r>
       <r>     3.6636     0.0000    50.0000 </r>
       <r>     3.7483     7.6121    50.6448 </r>
       <r>     3.8330    11.8059    51.6667 </r>
       <r>     3.9177     0.0000    51.6667 </r>
       <r>     4.0024     2.4516    51.8743 </r>
       <r>     4.0871     0.0000    52.0000 </r>
       <r>     4.1718    11.2279    52.9510 </r>
       <r>     4.2565     9.9081    53.8680 </r>
       <r>     4.3412    10.1810    54.8624 </r>
       <r>     4.4259     7.8706    55.6667 </r>
       <r>     4.5106     3.9353    56.0000 </r>
       <r>     4.5953     0.0000    56.0000 </r>
       <r>     4.6800     0.0000    56.0000 </r>
       <r>     4.7647     0.0000    56.0000 </r>
       <r>     4.8494     0.0000    56.0000 </r>
       <r>     4.9341     0.0000    56.0000 </r>
       <r>     5.0188     0.0000    56.0000 </r>
       <r>     5.1035     0.0000    56.0000 </r>
       <r>     5.1882     0.0000    56.0000 </r>
       <r>     5.2729     0.0000    56.0000 </r>
       <r>     5.3576     0.0000    56.0000 </r>
       <r>     5.4423     0.0000    56.0000 </r>
       <r>     5.5270     0.0000    56.0000 </r>
       <r>     5.6117     0.0000    56.0000 </r>
       <r>     5.6965     0.0000    56.0000 </r>
       <r>     5.7812     0.0000    56.0000 </r>
       <r>     5.8659     0.0000    56.0000 </r>
       <r>     5.9506     0.0000    56.0000 </r>
       <r>     6.0353     0.0000    56.0000 </r>
       <r>     6.1200     0.0000    56.0000 </r>
       <r>     6.2047     1.3493    56.1143 </r>
       <r>     6.2894     6.5214    56.6667 </r>
       <r>     6.3741    11.2253    57.6175 </r>
       <r>     6.4588     3.9352    58.0000 </r>
       <r>     6.5435     3.9353    58.3333 </r>
       <r>     6.6282     0.0000    58.3333 </r>
       <r>     6.7129     0.9090    58.4103 </r>
       <r>     6.7976    10.8969    59.3333 </r>
       <r>     6.8823     0.0000    59.3333 </r>
       <r>     6.9670     0.0001    59.3333 </r>
       <r>     7.0517    11.6537    60.3204 </r>
       <r>     7.1364    11.8059    61.3333 </r>
       <r>     7.2211     0.0000    61.3333 </r>
       <r>     7.3058     0.0000    61.3333 </r>
       <r>     7.3905     7.8701    62.0000 </r>
       <r>     7.4752     0.3985    62.0338 </r>
       <r>     7.5599    19.2780    63.6667 </r>
       <r>     7.6446    19.5671    65.3241 </r>
       <r>     7.7293     8.9270    66.1522 </r>
       <r>     7.8140     7.8694    66.9999 </r>
       <r>     7.8987     0.0002    67.0000 </r>
       <r>     7.9834     7.8704    67.6667 </r>
       <r>     8.0681    11.6746    68.6555 </r>
       <r>     8.1528     0.0000    68.6667 </r>
       <r>     8.2375     2.3540    68.8661 </r>
       <r>     8.3222    10.6683    69.9995 </r>
       <r>     8.4070     3.9532    70.3348 </r>
       <r>     8.4917     6.3467    70.8724 </r>
       <r>     8.5764     7.8762    72.0013 </r>
       <r>     8.6611     5.6767    72.4821 </r>
       <r>     8.7458     6.1777    73.0054 </r>
       <r>     8.8305    11.7427    74.0000 </r>
       <r>     8.9152     0.0000    74.0000 </r>
       <r>     8.9999     3.9353    74.3333 </r>
       <r>     9.0846     0.0000    74.3333 </r>
       <r>     9.1693    11.8053    75.3333 </r>
       <r>     9.2540     0.0000    75.3333 </r>
       <r>     9.3387     0.0000    75.3333 </r>
       <r>     9.4234     8.3523    76.0408 </r>
       <r>     9.5081     3.3997    76.3333 </r>
       <r>     9.5928     0.0000    76.3333 </r>
       <r>     9.6775     1.6043    76.4692 </r>
       <r>     9.7622    14.2171    77.6735 </r>
       <r>     9.8469    11.7258    78.6667 </r>
       <r>     9.9316     0.0000    78.6667 </r>
       <r>    10.0163     0.0002    78.6667 </r>
       <r>    10.1010    10.6495    79.5687 </r>
       <r>    10.1857     2.2016    79.8532 </r>
       <r>    10.2704    11.1955    80.9483 </r>
       <r>    10.3551     4.6951    81.7310 </r>
       <r>    10.4398     3.0178    82.0000 </r>
       <r>    10.5245     0.0000    82.0000 </r>
       <r>    10.6092     0.0000    82.0000 </r>
       <r>    10.6939     0.0000    82.0000 </r>
       <r>    10.7786     0.0000    82.0000 </r>
       <r>    10.8633     0.0000    82.0000 </r>
       <r>    10.9480     0.0000    82.0000 </r>
       <r>    11.0327     0.0000    82.0000 </r>
       <r>    11.1175     0.0000    82.0000 </r>
       <r>    11.2022     0.0000    82.0000 </r>
       <r>    11.2869     0.0000    82.0000 </r>
       <r>    11.3716     0.0000    82.0000 </r>
       <r>    11.4563     0.0000    82.0000 </r>
       <r>    11.5410     0.0000    82.0000 </r>
       <r>    11.6257    18.0159    83.5260 </r>
       <r>    11.7104     0.0000    83.6667 </r>
       <r>    11.7951     0.0000    83.6667 </r>
       <r>    11.8798     3.9353    84.0000 </r>
       <r>    11.9645     0.0000    84.0000 </r>
[...]
        <r>  0.0017  0.0039  0.0499  0.0000  0.0000  0.0000  0.0001  0.0000  0.0009 </r>
        <r>  0.0013  0.0541  0.0001  0.0000  0.0000  0.0001  0.0013  0.0000  0.0006 </r>
        <r>  0.0010  0.0180  0.0094  0.0000  0.0000  0.0024  0.0017  0.0000  0.0013 </r>
        <r>  0.0038  0.0363  0.0050  0.0000  0.0000  0.0003  0.0003  0.0000  0.0000 </r>
        <r>  0.0034  0.0002  0.0143  0.0000  0.0000  0.0026  0.0007  0.0000  0.0008 </r>
        <r>  0.0016  0.0034  0.0082  0.0000  0.0000  0.0000  0.0000  0.0000  0.0000 </r>
        <r>  0.0024  0.0016  0.0106  0.0000  0.0000  0.0000  0.0000  0.0000  0.0000 </r>
        <r>  0.0003  0.0019  0.0019  0.0000  0.0000  0.0000  0.0000  0.0000  0.0000 </r>
        <r>  0.0012  0.0001  0.0043  0.0000  0.0000  0.0000  0.0000  0.0000  0.0000 </r>
        <r>  0.0014  0.0396  0.0053  0.0000  0.0000  0.0000  0.0000  0.0000  0.0000 </r>
        <r>  0.0050  0.0279  0.0001  0.0000  0.0000  0.0000  0.0000  0.0000  0.0000 </r>
        <r>  0.0000  0.0172  0.0086  0.0000  0.0000  0.0000  0.0000  0.0000  0.0000 </r>
        <r>  0.0037  0.0055  0.0033  0.0000  0.0000  0.0000  0.0000  0.0000  0.0000 </r>
        <r>  0.0000  0.0134  0.0035  0.0000  0.0000  0.0000  0.0000  0.0000  0.0000 </r>
        <r>  0.0052  0.0051  0.0084  0.0000  0.0000  0.0000  0.0000  0.0000  0.0000 </r>
        <r>  0.0025  0.0085  0.0002  0.0000  0.0000  0.0000  0.0000  0.0000  0.0000 </r>
        <r>  0.0077  0.0002  0.0051  0.0000  0.0000  0.0000  0.0000  0.0000  0.0000 </r>
       </set>
       <set comment="band 76">
        <r>  0.0017  0.0039  0.0499  0.0000  0.0000  0.0000  0.0001  0.0000  0.0009 </r>
        <r>  0.0002  0.0035  0.0030  0.0000  0.0000  0.0004  0.0002  0.0000  0.0013 </r>
        <r>  0.0032  0.0119  0.0519  0.0000  0.0000  0.0000  0.0003  0.0000  0.0002 </r>
        <r>  0.0017  0.0116  0.0051  0.0000  0.0000  0.0004  0.0005  0.0000  0.0006 </r>
        <r>  0.0034  0.0002  0.0143  0.0000  0.0000  0.0026  0.0007  0.0000  0.0008 </r>
        <r>  0.0038  0.0363  0.0050  0.0000  0.0000  0.0003  0.0003  0.0000  0.0000 </r>
        <r>  0.0010  0.0180  0.0094  0.0000  0.0000  0.0024  0.0017  0.0000  0.0013 </r>
        <r>  0.0013  0.0541  0.0001  0.0000  0.0000  0.0001  0.0013  0.0000  0.0006 </r>
        <r>  0.0012  0.0001  0.0043  0.0000  0.0000  0.0000  0.0000  0.0000  0.0000 </r>
        <r>  0.0003  0.0019  0.0019  0.0000  0.0000  0.0000  0.0000  0.0000  0.0000 </r>
        <r>  0.0024  0.0016  0.0106  0.0000  0.0000  0.0000  0.0000  0.0000  0.0000 </r>
        <r>  0.0016  0.0034  0.0082  0.0000  0.0000  0.0000  0.0000  0.0000  0.0000 </r>
        <r>  0.0037  0.0055  0.0033  0.0000  0.0000  0.0000  0.0000  0.0000  0.0000 </r>
        <r>  0.0000  0.0172  0.0086  0.0000  0.0000  0.0000  0.0000  0.0000  0.0000 </r>
        <r>  0.0050  0.0279  0.0001  0.0000  0.0000  0.0000  0.0000  0.0000  0.0000 </r>
        <r>  0.0014  0.0396  0.0053  0.0000  0.0000  0.0000  0.0000  0.0000  0.0000 </r>
        <r>  0.0077  0.0002  0.0051  0.0000  0.0000  0.0000  0.0000  0.0000  0.0000 </r>
        <r>  0.0025  0.0085  0.0002  0.0000  0.0000  0.0000  0.0000  0.0000  0.0000 </r>
        <r>  0.0052  0.0051  0.0084  0.0000  0.0000  0.0000  0.0000  0.0000  0.0000 </r>
        <r>  0.0000  0.0134  0.0035  0.0000  0.0000  0.0000  0.0000  0.0000  0.0000 </r>
       </set>
       <set comment="band 77">
        <r>  0.0000  0.0000  0.0000  0.0043  0.0000  0.0000  0.0000  0.0006  0.0000 </r>
        <r>  0.0000  0.0000  0.0000  0.0024  0.0000  0.0000  0.0000  0.0007  0.0000 </r>
        <r>  0.0000  0.0000  0.0000  0.0949  0.0000  0.0000  0.0000  0.0002  0.0000 </r>
        <r>  0.0000  0.0000  0.0000  0.0930  0.0000  0.0000  0.0000  0.0002  0.0000 </r>
        <r>  0.0000  0.0000  0.0000  0.0019  0.0002  0.0000  0.0000  0.0003  0.0000 </r>
        <r>  0.0000  0.0000  0.0000  0.0008  0.0002  0.0000  0.0000  0.0002  0.0000 </r>
        <r>  0.0000  0.0000  0.0000  0.0958  0.0000  0.0000  0.0000  0.0013  0.0000 </r>
        <r>  0.0000  0.0000  0.0000  0.0946  0.0000  0.0000  0.0000  0.0013  0.0000 </r>
        <r>  0.0000  0.0000  0.0000  0.0018  0.0000  0.0000  0.0000  0.0000  0.0000 </r>
        <r>  0.0000  0.0000  0.0000  0.0011  0.0000  0.0000  0.0000  0.0000  0.0000 </r>
        <r>  0.0000  0.0000  0.0000  0.0314  0.0000  0.0000  0.0000  0.0000  0.0000 </r>
        <r>  0.0000  0.0000  0.0000  0.0307  0.0000  0.0000  0.0000  0.0000  0.0000 </r>
        <r>  0.0000  0.0000  0.0000  0.0004  0.0000  0.0000  0.0000  0.0000  0.0000 </r>
        <r>  0.0000  0.0000  0.0000  0.0001  0.0000  0.0000  0.0000  0.0000  0.0000 </r>
        <r>  0.0000  0.0000  0.0000  0.0434  0.0000  0.0000  0.0000  0.0000  0.0000 </r>
        <r>  0.0000  0.0000  0.0000  0.0431  0.0000  0.0000  0.0000  0.0000  0.0000 </r>
        <r>  0.0000  0.0000  0.0000  0.0317  0.0000  0.0000  0.0000  0.0000  0.0000 </r>
        <r>  0.0000  0.0000  0.0000  0.0322  0.0000  0.0000  0.0000  0.0000  0.0000 </r>
        <r>  0.0000  0.0000  0.0000  0.0005  0.0000  0.0000  0.0000  0.0000  0.0000 </r>
        <r>  0.0000  0.0000  0.0000  0.0011  0.0000  0.0000  0.0000  0.0000  0.0000 </r>
       </set>
       <set comment="band 78">
        <r>  0.0000  0.0000  0.0000  0.0930  0.0000  0.0000  0.0000  0.0002  0.0000 </r>
        <r>  0.0000  0.0000  0.0000  0.0949  0.0000  0.0000  0.0000  0.0002  0.0000 </r>
        <r>  0.0000  0.0000  0.0000  0.0024  0.0000  0.0000  0.0000  0.0007  0.0000 </r>
        <r>  0.0000  0.0000  0.0000  0.0043  0.0000  0.0000  0.0000  0.0006  0.0000 </r>
        <r>  0.0000  0.0000  0.0000  0.0946  0.0000  0.0000  0.0000  0.0013  0.0000 </r>
        <r>  0.0000  0.0000  0.0000  0.0958  0.0000  0.0000  0.0000  0.0013  0.0000 </r>
        <r>  0.0000  0.0000  0.0000  0.0008  0.0002  0.0000  0.0000  0.0002  0.0000 </r>
        <r>  0.0000  0.0000  0.0000  0.0019  0.0002  0.0000  0.0000  0.0003  0.0000 </r>
        <r>  0.0000  0.0000  0.0000  0.0307  0.0000  0.0000  0.0000  0.0000  0.0000 </r>
        <r>  0.0000  0.0000  0.0000  0.0314  0.0000  0.0000  0.0000  0.0000  0.0000 </r>
        <r>  0.0000  0.0000  0.0000  0.0011  0.0000  0.0000  0.0000  0.0000  0.0000 </r>
        <r>  0.0000  0.0000  0.0000  0.0018  0.0000  0.0000  0.0000  0.0000  0.0000 </r>
        <r>  0.0000  0.0000  0.0000  0.0431  0.0000  0.0000  0.0000  0.0000  0.0000 </r>
        <r>  0.0000  0.0000  0.0000  0.0434  0.0000  0.0000  0.0000  0.0000  0.0000 </r>
        <r>  0.0000  0.0000  0.0000  0.0001  0.0000  0.0000  0.0000  0.0000  0.0000 </r>
        <r>  0.0000  0.0000  0.0000  0.0004  0.0000  0.0000  0.0000  0.0000  0.0000 </r>
        <r>  0.0000  0.0000  0.0000  0.0011  0.0000  0.0000  0.0000  0.0000  0.0000 </r>
        <r>  0.0000  0.0000  0.0000  0.0005  0.0000  0.0000  0.0000  0.0000  0.0000 </r>
        <r>  0.0000  0.0000  0.0000  0.0322  0.0000  0.0000  0.0000  0.0000  0.0000 </r>
        <r>  0.0000  0.0000  0.0000  0.0317  0.0000  0.0000  0.0000  0.0000  0.0000 </r>
       </set>
       <set comment="band 79">
        <r>  0.0005  0.0003  0.0081  0.0000  0.0000  0.0004  0.0006  0.0000  0.0000 </r>
        <r>  0.0010  0.0002  0.0067  0.0000  0.0000  0.0000  0.0008  0.0000  0.0039 </r>
        <r>  0.0002  0.0001  0.0014  0.0000  0.0000  0.0042  0.0000  0.0000  0.0229 </r>
        <r>  0.0006  0.0000  0.0000  0.0000  0.0000  0.0038  0.0002  0.0000  0.0268 </r>
        <r>  0.0001  0.0010  0.0000  0.0000  0.0000  0.0000  0.0000  0.0000  0.0000 </r>
        <r>  0.0001  0.0000  0.0001  0.0000  0.0000  0.0003  0.0003  0.0000  0.0003 </r>
        <r>  0.0000  0.0088  0.0007  0.0000  0.0000  0.0011  0.0012  0.0000  0.0013 </r>
        <r>  0.0001  0.0078  0.0007  0.0000  0.0000  0.0014  0.0015  0.0000  0.0017 </r>
        <r>  0.0000  0.0002  0.0014  0.0000  0.0000  0.0000  0.0000  0.0000  0.0000 </r>
        <r>  0.0000  0.0002  0.0000  0.0000  0.0000  0.0000  0.0000  0.0000  0.0000 </r>
        <r>  0.0003  0.0046  0.0071  0.0000  0.0000  0.0000  0.0000  0.0000  0.0000 </r>
        <r>  0.0003  0.0047  0.0057  0.0000  0.0000  0.0000  0.0000  0.0000  0.0000 </r>
        <r>  0.0007  0.0083  0.0037  0.0000  0.0000  0.0000  0.0000  0.0000  0.0000 </r>
        <r>  0.0018  0.0029  0.0040  0.0000  0.0000  0.0000  0.0000  0.0000  0.0000 </r>
        <r>  0.0010  0.0119  0.0000  0.0000  0.0000  0.0000  0.0000  0.0000  0.0000 </r>
        <r>  0.0020  0.0065  0.0004  0.0000  0.0000  0.0000  0.0000  0.0000  0.0000 </r>
        <r>  0.0003  0.0072  0.0033  0.0000  0.0000  0.0000  0.0000  0.0000  0.0000 </r>
        <r>  0.0001  0.0068  0.0039  0.0000  0.0000  0.0000  0.0000  0.0000  0.0000 </r>
        <r>  0.0004  0.0005  0.0000  0.0000  0.0000  0.0000  0.0000  0.0000  0.0000 </r>
        <r>  0.0002  0.0001  0.0005  0.0000  0.0000  0.0000  0.0000  0.0000  0.0000 </r>
       </set>
       <set comment="band 80">
        <r>  0.0006  0.0000  0.0000  0.0000  0.0000  0.0038  0.0002  0.0000  0.0268 </r>
        <r>  0.0002  0.0001  0.0014  0.0000  0.0000  0.0042  0.0000  0.0000  0.0229 </r>
        <r>  0.0010  0.0002  0.0067  0.0000  0.0000  0.0000  0.0008  0.0000  0.0039 </r>
        <r>  0.0005  0.0003  0.0081  0.0000  0.0000  0.0004  0.0006  0.0000  0.0000 </r>
        <r>  0.0001  0.0078  0.0007  0.0000  0.0000  0.0014  0.0015  0.0000  0.0017 </r>
        <r>  0.0000  0.0088  0.0007  0.0000  0.0000  0.0011  0.0012  0.0000  0.0013 </r>
        <r>  0.0001  0.0000  0.0001  0.0000  0.0000  0.0003  0.0003  0.0000  0.0003 </r>
        <r>  0.0001  0.0010  0.0000  0.0000  0.0000  0.0000  0.0000  0.0000  0.0000 </r>
        <r>  0.0003  0.0047  0.0057  0.0000  0.0000  0.0000  0.0000  0.0000  0.0000 </r>
        <r>  0.0003  0.0046  0.0071  0.0000  0.0000  0.0000  0.0000  0.0000  0.0000 </r>
        <r>  0.0000  0.0002  0.0000  0.0000  0.0000  0.0000  0.0000  0.0000  0.0000 </r>
        <r>  0.0000  0.0002  0.0014  0.0000  0.0000  0.0000  0.0000  0.0000  0.0000 </r>
        <r>  0.0020  0.0065  0.0004  0.0000  0.0000  0.0000  0.0000  0.0000  0.0000 </r>
        <r>  0.0010  0.0119  0.0000  0.0000  0.0000  0.0000  0.0000  0.0000  0.0000 </r>
        <r>  0.0018  0.0029  0.0040  0.0000  0.0000  0.0000  0.0000  0.0000  0.0000 </r>
        <r>  0.0007  0.0083  0.0037  0.0000  0.0000  0.0000  0.0000  0.0000  0.0000 </r>
        <r>  0.0002  0.0001  0.0005  0.0000  0.0000  0.0000  0.0000  0.0000  0.0000 </r>
        <r>  0.0004  0.0005  0.0000  0.0000  0.0000  0.0000  0.0000  0.0000  0.0000 </r>
        <r>  0.0001  0.0068  0.0039  0.0000  0.0000  0.0000  0.0000  0.0000  0.0000 </r>
        <r>  0.0003  0.0072  0.0033  0.0000  0.0000  0.0000  0.0000  0.0000  0.0000 </r>
       </set>
       <set comment="band 81">
        <r>  0.0058  0.0275  0.0527  0.0000  0.0000  0.0031  0.0040  0.0000  0.0000 </r>
        <r>  0.0058  0.0274  0.0526  0.0000  0.0000  0.0031  0.0041  0.0000  0.0000 </r>
        <r>  0.0000  0.0003  0.0004  0.0000  0.0000  0.0003  0.0001  0.0000  0.0012 </r>
        <r>  0.0000  0.0002  0.0003  0.0000  0.0000  0.0003  0.0001  0.0000  0.0012 </r>
        <r>  0.0033  0.0140  0.0265  0.0000  0.0000  0.0035  0.0007  0.0000  0.0001 </r>
        <r>  0.0034  0.0139  0.0263  0.0000  0.0000  0.0035  0.0007  0.0000  0.0002 </r>
        <r>  0.0015  0.0014  0.0019  0.0000  0.0000  0.0000  0.0000  0.0000  0.0013 </r>
        <r>  0.0016  0.0013  0.0017  0.0000  0.0000  0.0000  0.0000  0.0000  0.0013 </r>
        <r>  0.0001  0.0162  0.0062  0.0000  0.0000  0.0000  0.0000  0.0000  0.0000 </r>
        <r>  0.0001  0.0162  0.0060  0.0000  0.0000  0.0000  0.0000  0.0000  0.0000 </r>
        <r>  0.0016  0.0003  0.0059  0.0000  0.0000  0.0000  0.0000  0.0000  0.0000 </r>
        <r>  0.0016  0.0004  0.0057  0.0000  0.0000  0.0000  0.0000  0.0000  0.0000 </r>
        <r>  0.0122  0.0061  0.0490  0.0000  0.0000  0.0000  0.0000  0.0000  0.0000 </r>
        <r>  0.0122  0.0061  0.0489  0.0000  0.0000  0.0000  0.0000  0.0000  0.0000 </r>
        <r>  0.0001  0.0000  0.0000  0.0000  0.0000  0.0000  0.0000  0.0000  0.0000 </r>
        <r>  0.0000  0.0000  0.0000  0.0000  0.0000  0.0000  0.0000  0.0000  0.0000 </r>
        <r>  0.0001  0.0006  0.0000  0.0000  0.0000  0.0000  0.0000  0.0000  0.0000 </r>
        <r>  0.0001  0.0006  0.0000  0.0000  0.0000  0.0000  0.0000  0.0000  0.0000 </r>
        <r>  0.0085  0.0010  0.0302  0.0000  0.0000  0.0000  0.0000  0.0000  0.0000 </r>
        <r>  0.0085  0.0010  0.0302  0.0000  0.0000  0.0000  0.0000  0.0000  0.0000 </r>
       </set>
       <set comment="band 82">
        <r>  0.0000  0.0002  0.0003  0.0000  0.0000  0.0003  0.0001  0.0000  0.0012 </r>
        <r>  0.0000  0.0003  0.0004  0.0000  0.0000  0.0003  0.0001  0.0000  0.0012 </r>
        <r>  0.0058  0.0274  0.0526  0.0000  0.0000  0.0031  0.0041  0.0000  0.0000 </r>
        <r>  0.0058  0.0275  0.0527  0.0000  0.0000  0.0031  0.0040  0.0000  0.0000 </r>
        <r>  0.0016  0.0013  0.0017  0.0000  0.0000  0.0000  0.0000  0.0000  0.0013 </r>
        <r>  0.0015  0.0014  0.0019  0.0000  0.0000  0.0000  0.0000  0.0000  0.0013 </r>
        <r>  0.0034  0.0139  0.0263  0.0000  0.0000  0.0035  0.0007  0.0000  0.0002 </r>
        <r>  0.0033  0.0140  0.0265  0.0000  0.0000  0.0035  0.0007  0.0000  0.0001 </r>
        <r>  0.0016  0.0004  0.0057  0.0000  0.0000  0.0000  0.0000  0.0000  0.0000 </r>
        <r>  0.0016  0.0003  0.0059  0.0000  0.0000  0.0000  0.0000  0.0000  0.0000 </r>
        <r>  0.0001  0.0162  0.0060  0.0000  0.0000  0.0000  0.0000  0.0000  0.0000 </r>
        <r>  0.0001  0.0162  0.0062  0.0000  0.0000  0.0000  0.0000  0.0000  0.0000 </r>
        <r>  0.0000  0.0000  0.0000  0.0000  0.0000  0.0000  0.0000  0.0000  0.0000 </r>
        <r>  0.0001  0.0000  0.0000  0.0000  0.0000  0.0000  0.0000  0.0000  0.0000 </r>
        <r>  0.0122  0.0061  0.0489  0.0000  0.0000  0.0000  0.0000  0.0000  0.0000 </r>
        <r>  0.0122  0.0061  0.0490  0.0000  0.0000  0.0000  0.0000  0.0000  0.0000 </r>
        <r>  0.0085  0.0010  0.0302  0.0000  0.0000  0.0000  0.0000  0.0000  0.0000 </r>
        <r>  0.0085  0.0010  0.0302  0.0000  0.0000  0.0000  0.0000  0.0000  0.0000 </r>
        <r>  0.0001  0.0006  0.0000  0.0000  0.0000  0.0000  0.0000  0.0000  0.0000 </r>
        <r>  0.0001  0.0006  0.0000  0.0000  0.0000  0.0000  0.0000  0.0000  0.0000 </r>
       </set>
       <set comment="band 83">
        <r>  0.0007  0.0009  0.0012  0.0000  0.0000  0.0014  0.0028  0.0000  0.0017 </r>
        <r>  0.0004  0.0005  0.0017  0.0000  0.0000  0.0009  0.0014  0.0000  0.0035 </r>
        <r>  0.0009  0.0018  0.0051  0.0000  0.0000  0.0046  0.0042  0.0000  0.0051 </r>
        <r>  0.0006  0.0014  0.0056  0.0000  0.0000  0.0041  0.0028  0.0000  0.0069 </r>
        <r>  0.0000  0.0001  0.0043  0.0000  0.0000  0.0010  0.0015  0.0000  0.0040 </r>
        <r>  0.0000  0.0003  0.0066  0.0000  0.0000  0.0021  0.0010  0.0000  0.0049 </r>
        <r>  0.0001  0.0003  0.0025  0.0000  0.0000  0.0023  0.0011  0.0000  0.0173 </r>
        <r>  0.0001  0.0004  0.0049  0.0000  0.0000  0.0033  0.0005  0.0000  0.0182 </r>
        <r>  0.0001  0.0025  0.0001  0.0000  0.0000  0.0000  0.0000  0.0000  0.0000 </r>
        <r>  0.0001  0.0041  0.0001  0.0000  0.0000  0.0000  0.0000  0.0000  0.0000 </r>
        <r>  0.0005  0.0018  0.0003  0.0000  0.0000  0.0000  0.0000  0.0000  0.0000 </r>
        <r>  0.0005  0.0034  0.0003  0.0000  0.0000  0.0000  0.0000  0.0000  0.0000 </r>
        <r>  0.0001  0.0003  0.0026  0.0000  0.0000  0.0000  0.0000  0.0000  0.0000 </r>
        <r>  0.0000  0.0006  0.0028  0.0000  0.0000  0.0000  0.0000  0.0000  0.0000 </r>
        <r>  0.0002  0.0015  0.0006  0.0000  0.0000  0.0000  0.0000  0.0000  0.0000 </r>
        <r>  0.0002  0.0017  0.0008  0.0000  0.0000  0.0000  0.0000  0.0000  0.0000 </r>
        <r>  0.0014  0.0003  0.0042  0.0000  0.0000  0.0000  0.0000  0.0000  0.0000 </r>
        <r>  0.0016  0.0002  0.0048  0.0000  0.0000  0.0000  0.0000  0.0000  0.0000 </r>
        <r>  0.0003  0.0009  0.0010  0.0000  0.0000  0.0000  0.0000  0.0000  0.0000 </r>
        <r>  0.0006  0.0007  0.0015  0.0000  0.0000  0.0000  0.0000  0.0000  0.0000 </r>
       </set>
       <set comment="band 84">
        <r>  0.0006  0.0014  0.0056  0.0000  0.0000  0.0041  0.0028  0.0000  0.0069 </r>
        <r>  0.0009  0.0018  0.0051  0.0000  0.0000  0.0046  0.0042  0.0000  0.0051 </r>
        <r>  0.0004  0.0005  0.0017  0.0000  0.0000  0.0009  0.0014  0.0000  0.0035 </r>
        <r>  0.0007  0.0009  0.0011  0.0000  0.0000  0.0014  0.0028  0.0000  0.0017 </r>
        <r>  0.0001  0.0004  0.0049  0.0000  0.0000  0.0033  0.0005  0.0000  0.0182 </r>
        <r>  0.0001  0.0003  0.0025  0.0000  0.0000  0.0023  0.0011  0.0000  0.0173 </r>
        <r>  0.0000  0.0003  0.0066  0.0000  0.0000  0.0021  0.0010  0.0000  0.0049 </r>
        <r>  0.0000  0.0001  0.0043  0.0000  0.0000  0.0010  0.0015  0.0000  0.0040 </r>
        <r>  0.0005  0.0034  0.0003  0.0000  0.0000  0.0000  0.0000  0.0000  0.0000 </r>
        <r>  0.0005  0.0018  0.0003  0.0000  0.0000  0.0000  0.0000  0.0000  0.0000 </r>
        <r>  0.0001  0.0041  0.0001  0.0000  0.0000  0.0000  0.0000  0.0000  0.0000 </r>
        <r>  0.0001  0.0025  0.0001  0.0000  0.0000  0.0000  0.0000  0.0000  0.0000 </r>
        <r>  0.0002  0.0017  0.0008  0.0000  0.0000  0.0000  0.0000  0.0000  0.0000 </r>
        <r>  0.0002  0.0015  0.0006  0.0000  0.0000  0.0000  0.0000  0.0000  0.0000 </r>
        <r>  0.0000  0.0006  0.0028  0.0000  0.0000  0.0000  0.0000  0.0000  0.0000 </r>
        <r>  0.0001  0.0003  0.0026  0.0000  0.0000  0.0000  0.0000  0.0000  0.0000 </r>
        <r>  0.0006  0.0007  0.0015  0.0000  0.0000  0.0000  0.0000  0.0000  0.0000 </r>
        <r>  0.0003  0.0009  0.0010  0.0000  0.0000  0.0000  0.0000  0.0000  0.0000 </r>
        <r>  0.0016  0.0002  0.0048  0.0000  0.0000  0.0000  0.0000  0.0000  0.0000 </r>
        <r>  0.0014  0.0003  0.0042  0.0000  0.0000  0.0000  0.0000  0.0000  0.0000 </r>
       </set>
      </set>
     </set>
    </set>
   </array>
  </projected>
 </calculation>
 <structure name="finalpos" >
  <crystal>
   <varray name="basis" >
    <v>       3.84473291       0.00000000       0.00000000 </v>
    <v>      -0.00000000      11.36714114       0.00000000 </v>
    <v>       0.00000000       0.00000000      11.80011845 </v>
   </varray>
   <i name="volume">    515.70791197 </i>
   <varray name="rec_basis" >
    <v>       0.26009609       0.00000000       0.00000000 </v>
    <v>       0.00000000       0.08797287       0.00000000 </v>
    <v>      -0.00000000      -0.00000000       0.08474491 </v>
   </varray>
  </crystal>
  <varray name="positions" >
   <v>       0.75000000       0.46558362       0.85735040 </v>
   <v>       0.25000000       0.53441638       0.14264960 </v>
   <v>       0.25000000       0.96558362       0.64264960 </v>
   <v>       0.75000000       0.03441638       0.35735040 </v>
   <v>       0.25000000       0.17308267       0.96694360 </v>
   <v>       0.75000000       0.82691733       0.03305640 </v>
   <v>       0.75000000       0.67308267       0.53305640 </v>
   <v>       0.25000000       0.32691733       0.46694360 </v>
   <v>       0.75000000       0.06146949       0.87592716 </v>
   <v>       0.25000000       0.93853051       0.12407284 </v>
   <v>       0.25000000       0.56146949       0.62407284 </v>
   <v>       0.75000000       0.43853051       0.37592716 </v>
   <v>       0.75000000       0.37923204       0.04854145 </v>
   <v>       0.25000000       0.62076796       0.95145855 </v>
   <v>       0.25000000       0.87923204       0.45145855 </v>
   <v>       0.75000000       0.12076796       0.54854145 </v>
   <v>       0.25000000       0.18854761       0.30024927 </v>
   <v>       0.75000000       0.81145239       0.69975073 </v>
   <v>       0.75000000       0.68854761       0.19975073 </v>
   <v>       0.25000000       0.31145239       0.80024927 </v>
  </varray>
 </structure>
</modeling>
