<?xml version="1.0" encoding="ISO-8859-1"?>
<modeling>
 <generator>
  <i name="program" type="string">vasp </i>
  <i name="version" type="string">6.4.2  </i>
  <i name="subversion" type="string">20Jul23 (build Mar 15 2024 16:31:38) complex                          parallel </i>
  <i name="platform" type="string">LinuxIFC </i>
  <i name="date" type="string">2025 03 06 </i>
  <i name="time" type="string">10:52:40 </i>
 </generator>
 <incar>
  <i type="string" name="PREC">Accurate</i>
  <i type="string" name="ALGO">Normal</i>
  <i type="int" name="ISPIN">     2</i>
  <i type="int" name="NELM">   200</i>
  <i name="EDIFF">      0.00001000</i>
  <i type="int" name="NSW">     0</i>
  <i name="ENCUT">    680.00000000</i>
  <i name="ENAUG">   1360.00000000</i>
  <v name="MAGMOM">      0.00000000      0.00000000      0.00000000      0.00000000      0.00000000      0.00000000      0.00000000      0.00000000</v>
  <i type="logical" name="LREAL"> F  </i>
  <i type="int" name="ISMEAR">     0</i>
  <i name="SIGMA">      0.20000000</i>
  <i type="int" name="LMAXMIX">     4</i>
  <i type="logical" name="LWAVE"> F  </i>
  <i type="logical" name="LCHARG"> T  </i>
  <i type="logical" name="LVTOT"> T  </i>
  <i type="int" name="LORBIT">    11</i>
  <i type="logical" name="LELF"> F  </i>
  <i type="logical" name="LASPH"> T  </i>
  <i type="logical" name="LAECHG"> T  </i>
  <i name="HFSCREEN">      0.20000000</i>
  <i type="logical" name="LHFCALC"> T  </i>
  <i type="string" name="GGA">Pe</i>
  <i type="string" name="PRECFOCK">Fast</i>
  <i type="logical" name="LDAU"> F  </i>
  <i type="logical" name="LMIXTAU"> T  </i>
 </incar>
 <primitive_cell>
  <structure name="primitive_cell" >
   <crystal>
    <varray name="basis" >
     <v>       2.83123894      -2.83123894       0.00000000 </v>
     <v>       2.83123894       0.00000000       2.83123894 </v>
     <v>       0.00000000      -2.83123894       2.83123894 </v>
    </varray>
    <i name="volume">     45.38993511 </i>
    <varray name="rec_basis" >
     <v>       0.17660113      -0.17660113      -0.17660113 </v>
     <v>       0.17660113       0.17660113       0.17660113 </v>
     <v>      -0.17660113      -0.17660113       0.17660113 </v>
    </varray>
   </crystal>
   <varray name="positions" >
    <v>       0.00000000       0.00000000       0.00000000 </v>
    <v>       0.75000000       0.75000000       0.75000000 </v>
   </varray>
  </structure>
  <varray name="primitive_index" >
   <v type="int" >        1 </v>
   <v type="int" >        5 </v>
  </varray>
 </primitive_cell>
 <kpoints>
  <varray name="kpointlist" >
   <v>       0.00000000       0.00000000       0.00000000 </v>
   <v>       0.50000000       0.50000000       0.00000000 </v>
  </varray>
  <varray name="weights" >
   <v>       0.50000000 </v>
   <v>       0.50000000 </v>
  </varray>
 </kpoints>
 <parameters>
  <separator name="general" >
   <i type="string" name="SYSTEM">unknown system</i>
   <i type="logical" name="LCOMPAT"> F  </i>
  </separator>
  <separator name="electronic" >
   <i type="string" name="PREC">accura</i>
   <i name="ENMAX">    680.00000000</i>
   <i name="ENAUG">   1360.00000000</i>
   <i name="EDIFF">      0.00001000</i>
   <i type="int" name="IALGO">    38</i>
   <i type="int" name="IWAVPR">    10</i>
   <i type="int" name="NBANDS">    48</i>
   <i type="int" name="NBANDSLOW">    -1</i>
   <i type="int" name="NBANDSHIGH">    -1</i>
   <i name="NELECT">     72.00000000</i>
   <i type="int" name="TURBO">     0</i>
   <i type="int" name="IRESTART">     0</i>
   <i type="int" name="NREBOOT">     0</i>
   <i type="int" name="NMIN">     0</i>
   <i name="EREF">      0.00000000</i>
   <separator name="electronic smearing" >
    <i type="int" name="ISMEAR">     0</i>
    <i name="SIGMA">      0.20000000</i>
    <i name="KSPACING">      0.50000000</i>
    <i type="logical" name="KGAMMA"> T  </i>
    <i type="logical" name="KBLOWUP"> T  </i>
   </separator>
   <separator name="electronic projectors" >
    <i type="logical" name="LREAL"> F  </i>
    <v name="ROPT">      0.00000000      0.00000000</v>
    <i type="int" name="LMAXPAW">  -100</i>
    <i type="int" name="LMAXMIX">     4</i>
    <i type="logical" name="NLSPLINE"> F  </i>
   </separator>
   <separator name="electronic startup" >
    <i type="int" name="ISTART">     0</i>
    <i type="int" name="ICHARG">     2</i>
    <i type="int" name="INIWAV">     1</i>
   </separator>
   <separator name="electronic spin" >
    <i type="int" name="ISPIN">     2</i>
    <i type="logical" name="LNONCOLLINEAR"> F  </i>
    <v name="MAGMOM">      0.00000000      0.00000000      0.00000000      0.00000000      0.00000000      0.00000000      0.00000000      0.00000000</v>
    <i name="NUPDOWN">     -1.00000000</i>
    <i type="logical" name="LSORBIT"> F  </i>
    <v name="SAXIS">      0.00000000      0.00000000      1.00000000</v>
    <i type="logical" name="LSPIRAL"> F  </i>
    <v name="QSPIRAL">      0.00000000      0.00000000      0.00000000</v>
    <i type="logical" name="LZEROZ"> F  </i>
   </separator>
   <separator name="electronic exchange-correlation" >
    <i type="logical" name="LASPH"> T  </i>
    <i type="logical" name="LMETAGGA"> F  </i>
   </separator>
   <separator name="electronic convergence" >
    <i type="int" name="NELM">   200</i>
    <i type="int" name="NELMDL">    -5</i>
    <i type="int" name="NELMIN">     2</i>
    <i name="ENINI">    680.00000000</i>
    <separator name="electronic convergence detail" >
     <i type="logical" name="LDIAG"> T  </i>
     <i type="logical" name="LSUBROT"> F  </i>
     <i name="WEIMIN">      0.00000000</i>
     <i name="EBREAK">      0.00000005</i>
     <i name="DEPER">      0.30000000</i>
     <i type="int" name="NRMM">     4</i>
     <i name="TIME">      0.40000000</i>
    </separator>
   </separator>
   <separator name="electronic mixer" >
    <i name="AMIX">      0.40000000</i>
    <i name="BMIX">      1.00000000</i>
    <i name="AMIN">      0.10000000</i>
    <i name="AMIX_MAG">      1.60000000</i>
    <i name="BMIX_MAG">      1.00000000</i>
    <separator name="electronic mixer details" >
     <i type="int" name="IMIX">     1</i>
     <i type="logical" name="MIXFIRST"> F  </i>
     <i type="int" name="MAXMIX">   -45</i>
     <i name="WC">    100.00000000</i>
     <i type="int" name="INIMIX">     1</i>
     <i type="int" name="MIXPRE">     1</i>
     <i type="int" name="MREMOVE">     5</i>
    </separator>
   </separator>
   <separator name="electronic dipolcorrection" >
    <i type="logical" name="LDIPOL"> F  </i>
    <i type="logical" name="LMONO"> F  </i>
    <i type="int" name="IDIPOL">     0</i>
    <i name="EPSILON">      1.00000000</i>
    <v name="DIPOL">   -100.00000000   -100.00000000   -100.00000000</v>
    <i name="EFIELD">      0.00000000</i>
   </separator>
  </separator>
  <separator name="grids" >
   <i type="int" name="NGX">    48</i>
   <i type="int" name="NGY">    48</i>
   <i type="int" name="NGZ">    48</i>
   <i type="int" name="NGXF">    96</i>
   <i type="int" name="NGYF">    96</i>
   <i type="int" name="NGZF">    96</i>
   <i type="logical" name="ADDGRID"> F  </i>
  </separator>
  <separator name="ionic" >
   <i type="int" name="NSW">     0</i>
   <i type="int" name="IBRION">    -1</i>
   <i type="int" name="MDALGO">     0</i>
   <i type="int" name="ISIF">     0</i>
   <i name="PSTRESS">      0.00000000</i>
   <i name="EDIFFG">      0.00010000</i>
   <i type="int" name="NFREE">     0</i>
   <i name="POTIM">      0.50000000</i>
   <i name="SMASS">     -3.00000000</i>
   <i name="SCALEE">      1.00000000</i>
  </separator>
  <separator name="ionic md" >
   <i name="TEBEG">      0.00010000</i>
   <i name="TEEND">      0.00010000</i>
   <i type="int" name="NBLOCK">     1</i>
   <i type="int" name="KBLOCK">     1</i>
   <i type="int" name="NPACO">   256</i>
   <i name="APACO">     10.00000000</i>
  </separator>
  <separator name="symmetry" >
   <i type="int" name="ISYM">     3</i>
   <i name="SYMPREC">      0.00001000</i>
  </separator>
  <separator name="dos" >
   <i type="int" name="LORBIT">    11</i>
   <v name="RWIGS">     -1.00000000     -1.00000000</v>
   <i type="int" name="NEDOS">   301</i>
   <i name="EMIN">     10.00000000</i>
   <i name="EMAX">    -10.00000000</i>
   <i name="EFERMI">      0.00000000</i>
  </separator>
  <separator name="writing" >
   <i type="int" name="NWRITE">     2</i>
   <i type="logical" name="LWAVE"> F  </i>
   <i type="logical" name="LDOWNSAMPLE"> F  </i>
   <i type="logical" name="LCHARG"> T  </i>
   <i type="logical" name="LPARD"> F  </i>
   <i type="logical" name="LVTOT"> T  </i>
   <i type="logical" name="LVHAR"> F  </i>
   <i type="logical" name="LELF"> F  </i>
   <i type="logical" name="LOPTICS"> F  </i>
   <v name="STM">      0.00000000      0.00000000      0.00000000      0.00000000      0.00000000      0.00000000      0.00000000</v>
  </separator>
  <separator name="performance" >
   <i type="int" name="NPAR">    12</i>
   <i type="int" name="NSIM">     4</i>
   <i type="int" name="NBLK">    -1</i>
   <i type="logical" name="LPLANE"> T  </i>
   <i type="logical" name="LSCALAPACK"> T  </i>
   <i type="logical" name="LSCAAWARE"> F  </i>
   <i type="logical" name="LSCALU"> F  </i>
   <i type="logical" name="LASYNC"> F  </i>
   <i type="logical" name="LORBITALREAL"> F  </i>
  </separator>
  <separator name="miscellaneous" >
   <i type="int" name="IDIOT">     3</i>
   <i type="int" name="PHON_NSTRUCT">    -1</i>
   <i type="logical" name="LMUSIC"> F  </i>
   <v name="POMASS">     69.72300000     74.92200000</v>
   <v name="DARWINR">      0.00000000      0.00000000</v>
   <v name="DARWINV">      1.00000000      1.00000000</v>
   <i type="logical" name="LCORR"> T  </i>
  </separator>
  <i type="logical" name="GGA_COMPAT"> T  </i>
  <i type="logical" name="LBERRY"> F  </i>
  <i type="int" name="ICORELEVEL">     0</i>
  <i type="logical" name="LDAU"> F  </i>
  <i type="int" name="I_CONSTRAINED_M">     0</i>
  <separator name="electronic exchange-correlation" >
   <i type="string" name="GGA">PE</i>
   <i type="int" name="VOSKOWN">     0</i>
   <i type="logical" name="LHFCALC"> T  </i>
   <i type="string" name="PRECFOCK">fast</i>
   <i type="logical" name="LSYMGRAD"> F  </i>
   <i type="logical" name="LHFONE"> F  </i>
   <i type="logical" name="LRHFCALC"> F  </i>
   <i type="logical" name="LTHOMAS"> F  </i>
   <i type="logical" name="LMODELHF"> F  </i>
   <i type="logical" name="LFOCKACE"> T  </i>
   <i name="ENCUT4O">     -1.00000000</i>
   <i type="int" name="EXXOEP">     0</i>
   <i type="int" name="FOURORBIT">     0</i>
   <i name="AEXX">      0.25000000</i>
   <i name="HFALPHA">     -1.00000000</i>
   <i name="MCALPHA">      0.00000000</i>
   <i name="ALDAX">      0.75000000</i>
   <i name="AGGAX">      0.75000000</i>
   <i name="ALDAC">      1.00000000</i>
   <i name="AGGAC">      1.00000000</i>
   <i type="int" name="NKREDX">     1</i>
   <i type="int" name="NKREDY">     1</i>
   <i type="int" name="NKREDZ">     1</i>
   <i type="logical" name="SHIFTRED"> F  </i>
   <i type="logical" name="ODDONLY"> F  </i>
   <i type="logical" name="EVENONLY"> F  </i>
   <i type="int" name="LMAXFOCK">     4</i>
   <i type="int" name="NMAXFOCKAE">     1</i>
   <i type="logical" name="LFOCKAEDFT"> F  </i>
   <i name="HFSCREEN">      0.20000000</i>
   <i name="HFSCREENC">      0.20000000</i>
   <i type="int" name="NBANDSGWLOW">     1</i>
  </separator>
  <separator name="vdW DFT" >
   <i type="logical" name="LUSE_VDW"> F  </i>
   <i type="int" name="IVDW_NL">     1</i>
   <i type="logical" name="LSPIN_VDW"> F  </i>
   <i name="Zab_VDW">     -0.84910000</i>
   <i name="PARAM1">      0.12340000</i>
   <i name="PARAM2">      1.00000000</i>
   <i name="PARAM3">      0.00000000</i>
  </separator>
  <separator name="model GW" >
   <i type="int" name="MODEL_GW">     0</i>
   <i name="MODEL_EPS0">     13.61698053</i>
   <i name="MODEL_ALPHA">      1.00000000</i>
  </separator>
  <separator name="linear response parameters" >
   <i type="logical" name="LEPSILON"> F  </i>
   <i type="logical" name="LRPA"> F  </i>
   <i type="logical" name="LNABLA"> F  </i>
   <i type="logical" name="LVEL"> F  </i>
   <i name="CSHIFT">      0.10000000</i>
   <i name="OMEGAMAX">     -1.00000000</i>
   <i name="DEG_THRESHOLD">      0.00200000</i>
   <i name="RTIME">     -0.10000000</i>
   <i name="WPLASMAI">      0.00000000</i>
   <v name="DFIELD">      0.00000000      0.00000000      0.00000000</v>
   <v name="WPLASMA">      0.00000000      0.00000000      0.00000000      0.00000000      0.00000000      0.00000000      0.00000000      0.00000000      0.00000000</v>
  </separator>
  <separator name="orbital magnetization" >
   <i type="logical" name="NUCIND"> F  </i>
   <v name="MAGPOS">      0.00000000      0.00000000      0.00000000</v>
   <i type="logical" name="LNICSALL"> T  </i>
   <i type="logical" name="ORBITALMAG"> F  </i>
   <i type="logical" name="LMAGBLOCH"> F  </i>
   <i type="logical" name="LCHIMAG"> F  </i>
   <i type="logical" name="LGAUGE"> T  </i>
   <i type="int" name="MAGATOM">     0</i>
   <v name="MAGDIPOL">      0.00000000      0.00000000      0.00000000</v>
   <v name="AVECCONST">      0.00000000      0.00000000      0.00000000</v>
  </separator>
  <separator name="response functions" >
   <i type="logical" name="LALL_IN_ONE"> F  </i>
   <i type="int" name="IALL_IN_ONE">    -1</i>
   <i type="int" name="NBANDS_WAVE">    -1</i>
   <i type="logical" name="LFINITE_TEMPERATURE"> F  </i>
   <i type="logical" name="LADDER"> F  </i>
   <i type="logical" name="LRPAFORCE"> F  </i>
   <i type="logical" name="LFXC"> F  </i>
   <i type="logical" name="LHARTREE"> T  </i>
   <i type="int" name="IBSE">     0</i>
   <v type="int" name="KPOINT">    -1     0     0     0</v>
   <i type="logical" name="LTCTC"> F  </i>
   <i type="logical" name="LTCTE"> F  </i>
   <i type="logical" name="LTETE"> F  </i>
   <i type="logical" name="LTRIPLET"> F  </i>
   <i type="logical" name="LFXCEPS"> F  </i>
   <i type="logical" name="LFXHEG"> F  </i>
   <i type="int" name="NATURALO">     2</i>
   <i type="logical" name="LHOLEGF"> F  </i>
   <i type="logical" name="L2ORDER"> F  </i>
   <i type="logical" name="LDMP1"> F  </i>
   <i type="logical" name="LMP2LT"> F  </i>
   <i type="logical" name="LSMP2LT"> F  </i>
   <i type="logical" name="LGWLF"> F  </i>
   <i name="ENCUTGW">     -1.60000002</i>
   <i name="ENCUTGWSOFT">     -1.60000002</i>
   <i name="ENCUTLF">     -1.00000000</i>
   <i type="logical" name="LESF_SPLINES"> F  </i>
   <i type="int" name="LMAXMP2">    -1</i>
   <i name="SCISSOR">      0.00000000</i>
   <i type="int" name="NOMEGA">     0</i>
   <i type="int" name="NOMEGAR">     0</i>
   <i type="int" name="NBANDSGW">    -1</i>
   <i type="int" name="NBANDSO">    -1</i>
   <i type="int" name="NBANDSV">    -1</i>
   <i type="int" name="NELMGW">     1</i>
   <i type="int" name="NELMHF">     1</i>
   <i type="int" name="DIM">     3</i>
   <i type="int" name="IESPILON">     4</i>
   <i type="int" name="ANTIRES">     0</i>
   <i name="OMEGAMAX">    -30.00000000</i>
   <i name="OMEGAMIN">    -30.00000000</i>
   <i name="OMEGATL">   -200.00000000</i>
   <i type="int" name="OMEGAGRID">     0</i>
   <i name="CSHIFT">     -0.10000000</i>
   <i type="logical" name="LSELFENERGY"> F  </i>
   <i type="logical" name="LSPECTRAL"> F  </i>
   <i type="logical" name="LSPECTRALGW"> F  </i>
   <i type="logical" name="LSINGLES"> F  </i>
   <i type="logical" name="LFERMIGW"> F  </i>
   <i type="logical" name="ODDONLYGW"> F  </i>
   <i type="logical" name="EVENONLYGW"> F  </i>
   <i type="int" name="NKREDLFX">     1</i>
   <i type="int" name="NKREDLFY">     1</i>
   <i type="int" name="NKREDLFZ">     1</i>
   <i type="int" name="MAXMEM">  2800</i>
   <i type="int" name="TELESCOPE">     0</i>
   <i type="int" name="NTAUPAR">    -1</i>
   <i type="int" name="NOMEGAPAR">    -1</i>
   <i name="DAMP_NEWTON">      0.80000001</i>
   <i name="LAMBDA">      1.00000000</i>
  </separator>
  <separator name="External order field" >
   <i name="OFIELD_KAPPA">      0.00000000</i>
   <v name="OFIELD_K">      0.00000000      0.00000000      0.00000000</v>
   <i name="OFIELD_Q6_NEAR">      0.00000000</i>
   <i name="OFIELD_Q6_FAR">      0.00000000</i>
   <i name="OFIELD_A">      0.00000000</i>
  </separator>
  <separator name="optional k-points parameters" >
   <i type="int" name="KPOINTS_OPT_MODE">     1</i>
   <i type="logical" name="LKPOINTS_OPT"> F  </i>
  </separator>
 </parameters>
 <atominfo>
  <atoms>       8 </atoms>
  <types>       2 </types>
  <array name="atoms" >
   <dimension dim="1">ion</dimension>
   <field type="string">element</field>
   <field type="int">atomtype</field>
   <set>
    <rc><c>Ga</c><c>   1</c></rc>
    <rc><c>Ga</c><c>   1</c></rc>
    <rc><c>Ga</c><c>   1</c></rc>
    <rc><c>Ga</c><c>   1</c></rc>
    <rc><c>As</c><c>   2</c></rc>
    <rc><c>As</c><c>   2</c></rc>
    <rc><c>As</c><c>   2</c></rc>
    <rc><c>As</c><c>   2</c></rc>
   </set>
  </array>
  <array name="atomtypes" >
   <dimension dim="1">type</dimension>
   <field type="int">atomspertype</field>
   <field type="string">element</field>
   <field>mass</field>
   <field>valence</field>
   <field type="string">pseudopotential</field>
   <set>
    <rc><c>   4</c><c>Ga</c><c>     69.72300000</c><c>     13.00000000</c><c>  PAW_PBE Ga_d 06Jul2010                </c></rc>
    <rc><c>   4</c><c>As</c><c>     74.92200000</c><c>      5.00000000</c><c>  PAW_PBE As 22Sep2009                  </c></rc>
   </set>
  </array>
 </atominfo>
 <structure name="initialpos" >
  <crystal>
   <varray name="basis" >
    <v>       5.66247787       0.00000000       0.00000000 </v>
    <v>      -0.00000000       5.66247787       0.00000000 </v>
    <v>       0.00000000       0.00000000       5.66247787 </v>
   </varray>
   <i name="volume">    181.55974043 </i>
   <varray name="rec_basis" >
    <v>       0.17660113       0.00000000       0.00000000 </v>
    <v>       0.00000000       0.17660113       0.00000000 </v>
    <v>      -0.00000000      -0.00000000       0.17660113 </v>
   </varray>
  </crystal>
  <varray name="positions" >
   <v>       0.00000000       0.00000000       0.00000000 </v>
   <v>       0.50000000       0.50000000       0.00000000 </v>
   <v>       0.50000000       0.00000000       0.50000000 </v>
   <v>       0.00000000       0.50000000       0.50000000 </v>
   <v>       0.25000000       0.25000000       0.25000000 </v>
   <v>       0.25000000       0.75000000       0.75000000 </v>
   <v>       0.75000000       0.75000000       0.25000000 </v>
   <v>       0.75000000       0.25000000       0.75000000 </v>
  </varray>
 </structure>
 <calculation>
  <scstep>
   <time name="dav">    0.28    1.44</time>
   <time name="total">    0.76    1.93</time>
   <energy>
    <i name="alphaZ">    240.03196352 </i>
    <i name="ewald">  -5054.07144589 </i>
    <i name="hartreedc">  -2907.65291757 </i>
    <i name="XCdc">    129.37655115 </i>
    <i name="pawpsdc">   7000.88056845 </i>
    <i name="pawaedc"> -11966.80977022 </i>
    <i name="eentropy">     -0.00892538 </i>
    <i name="bandstr">      3.12493514 </i>
    <i name="atom">   9262.88096869 </i>
    <i name="e_fr_energy">  -3292.24807212 </i>
    <i name="e_wo_entrp">  -3292.23914674 </i>
    <i name="e_0_energy">  -3292.24360943 </i>
   </energy>
  </scstep>
  <scstep>
   <time name="dav">    0.09    0.10</time>
   <time name="total">    0.09    0.10</time>
   <energy>
    <i name="e_fr_energy">  -3886.56480119 </i>
    <i name="e_wo_entrp">  -3886.48853467 </i>
    <i name="e_0_energy">  -3886.52666793 </i>
   </energy>
  </scstep>
  <scstep>
   <time name="dav">    0.09    0.12</time>
   <time name="total">    0.09    0.12</time>
   <energy>
    <i name="e_fr_energy">  -3966.89988501 </i>
    <i name="e_wo_entrp">  -3966.85250767 </i>
    <i name="e_0_energy">  -3966.87619634 </i>
   </energy>
  </scstep>
  <scstep>
   <time name="dav">    0.08    0.10</time>
   <time name="total">    0.08    0.10</time>
   <energy>
    <i name="e_fr_energy">  -3970.61882166 </i>
    <i name="e_wo_entrp">  -3970.57816435 </i>
    <i name="e_0_energy">  -3970.59849301 </i>
   </energy>
  </scstep>
  <scstep>
   <time name="dav">    0.65    1.00</time>
   <time name="total">    1.86    2.24</time>
   <energy>
    <i name="e_fr_energy">    -37.49448579 </i>
    <i name="e_wo_entrp">    -37.49448579 </i>
    <i name="e_0_energy">    -37.49448579 </i>
   </energy>
  </scstep>
  <scstep>
   <time name="dav">    0.60    0.60</time>
   <time name="total">    1.81    1.83</time>
   <energy>
    <i name="e_fr_energy">    -36.38791251 </i>
    <i name="e_wo_entrp">    -36.38791251 </i>
    <i name="e_0_energy">    -36.38791251 </i>
   </energy>
  </scstep>
  <scstep>
   <time name="dav">    0.60    0.60</time>
   <time name="total">    1.80    1.83</time>
   <energy>
    <i name="e_fr_energy">    -36.26727042 </i>
    <i name="e_wo_entrp">    -36.26727042 </i>
    <i name="e_0_energy">    -36.26727042 </i>
   </energy>
  </scstep>
  <scstep>
   <time name="dav">    0.54    0.54</time>
   <time name="total">    1.76    1.77</time>
   <energy>
    <i name="e_fr_energy">    -36.25400024 </i>
    <i name="e_wo_entrp">    -36.25400024 </i>
    <i name="e_0_energy">    -36.25400024 </i>
   </energy>
  </scstep>
  <scstep>
   <time name="dav">    0.55    0.55</time>
   <time name="total">    1.75    1.77</time>
   <energy>
    <i name="e_fr_energy">    -36.24365576 </i>
    <i name="e_wo_entrp">    -36.24365576 </i>
    <i name="e_0_energy">    -36.24365576 </i>
   </energy>
  </scstep>
  <scstep>
   <time name="dav">    0.54    0.54</time>
   <time name="total">    1.74    1.76</time>
   <energy>
    <i name="e_fr_energy">    -36.24156464 </i>
    <i name="e_wo_entrp">    -36.24156464 </i>
    <i name="e_0_energy">    -36.24156464 </i>
   </energy>
  </scstep>
  <scstep>
   <time name="dav">    0.54    0.54</time>
   <time name="total">    1.74    1.76</time>
   <energy>
    <i name="e_fr_energy">    -36.24229209 </i>
    <i name="e_wo_entrp">    -36.24229208 </i>
    <i name="e_0_energy">    -36.24229208 </i>
   </energy>
  </scstep>
  <scstep>
   <time name="dav">    0.54    0.54</time>
   <time name="total">    1.74    1.76</time>
   <energy>
    <i name="e_fr_energy">    -36.24320955 </i>
    <i name="e_wo_entrp">    -36.24320954 </i>
    <i name="e_0_energy">    -36.24320954 </i>
   </energy>
  </scstep>
  <scstep>
   <time name="dav">    0.54    0.54</time>
   <time name="total">    1.73    1.76</time>
   <energy>
    <i name="e_fr_energy">    -36.24382451 </i>
    <i name="e_wo_entrp">    -36.24382451 </i>
    <i name="e_0_energy">    -36.24382451 </i>
   </energy>
  </scstep>
  <scstep>
   <time name="dav">    0.54    0.54</time>
   <time name="total">    1.74    1.76</time>
   <energy>
    <i name="e_fr_energy">    -36.24418319 </i>
    <i name="e_wo_entrp">    -36.24418318 </i>
    <i name="e_0_energy">    -36.24418318 </i>
   </energy>
  </scstep>
  <scstep>
   <time name="dav">    0.53    0.54</time>
   <time name="total">    1.74    1.76</time>
   <energy>
    <i name="e_fr_energy">    -36.24438154 </i>
    <i name="e_wo_entrp">    -36.24438153 </i>
    <i name="e_0_energy">    -36.24438154 </i>
   </energy>
  </scstep>
  <scstep>
   <time name="dav">    0.53    0.53</time>
   <time name="total">    1.73    1.75</time>
   <energy>
    <i name="e_fr_energy">    -36.24448640 </i>
    <i name="e_wo_entrp">    -36.24448640 </i>
    <i name="e_0_energy">    -36.24448640 </i>
   </energy>
  </scstep>
  <scstep>
   <time name="dav">    0.53    0.53</time>
   <time name="total">    1.72    1.75</time>
   <energy>
    <i name="e_fr_energy">    -36.24454094 </i>
    <i name="e_wo_entrp">    -36.24454094 </i>
    <i name="e_0_energy">    -36.24454094 </i>
   </energy>
  </scstep>
  <scstep>
   <time name="dav">    0.64    0.64</time>
   <time name="total">    1.83    1.86</time>
   <energy>
    <i name="e_fr_energy">    -36.24456834 </i>
    <i name="e_wo_entrp">    -36.24456834 </i>
    <i name="e_0_energy">    -36.24456834 </i>
   </energy>
  </scstep>
  <scstep>
   <time name="dav">    0.57    0.57</time>
   <time name="total">    1.77    1.79</time>
   <energy>
    <i name="e_fr_energy">    -36.24458222 </i>
    <i name="e_wo_entrp">    -36.24458222 </i>
    <i name="e_0_energy">    -36.24458222 </i>
   </energy>
  </scstep>
  <scstep>
   <time name="dav">    0.57    0.57</time>
   <time name="total">    1.76    1.79</time>
   <energy>
    <i name="alphaZ">    240.03196352 </i>
    <i name="ewald">  -5054.07144589 </i>
    <i name="hartreedc">  -2901.70870095 </i>
    <i name="XCdc">     94.99738902 </i>
    <i name="pawpsdc">   8485.46323812 </i>
    <i name="pawaedc">  -9708.47123922 </i>
    <i name="eentropy">     -0.00000000 </i>
    <i name="bandstr">   -622.42309186 </i>
    <i name="atom">   9262.88096869 </i>
    <i name="e_fr_energy">    -36.24458913 </i>
    <i name="e_wo_entrp">    -36.24458913 </i>
    <i name="e_0_energy">    -36.24458913 </i>
   </energy>
  </scstep>
  <structure>
   <crystal>
    <varray name="basis" >
     <v>       5.66247787       0.00000000       0.00000000 </v>
     <v>      -0.00000000       5.66247787       0.00000000 </v>
     <v>       0.00000000       0.00000000       5.66247787 </v>
    </varray>
    <i name="volume">    181.55974043 </i>
    <varray name="rec_basis" >
     <v>       0.17660113       0.00000000       0.00000000 </v>
     <v>       0.00000000       0.17660113       0.00000000 </v>
     <v>      -0.00000000      -0.00000000       0.17660113 </v>
    </varray>
   </crystal>
   <varray name="positions" >
    <v>       0.00000000       0.00000000       0.00000000 </v>
    <v>       0.50000000       0.50000000       0.00000000 </v>
    <v>       0.50000000       0.00000000       0.50000000 </v>
    <v>       0.00000000       0.50000000       0.50000000 </v>
    <v>       0.25000000       0.25000000       0.25000000 </v>
    <v>       0.25000000       0.75000000       0.75000000 </v>
    <v>       0.75000000       0.75000000       0.25000000 </v>
    <v>       0.75000000       0.25000000       0.75000000 </v>
   </varray>
  </structure>
  <varray name="forces" >
   <v>       0.00000000      -0.00000000       0.00000000 </v>
   <v>       0.00000000      -0.00000000      -0.00000000 </v>
   <v>      -0.00000000       0.00000000       0.00000000 </v>
   <v>       0.00000000       0.00000000      -0.00000000 </v>
   <v>       0.00000000      -0.00000000       0.00000000 </v>
   <v>      -0.00000000       0.00000000       0.00000000 </v>
   <v>      -0.00000000      -0.00000000      -0.00000000 </v>
   <v>       0.00000000      -0.00000000       0.00000000 </v>
  </varray>
  <energy>
   <i name="e_fr_energy">    -36.24458913 </i>
   <i name="e_wo_entrp">    -36.24458913 </i>
   <i name="e_0_energy">    -36.24458913 </i>
  </energy>
  <time name="totalsc">   33.58   35.58</time>
  <eigenvalues>
   <array>
    <dimension dim="1">band</dimension>
    <dimension dim="2">kpoint</dimension>
    <dimension dim="3">spin</dimension>
    <field>eigene</field>
    <field>occ</field>
    <set>
     <set comment="spin 1">
      <set comment="kpoint 1">
       <r>  -14.0230    1.0000 </r>
       <r>  -14.0230    1.0000 </r>
       <r>  -14.0230    1.0000 </r>
       <r>  -13.9467    1.0000 </r>
       <r>  -13.9467    1.0000 </r>
       <r>  -13.9467    1.0000 </r>
       <r>  -13.9035    1.0000 </r>
       <r>  -13.9035    1.0000 </r>
       <r>  -13.9035    1.0000 </r>
       <r>  -13.9034    1.0000 </r>
       <r>  -13.9034    1.0000 </r>
       <r>  -13.9034    1.0000 </r>
       <r>  -13.8869    1.0000 </r>
       <r>  -13.8869    1.0000 </r>
       <r>  -13.8869    1.0000 </r>
       <r>  -13.8659    1.0000 </r>
       <r>  -13.8659    1.0000 </r>
       <r>  -13.8552    1.0000 </r>
       <r>  -13.8551    1.0000 </r>
       <r>  -13.8551    1.0000 </r>
       <r>  -10.3184    1.0000 </r>
       <r>   -7.5785    1.0000 </r>
       <r>   -7.5785    1.0000 </r>
       <r>   -7.5785    1.0000 </r>
       <r>   -3.8423    1.0000 </r>
       <r>   -3.8423    1.0000 </r>
       <r>   -3.8422    1.0000 </r>
       <r>    0.6026    1.0000 </r>
       <r>    0.6026    1.0000 </r>
       <r>    0.6026    1.0000 </r>
       <r>    0.6026    1.0000 </r>
       <r>    0.6026    1.0000 </r>
       <r>    0.6026    1.0000 </r>
       <r>    3.4532    1.0000 </r>
       <r>    3.4532    1.0000 </r>
       <r>    3.4532    1.0000 </r>
       <r>    5.1378    0.0000 </r>
       <r>    5.7353    0.0000 </r>
       <r>    5.7353    0.0000 </r>
       <r>    5.7353    0.0000 </r>
       <r>    5.9799    0.0000 </r>
       <r>    5.9799    0.0000 </r>
       <r>    5.9799    0.0000 </r>
       <r>    8.1293    0.0000 </r>
       <r>    8.1293    0.0000 </r>
       <r>    8.1293    0.0000 </r>
       <r>   12.1688    0.0000 </r>
       <r>   14.6288    0.0000 </r>
      </set>
      <set comment="kpoint 2">
       <r>  -13.9872    1.0000 </r>
       <r>  -13.9872    1.0000 </r>
       <r>  -13.9872    1.0000 </r>
       <r>  -13.9872    1.0000 </r>
       <r>  -13.9189    1.0000 </r>
       <r>  -13.9189    1.0000 </r>
       <r>  -13.9189    1.0000 </r>
       <r>  -13.9189    1.0000 </r>
       <r>  -13.9183    1.0000 </r>
       <r>  -13.9183    1.0000 </r>
       <r>  -13.9183    1.0000 </r>
       <r>  -13.9182    1.0000 </r>
       <r>  -13.8612    1.0000 </r>
       <r>  -13.8612    1.0000 </r>
       <r>  -13.8612    1.0000 </r>
       <r>  -13.8611    1.0000 </r>
       <r>  -13.8587    1.0000 </r>
       <r>  -13.8587    1.0000 </r>
       <r>  -13.8587    1.0000 </r>
       <r>  -13.8586    1.0000 </r>
       <r>   -8.5380    1.0000 </r>
       <r>   -8.5380    1.0000 </r>
       <r>   -8.5380    1.0000 </r>
       <r>   -8.5380    1.0000 </r>
       <r>   -2.4821    1.0000 </r>
       <r>   -2.4821    1.0000 </r>
       <r>   -2.4821    1.0000 </r>
       <r>   -2.4821    1.0000 </r>
       <r>   -0.0269    1.0000 </r>
       <r>   -0.0269    1.0000 </r>
       <r>   -0.0269    1.0000 </r>
       <r>   -0.0269    1.0000 </r>
       <r>    2.2086    1.0000 </r>
       <r>    2.2086    1.0000 </r>
       <r>    2.2086    1.0000 </r>
       <r>    2.2086    1.0000 </r>
       <r>    7.1359    0.0000 </r>
       <r>    7.1359    0.0000 </r>
       <r>    7.1359    0.0000 </r>
       <r>    7.1359    0.0000 </r>
       <r>   10.1256    0.0000 </r>
       <r>   10.1257    0.0000 </r>
       <r>   10.1262    0.0000 </r>
       <r>   10.1345    0.0000 </r>
       <r>   10.1564    0.0000 </r>
       <r>   10.1581    0.0000 </r>
       <r>   10.1605    0.0000 </r>
       <r>   10.2801    0.0000 </r>
      </set>
     </set>
     <set comment="spin 2">
      <set comment="kpoint 1">
       <r>  -14.0230    1.0000 </r>
       <r>  -14.0230    1.0000 </r>
       <r>  -14.0230    1.0000 </r>
       <r>  -13.9467    1.0000 </r>
       <r>  -13.9467    1.0000 </r>
       <r>  -13.9467    1.0000 </r>
       <r>  -13.9035    1.0000 </r>
       <r>  -13.9035    1.0000 </r>
       <r>  -13.9035    1.0000 </r>
       <r>  -13.9034    1.0000 </r>
       <r>  -13.9034    1.0000 </r>
       <r>  -13.9034    1.0000 </r>
       <r>  -13.8869    1.0000 </r>
       <r>  -13.8869    1.0000 </r>
       <r>  -13.8869    1.0000 </r>
       <r>  -13.8659    1.0000 </r>
       <r>  -13.8659    1.0000 </r>
       <r>  -13.8552    1.0000 </r>
       <r>  -13.8551    1.0000 </r>
       <r>  -13.8551    1.0000 </r>
       <r>  -10.3184    1.0000 </r>
       <r>   -7.5785    1.0000 </r>
       <r>   -7.5785    1.0000 </r>
       <r>   -7.5785    1.0000 </r>
       <r>   -3.8423    1.0000 </r>
       <r>   -3.8423    1.0000 </r>
       <r>   -3.8422    1.0000 </r>
       <r>    0.6026    1.0000 </r>
       <r>    0.6026    1.0000 </r>
       <r>    0.6026    1.0000 </r>
       <r>    0.6026    1.0000 </r>
       <r>    0.6026    1.0000 </r>
       <r>    0.6026    1.0000 </r>
       <r>    3.4532    1.0000 </r>
       <r>    3.4532    1.0000 </r>
       <r>    3.4532    1.0000 </r>
       <r>    5.1378    0.0000 </r>
       <r>    5.7353    0.0000 </r>
       <r>    5.7353    0.0000 </r>
       <r>    5.7353    0.0000 </r>
       <r>    5.9799    0.0000 </r>
       <r>    5.9799    0.0000 </r>
       <r>    5.9799    0.0000 </r>
       <r>    8.1293    0.0000 </r>
       <r>    8.1293    0.0000 </r>
       <r>    8.1293    0.0000 </r>
       <r>   12.1688    0.0000 </r>
       <r>   14.6288    0.0000 </r>
      </set>
      <set comment="kpoint 2">
       <r>  -13.9872    1.0000 </r>
       <r>  -13.9872    1.0000 </r>
       <r>  -13.9872    1.0000 </r>
       <r>  -13.9872    1.0000 </r>
       <r>  -13.9189    1.0000 </r>
       <r>  -13.9189    1.0000 </r>
       <r>  -13.9189    1.0000 </r>
       <r>  -13.9189    1.0000 </r>
       <r>  -13.9183    1.0000 </r>
       <r>  -13.9183    1.0000 </r>
       <r>  -13.9183    1.0000 </r>
       <r>  -13.9182    1.0000 </r>
       <r>  -13.8612    1.0000 </r>
       <r>  -13.8612    1.0000 </r>
       <r>  -13.8612    1.0000 </r>
       <r>  -13.8611    1.0000 </r>
       <r>  -13.8587    1.0000 </r>
       <r>  -13.8587    1.0000 </r>
       <r>  -13.8587    1.0000 </r>
       <r>  -13.8586    1.0000 </r>
       <r>   -8.5380    1.0000 </r>
       <r>   -8.5380    1.0000 </r>
       <r>   -8.5380    1.0000 </r>
       <r>   -8.5380    1.0000 </r>
       <r>   -2.4821    1.0000 </r>
       <r>   -2.4821    1.0000 </r>
       <r>   -2.4821    1.0000 </r>
       <r>   -2.4821    1.0000 </r>
       <r>   -0.0269    1.0000 </r>
       <r>   -0.0269    1.0000 </r>
       <r>   -0.0269    1.0000 </r>
       <r>   -0.0269    1.0000 </r>
       <r>    2.2086    1.0000 </r>
       <r>    2.2086    1.0000 </r>
       <r>    2.2086    1.0000 </r>
       <r>    2.2086    1.0000 </r>
       <r>    7.1359    0.0000 </r>
       <r>    7.1359    0.0000 </r>
       <r>    7.1359    0.0000 </r>
       <r>    7.1359    0.0000 </r>
       <r>   10.1256    0.0000 </r>
       <r>   10.1257    0.0000 </r>
       <r>   10.1265    0.0000 </r>
       <r>   10.1340    0.0000 </r>
       <r>   10.1570    0.0000 </r>
       <r>   10.1576    0.0000 </r>
       <r>   10.1609    0.0000 </r>
       <r>   10.1822    0.0000 </r>
      </set>
     </set>
    </set>
   </array>
  </eigenvalues>
  <separator name="orbital magnetization" >
   <v name="MAGDIPOLOUT">      0.00000000      0.00000000      0.00000000</v>
  </separator>
  <dos>
   <i name="efermi">      4.30821529 </i>
   <total>
    <array>
     <dimension dim="1">gridpoints</dimension>
     <dimension dim="2">spin</dimension>
     <field>energy</field>
     <field>total</field>
     <field>integrated</field>
     <set>
      <set comment="spin 1">
       <r>   -16.0230     0.0000     0.0000 </r>
       <r>   -15.9142     0.0000     0.0000 </r>
       <r>   -15.8053     0.0000     0.0000 </r>
       <r>   -15.6965     0.0000     0.0000 </r>
       <r>   -15.5876     0.0000     0.0000 </r>
       <r>   -15.4788     0.0000     0.0000 </r>
       <r>   -15.3700     0.0000     0.0000 </r>
       <r>   -15.2611     0.0000     0.0000 </r>
       <r>   -15.1523     0.0000     0.0000 </r>
       <r>   -15.0435     0.0000     0.0000 </r>
       <r>   -14.9346     0.0000     0.0000 </r>
       <r>   -14.8258     0.0000     0.0000 </r>
       <r>   -14.7169     0.0000     0.0000 </r>
       <r>   -14.6081     0.0004     0.0000 </r>
       <r>   -14.4993     0.0095     0.0011 </r>
       <r>   -14.3904     0.1377     0.0161 </r>
       <r>   -14.2816     1.1978     0.1464 </r>
       <r>   -14.1727     6.3647     0.8392 </r>
       <r>   -14.0639    20.8424     3.1076 </r>
       <r>   -13.9551    42.0609     7.6855 </r>
       <r>   -13.8462    51.9103    13.3354 </r>
       <r>   -13.7374    38.7186    17.5495 </r>
       <r>   -13.6285    17.2328    19.4251 </r>
       <r>   -13.5197     4.5237    19.9175 </r>
       <r>   -13.4109     0.6934    19.9930 </r>
       <r>   -13.3020     0.0615    19.9996 </r>
       <r>   -13.1932     0.0031    20.0000 </r>
       <r>   -13.0843     0.0001    20.0000 </r>
       <r>   -12.9755     0.0000    20.0000 </r>
       <r>   -12.8667     0.0000    20.0000 </r>
       <r>   -12.7578     0.0000    20.0000 </r>
       <r>   -12.6490     0.0000    20.0000 </r>
       <r>   -12.5401     0.0000    20.0000 </r>
       <r>   -12.4313     0.0000    20.0000 </r>
       <r>   -12.3225     0.0000    20.0000 </r>
       <r>   -12.2136     0.0000    20.0000 </r>
       <r>   -12.1048     0.0000    20.0000 </r>
       <r>   -11.9960     0.0000    20.0000 </r>
       <r>   -11.8871     0.0000    20.0000 </r>
       <r>   -11.7783     0.0000    20.0000 </r>
       <r>   -11.6694     0.0000    20.0000 </r>
       <r>   -11.5606     0.0000    20.0000 </r>
       <r>   -11.4518     0.0000    20.0000 </r>
       <r>   -11.3429     0.0000    20.0000 </r>
       <r>   -11.2341     0.0000    20.0000 </r>
       <r>   -11.1252     0.0000    20.0000 </r>
       <r>   -11.0164     0.0000    20.0000 </r>
       <r>   -10.9076     0.0001    20.0000 </r>
       <r>   -10.7987     0.0015    20.0002 </r>
       <r>   -10.6899     0.0182    20.0022 </r>
       <r>   -10.5810     0.1255    20.0158 </r>
       <r>   -10.4722     0.4903    20.0692 </r>
       <r>   -10.3634     1.0880    20.1876 </r>
       <r>   -10.2545     1.3735    20.3371 </r>
       <r>   -10.1457     0.9868    20.4445 </r>
       <r>   -10.0368     0.4032    20.4884 </r>
       <r>    -9.9280     0.0936    20.4986 </r>
       <r>    -9.8192     0.0123    20.4999 </r>
       <r>    -9.7103     0.0009    20.5000 </r>
       <r>    -9.6015     0.0000    20.5000 </r>
       <r>    -9.4926     0.0000    20.5000 </r>
       <r>    -9.3838     0.0000    20.5000 </r>
       <r>    -9.2750     0.0000    20.5000 </r>
       <r>    -9.1661     0.0001    20.5000 </r>
       <r>    -9.0573     0.0021    20.5002 </r>
       <r>    -8.9484     0.0318    20.5037 </r>
       <r>    -8.8396     0.2689    20.5330 </r>
       <r>    -8.7308     1.2859    20.6729 </r>
       <r>    -8.6219     3.4922    21.0530 </r>
       <r>    -8.5131     5.3930    21.6400 </r>
       <r>    -8.4043     4.7395    22.1558 </r>
       <r>    -8.2954     2.3698    22.4138 </r>
       <r>    -8.1866     0.6735    22.4871 </r>
       <r>    -8.0777     0.1113    22.4992 </r>
       <r>    -7.9689     0.0468    22.5043 </r>
       <r>    -7.8601     0.2809    22.5348 </r>
       <r>    -7.7512     1.2087    22.6664 </r>
       <r>    -7.6424     2.9592    22.9885 </r>
       <r>    -7.5335     4.1204    23.4369 </r>
       <r>    -7.4247     3.2651    23.7923 </r>
       <r>    -7.3159     1.4718    23.9525 </r>
       <r>    -7.2070     0.3769    23.9935 </r>
       <r>    -7.0982     0.0547    23.9995 </r>
       <r>    -6.9893     0.0045    24.0000 </r>
       <r>    -6.8805     0.0002    24.0000 </r>
       <r>    -6.7717     0.0000    24.0000 </r>
       <r>    -6.6628     0.0000    24.0000 </r>
       <r>    -6.5540     0.0000    24.0000 </r>
       <r>    -6.4451     0.0000    24.0000 </r>
       <r>    -6.3363     0.0000    24.0000 </r>
       <r>    -6.2275     0.0000    24.0000 </r>
       <r>    -6.1186     0.0000    24.0000 </r>
       <r>    -6.0098     0.0000    24.0000 </r>
       <r>    -5.9009     0.0000    24.0000 </r>
       <r>    -5.7921     0.0000    24.0000 </r>
       <r>    -5.6833     0.0000    24.0000 </r>
       <r>    -5.5744     0.0000    24.0000 </r>
       <r>    -5.4656     0.0000    24.0000 </r>
       <r>    -5.3568     0.0000    24.0000 </r>
       <r>    -5.2479     0.0000    24.0000 </r>
       <r>    -5.1391     0.0000    24.0000 </r>
       <r>    -5.0302     0.0000    24.0000 </r>
       <r>    -4.9214     0.0000    24.0000 </r>
       <r>    -4.8126     0.0000    24.0000 </r>
       <r>    -4.7037     0.0000    24.0000 </r>
       <r>    -4.5949     0.0000    24.0000 </r>
       <r>    -4.4860     0.0000    24.0000 </r>
       <r>    -4.3772     0.0010    24.0001 </r>
       <r>    -4.2684     0.0168    24.0019 </r>
       <r>    -4.1595     0.1535    24.0187 </r>
       <r>    -4.0507     0.7970    24.1054 </r>
       <r>    -3.9418     2.3482    24.3610 </r>
       <r>    -3.8330     3.9336    24.7891 </r>
       <r>    -3.7242     3.7496    25.1972 </r>
       <r>    -3.6153     2.0337    25.4186 </r>
       <r>    -3.5065     0.6270    25.4868 </r>
       <r>    -3.3976     0.1097    25.4987 </r>
       <r>    -3.2888     0.0109    25.4999 </r>
       <r>    -3.1800     0.0006    25.5000 </r>
       <r>    -3.0711     0.0003    25.5000 </r>
       <r>    -2.9623     0.0060    25.5007 </r>
       <r>    -2.8534     0.0731    25.5086 </r>
       <r>    -2.7446     0.5031    25.5634 </r>
       <r>    -2.6358     1.9636    25.7771 </r>
       <r>    -2.5269     4.3547    26.2511 </r>
       <r>    -2.4181     5.4937    26.8490 </r>
       <r>    -2.3092     3.9442    27.2783 </r>
       <r>    -2.2004     1.6106    27.4536 </r>
       <r>    -2.0916     0.3735    27.4942 </r>
       <r>    -1.9827     0.0491    27.4996 </r>
       <r>    -1.8739     0.0036    27.5000 </r>
       <r>    -1.7651     0.0002    27.5000 </r>
       <r>    -1.6562     0.0000    27.5000 </r>
       <r>    -1.5474     0.0000    27.5000 </r>
       <r>    -1.4385     0.0000    27.5000 </r>
       <r>    -1.3297     0.0000    27.5000 </r>
       <r>    -1.2209     0.0000    27.5000 </r>
       <r>    -1.1120     0.0000    27.5000 </r>
       <r>    -1.0032     0.0000    27.5000 </r>
       <r>    -0.8943     0.0000    27.5000 </r>
       <r>    -0.7855     0.0000    27.5000 </r>
       <r>    -0.6767     0.0000    27.5000 </r>
       <r>    -0.5678     0.0012    27.5001 </r>
       <r>    -0.4590     0.0195    27.5022 </r>
       <r>    -0.3501     0.1840    27.5223 </r>
       <r>    -0.2413     0.9853    27.6295 </r>
       <r>    -0.1325     2.9945    27.9554 </r>
       <r>    -0.0236     5.1738    28.5185 </r>
       <r>     0.0852     5.0897    29.0725 </r>
       <r>     0.1941     2.8952    29.3876 </r>
       <r>     0.3029     1.3211    29.5314 </r>
       <r>     0.4117     2.1348    29.7637 </r>
       <r>     0.5206     5.3191    30.3427 </r>
       <r>     0.6294     8.1110    31.2255 </r>
       <r>     0.7383     7.0589    31.9938 </r>
       <r>     0.8471     3.4956    32.3742 </r>
       <r>     0.9559     0.9837    32.4813 </r>
       <r>     1.0648     0.1570    32.4984 </r>
       <r>     1.1736     0.0142    32.4999 </r>
       <r>     1.2824     0.0007    32.5000 </r>
       <r>     1.3913     0.0000    32.5000 </r>
       <r>     1.5001     0.0000    32.5000 </r>
       <r>     1.6090     0.0002    32.5000 </r>
       <r>     1.7178     0.0046    32.5005 </r>
       <r>     1.8266     0.0588    32.5069 </r>
       <r>     1.9355     0.4275    32.5534 </r>
       <r>     2.0443     1.7632    32.7454 </r>
       <r>     2.1532     4.1311    33.1950 </r>
       <r>     2.2620     5.5056    33.7942 </r>
       <r>     2.3708     4.1755    34.2487 </r>
       <r>     2.4797     1.8014    34.4447 </r>
       <r>     2.5885     0.4415    34.4928 </r>
       <r>     2.6974     0.0613    34.4995 </r>
       <r>     2.8062     0.0049    34.5000 </r>
       <r>     2.9150     0.0012    34.5001 </r>
       <r>     3.0239     0.0155    34.5018 </r>
       <r>     3.1327     0.1449    34.5176 </r>
       <r>     3.2416     0.7649    34.6008 </r>
       <r>     3.3504     2.2922    34.8503 </r>
       <r>     3.4592     3.9052    35.2753 </r>
       <r>     3.5681     3.7859    35.6874 </r>
       <r>     3.6769     2.0884    35.9147 </r>
       <r>     3.7858     0.6548    35.9860 </r>
       <r>     3.8946     0.1165    35.9986 </r>
       <r>     4.0034     0.0117    35.9999 </r>
       <r>     4.1123     0.0007    36.0000 </r>
       <r>     4.2211     0.0000    36.0000 </r>
       <r>     4.3300     0.0000    36.0000 </r>
       <r>     4.4388     0.0000    36.0000 </r>
       <r>     4.5476     0.0001    36.0000 </r>
       <r>     4.6565     0.0015    36.0002 </r>
       <r>     4.7653     0.0179    36.0021 </r>
       <r>     4.8741     0.1237    36.0156 </r>
       <r>     4.9830     0.4855    36.0684 </r>
       <r>     5.0918     1.0829    36.1863 </r>
       <r>     5.2007     1.3751    36.3359 </r>
       <r>     5.3095     1.0091    36.4458 </r>
       <r>     5.4183     0.5625    36.5070 </r>
       <r>     5.5272     0.9045    36.6055 </r>
       <r>     5.6360     2.4610    36.8733 </r>
       <r>     5.7449     4.4988    37.3630 </r>
       <r>     5.8537     5.6449    37.9773 </r>
       <r>     5.9625     5.6804    38.5956 </r>
       <r>     6.0714     4.6208    39.0985 </r>
       <r>     6.1802     2.5976    39.3812 </r>
       <r>     6.2891     0.8919    39.4783 </r>
       <r>     6.3979     0.1777    39.4977 </r>
       <r>     6.5067     0.0203    39.4999 </r>
       <r>     6.6156     0.0034    39.5002 </r>
       <r>     6.7244     0.0311    39.5036 </r>
       <r>     6.8333     0.2639    39.5323 </r>
       <r>     6.9421     1.2694    39.6705 </r>
       <r>     7.0509     3.4670    40.0479 </r>
       <r>     7.1598     5.3846    40.6339 </r>
       <r>     7.2686     4.7590    41.1519 </r>
       <r>     7.3775     2.3930    41.4123 </r>
       <r>     7.4863     0.6839    41.4868 </r>
       <r>     7.5951     0.1119    41.4990 </r>
       <r>     7.7040     0.0272    41.5019 </r>
       <r>     7.8128     0.1561    41.5189 </r>
       <r>     7.9216     0.8045    41.6065 </r>
       <r>     8.0305     2.3611    41.8634 </r>
       <r>     8.1393     3.9399    42.2923 </r>
       <r>     8.2482     3.7411    42.6994 </r>
       <r>     8.3570     2.0213    42.9194 </r>
       <r>     8.4658     0.6208    42.9870 </r>
       <r>     8.5747     0.1082    42.9988 </r>
       <r>     8.6835     0.0107    42.9999 </r>
       <r>     8.7924     0.0006    43.0000 </r>
       <r>     8.9012     0.0000    43.0000 </r>
       <r>     9.0100     0.0000    43.0000 </r>
       <r>     9.1189     0.0000    43.0000 </r>
       <r>     9.2277     0.0000    43.0000 </r>
       <r>     9.3366     0.0000    43.0000 </r>
       <r>     9.4454     0.0000    43.0000 </r>
       <r>     9.5542     0.0006    43.0001 </r>
       <r>     9.6631     0.0120    43.0014 </r>
       <r>     9.7719     0.1404    43.0166 </r>
       <r>     9.8808     0.9405    43.1190 </r>
       <r>     9.9896     3.6165    43.5126 </r>
       <r>    10.0984     8.0454    44.3883 </r>
       <r>    10.2073    10.4857    45.5295 </r>
       <r>    10.3161     8.1651    46.4182 </r>
       <r>    10.4250     3.9046    46.8432 </r>
       <r>    10.5338     1.1807    46.9717 </r>
       <r>    10.6426     0.2294    46.9967 </r>
       <r>    10.7515     0.0283    46.9998 </r>
       <r>    10.8603     0.0022    47.0000 </r>
       <r>    10.9692     0.0001    47.0000 </r>
       <r>    11.0780     0.0000    47.0000 </r>
       <r>    11.1868     0.0000    47.0000 </r>
       <r>    11.2957     0.0000    47.0000 </r>
       <r>    11.4045     0.0000    47.0000 </r>
       <r>    11.5133     0.0000    47.0000 </r>
       <r>    11.6222     0.0002    47.0000 </r>
       <r>    11.7310     0.0043    47.0005 </r>
       <r>    11.8399     0.0414    47.0050 </r>
       <r>    11.9487     0.2287    47.0299 </r>
       <r>    12.0575     0.7160    47.1078 </r>
       <r>    12.1664     1.2745    47.2465 </r>
       <r>    12.2752     1.2908    47.3870 </r>
       <r>    12.3841     0.7439    47.4680 </r>
       <r>    12.4929     0.2437    47.4945 </r>
       <r>    12.6017     0.0453    47.4994 </r>
       <r>    12.7106     0.0048    47.5000 </r>
       <r>    12.8194     0.0003    47.5000 </r>
       <r>    12.9283     0.0000    47.5000 </r>
       <r>    13.0371     0.0000    47.5000 </r>
       <r>    13.1459     0.0000    47.5000 </r>
       <r>    13.2548     0.0000    47.5000 </r>
       <r>    13.3636     0.0000    47.5000 </r>
       <r>    13.4725     0.0000    47.5000 </r>
       <r>    13.5813     0.0000    47.5000 </r>
       <r>    13.6901     0.0000    47.5000 </r>
       <r>    13.7990     0.0000    47.5000 </r>
       <r>    13.9078     0.0000    47.5000 </r>
       <r>    14.0167     0.0000    47.5000 </r>
       <r>    14.1255     0.0008    47.5001 </r>
       <r>    14.2343     0.0113    47.5013 </r>
       <r>    14.3432     0.0876    47.5109 </r>
       <r>    14.4520     0.3856    47.5528 </r>
       <r>    14.5608     0.9639    47.6577 </r>
       <r>    14.6697     1.3704    47.8069 </r>
       <r>    14.7785     1.1089    47.9276 </r>
       <r>    14.8874     0.5104    47.9831 </r>
       <r>    14.9962     0.1335    47.9977 </r>
       <r>    15.1050     0.0198    47.9998 </r>
       <r>    15.2139     0.0017    48.0000 </r>
       <r>    15.3227     0.0001    48.0000 </r>
       <r>    15.4316     0.0000    48.0000 </r>
       <r>    15.5404     0.0000    48.0000 </r>
       <r>    15.6492     0.0000    48.0000 </r>
       <r>    15.7581     0.0000    48.0000 </r>
       <r>    15.8669     0.0000    48.0000 </r>
       <r>    15.9758     0.0000    48.0000 </r>
       <r>    16.0846     0.0000    48.0000 </r>
       <r>    16.1934     0.0000    48.0000 </r>
       <r>    16.3023     0.0000    48.0000 </r>
       <r>    16.4111     0.0000    48.0000 </r>
       <r>    16.5200     0.0000    48.0000 </r>
       <r>    16.6288     0.0000    48.0000 </r>
      </set>
      <set comment="spin 2">
       <r>   -16.0230     0.0000     0.0000 </r>
       <r>   -15.9142     0.0000     0.0000 </r>
       <r>   -15.8053     0.0000     0.0000 </r>
       <r>   -15.6965     0.0000     0.0000 </r>
       <r>   -15.5876     0.0000     0.0000 </r>
       <r>   -15.4788     0.0000     0.0000 </r>
       <r>   -15.3700     0.0000     0.0000 </r>
       <r>   -15.2611     0.0000     0.0000 </r>
       <r>   -15.1523     0.0000     0.0000 </r>
       <r>   -15.0435     0.0000     0.0000 </r>
       <r>   -14.9346     0.0000     0.0000 </r>
       <r>   -14.8258     0.0000     0.0000 </r>
       <r>   -14.7169     0.0000     0.0000 </r>
       <r>   -14.6081     0.0004     0.0000 </r>
       <r>   -14.4993     0.0095     0.0011 </r>
       <r>   -14.3904     0.1377     0.0161 </r>
       <r>   -14.2816     1.1978     0.1464 </r>
       <r>   -14.1727     6.3647     0.8392 </r>
       <r>   -14.0639    20.8423     3.1076 </r>
       <r>   -13.9551    42.0609     7.6855 </r>
       <r>   -13.8462    51.9103    13.3354 </r>
       <r>   -13.7374    38.7186    17.5495 </r>
       <r>   -13.6285    17.2328    19.4251 </r>
       <r>   -13.5197     4.5237    19.9175 </r>
       <r>   -13.4109     0.6934    19.9930 </r>
       <r>   -13.3020     0.0615    19.9996 </r>
       <r>   -13.1932     0.0031    20.0000 </r>
       <r>   -13.0843     0.0001    20.0000 </r>
       <r>   -12.9755     0.0000    20.0000 </r>
       <r>   -12.8667     0.0000    20.0000 </r>
       <r>   -12.7578     0.0000    20.0000 </r>
       <r>   -12.6490     0.0000    20.0000 </r>
       <r>   -12.5401     0.0000    20.0000 </r>
       <r>   -12.4313     0.0000    20.0000 </r>
       <r>   -12.3225     0.0000    20.0000 </r>
       <r>   -12.2136     0.0000    20.0000 </r>
       <r>   -12.1048     0.0000    20.0000 </r>
       <r>   -11.9960     0.0000    20.0000 </r>
       <r>   -11.8871     0.0000    20.0000 </r>
       <r>   -11.7783     0.0000    20.0000 </r>
       <r>   -11.6694     0.0000    20.0000 </r>
       <r>   -11.5606     0.0000    20.0000 </r>
       <r>   -11.4518     0.0000    20.0000 </r>
       <r>   -11.3429     0.0000    20.0000 </r>
       <r>   -11.2341     0.0000    20.0000 </r>
       <r>   -11.1252     0.0000    20.0000 </r>
       <r>   -11.0164     0.0000    20.0000 </r>
       <r>   -10.9076     0.0001    20.0000 </r>
       <r>   -10.7987     0.0015    20.0002 </r>
       <r>   -10.6899     0.0182    20.0022 </r>
       <r>   -10.5810     0.1255    20.0158 </r>
       <r>   -10.4722     0.4903    20.0692 </r>
       <r>   -10.3634     1.0880    20.1876 </r>
       <r>   -10.2545     1.3735    20.3371 </r>
       <r>   -10.1457     0.9868    20.4445 </r>
       <r>   -10.0368     0.4032    20.4884 </r>
       <r>    -9.9280     0.0936    20.4986 </r>
       <r>    -9.8192     0.0123    20.4999 </r>
       <r>    -9.7103     0.0009    20.5000 </r>
       <r>    -9.6015     0.0000    20.5000 </r>
       <r>    -9.4926     0.0000    20.5000 </r>
       <r>    -9.3838     0.0000    20.5000 </r>
       <r>    -9.2750     0.0000    20.5000 </r>
       <r>    -9.1661     0.0001    20.5000 </r>
       <r>    -9.0573     0.0021    20.5002 </r>
       <r>    -8.9484     0.0318    20.5037 </r>
       <r>    -8.8396     0.2689    20.5330 </r>
       <r>    -8.7308     1.2859    20.6729 </r>
       <r>    -8.6219     3.4922    21.0530 </r>
       <r>    -8.5131     5.3930    21.6400 </r>
       <r>    -8.4043     4.7395    22.1558 </r>
       <r>    -8.2954     2.3698    22.4138 </r>
       <r>    -8.1866     0.6735    22.4871 </r>
       <r>    -8.0777     0.1113    22.4992 </r>
       <r>    -7.9689     0.0468    22.5043 </r>
       <r>    -7.8601     0.2809    22.5348 </r>
       <r>    -7.7512     1.2087    22.6664 </r>
       <r>    -7.6424     2.9591    22.9885 </r>
       <r>    -7.5335     4.1204    23.4369 </r>
       <r>    -7.4247     3.2651    23.7923 </r>
       <r>    -7.3159     1.4718    23.9525 </r>
       <r>    -7.2070     0.3769    23.9935 </r>
       <r>    -7.0982     0.0547    23.9995 </r>
       <r>    -6.9893     0.0045    24.0000 </r>
       <r>    -6.8805     0.0002    24.0000 </r>
       <r>    -6.7717     0.0000    24.0000 </r>
       <r>    -6.6628     0.0000    24.0000 </r>
       <r>    -6.5540     0.0000    24.0000 </r>
       <r>    -6.4451     0.0000    24.0000 </r>
       <r>    -6.3363     0.0000    24.0000 </r>
       <r>    -6.2275     0.0000    24.0000 </r>
       <r>    -6.1186     0.0000    24.0000 </r>
       <r>    -6.0098     0.0000    24.0000 </r>
       <r>    -5.9009     0.0000    24.0000 </r>
       <r>    -5.7921     0.0000    24.0000 </r>
       <r>    -5.6833     0.0000    24.0000 </r>
       <r>    -5.5744     0.0000    24.0000 </r>
       <r>    -5.4656     0.0000    24.0000 </r>
       <r>    -5.3568     0.0000    24.0000 </r>
       <r>    -5.2479     0.0000    24.0000 </r>
       <r>    -5.1391     0.0000    24.0000 </r>
       <r>    -5.0302     0.0000    24.0000 </r>
       <r>    -4.9214     0.0000    24.0000 </r>
       <r>    -4.8126     0.0000    24.0000 </r>
       <r>    -4.7037     0.0000    24.0000 </r>
       <r>    -4.5949     0.0000    24.0000 </r>
       <r>    -4.4860     0.0000    24.0000 </r>
       <r>    -4.3772     0.0010    24.0001 </r>
       <r>    -4.2684     0.0168    24.0019 </r>
       <r>    -4.1595     0.1535    24.0187 </r>
       <r>    -4.0507     0.7970    24.1054 </r>
       <r>    -3.9418     2.3482    24.3610 </r>
       <r>    -3.8330     3.9336    24.7891 </r>
       <r>    -3.7242     3.7496    25.1972 </r>
       <r>    -3.6153     2.0337    25.4186 </r>
       <r>    -3.5065     0.6270    25.4868 </r>
       <r>    -3.3976     0.1097    25.4987 </r>
       <r>    -3.2888     0.0109    25.4999 </r>
       <r>    -3.1800     0.0006    25.5000 </r>
       <r>    -3.0711     0.0003    25.5000 </r>
       <r>    -2.9623     0.0060    25.5007 </r>
       <r>    -2.8534     0.0731    25.5086 </r>
       <r>    -2.7446     0.5031    25.5634 </r>
       <r>    -2.6358     1.9636    25.7771 </r>
       <r>    -2.5269     4.3547    26.2511 </r>
       <r>    -2.4181     5.4937    26.8490 </r>
       <r>    -2.3092     3.9442    27.2783 </r>
       <r>    -2.2004     1.6106    27.4536 </r>
       <r>    -2.0916     0.3735    27.4942 </r>
       <r>    -1.9827     0.0491    27.4996 </r>
       <r>    -1.8739     0.0036    27.5000 </r>
       <r>    -1.7651     0.0002    27.5000 </r>
       <r>    -1.6562     0.0000    27.5000 </r>
       <r>    -1.5474     0.0000    27.5000 </r>
       <r>    -1.4385     0.0000    27.5000 </r>
       <r>    -1.3297     0.0000    27.5000 </r>
       <r>    -1.2209     0.0000    27.5000 </r>
       <r>    -1.1120     0.0000    27.5000 </r>
       <r>    -1.0032     0.0000    27.5000 </r>
       <r>    -0.8943     0.0000    27.5000 </r>
       <r>    -0.7855     0.0000    27.5000 </r>
       <r>    -0.6767     0.0000    27.5000 </r>
       <r>    -0.5678     0.0012    27.5001 </r>
       <r>    -0.4590     0.0195    27.5022 </r>
       <r>    -0.3501     0.1840    27.5223 </r>
       <r>    -0.2413     0.9853    27.6295 </r>
       <r>    -0.1325     2.9945    27.9554 </r>
       <r>    -0.0236     5.1738    28.5185 </r>
       <r>     0.0852     5.0897    29.0725 </r>
       <r>     0.1941     2.8952    29.3876 </r>
       <r>     0.3029     1.3211    29.5314 </r>
       <r>     0.4117     2.1348    29.7637 </r>
       <r>     0.5206     5.3191    30.3427 </r>
       <r>     0.6294     8.1110    31.2255 </r>
       <r>     0.7383     7.0590    31.9938 </r>
       <r>     0.8471     3.4956    32.3742 </r>
       <r>     0.9559     0.9837    32.4813 </r>
       <r>     1.0648     0.1570    32.4984 </r>
       <r>     1.1736     0.0142    32.4999 </r>
       <r>     1.2824     0.0007    32.5000 </r>
       <r>     1.3913     0.0000    32.5000 </r>
       <r>     1.5001     0.0000    32.5000 </r>
       <r>     1.6090     0.0002    32.5000 </r>
       <r>     1.7178     0.0046    32.5005 </r>
       <r>     1.8266     0.0588    32.5069 </r>
       <r>     1.9355     0.4275    32.5534 </r>
       <r>     2.0443     1.7632    32.7454 </r>
       <r>     2.1532     4.1311    33.1950 </r>
       <r>     2.2620     5.5056    33.7942 </r>
       <r>     2.3708     4.1756    34.2487 </r>
       <r>     2.4797     1.8014    34.4447 </r>
       <r>     2.5885     0.4415    34.4928 </r>
       <r>     2.6974     0.0613    34.4995 </r>
       <r>     2.8062     0.0049    34.5000 </r>
       <r>     2.9150     0.0012    34.5001 </r>
       <r>     3.0239     0.0155    34.5018 </r>
       <r>     3.1327     0.1449    34.5176 </r>
       <r>     3.2416     0.7649    34.6008 </r>
       <r>     3.3504     2.2922    34.8503 </r>
       <r>     3.4592     3.9052    35.2753 </r>
       <r>     3.5681     3.7859    35.6874 </r>
       <r>     3.6769     2.0884    35.9147 </r>
       <r>     3.7858     0.6548    35.9860 </r>
       <r>     3.8946     0.1165    35.9986 </r>
       <r>     4.0034     0.0117    35.9999 </r>
       <r>     4.1123     0.0007    36.0000 </r>
       <r>     4.2211     0.0000    36.0000 </r>
       <r>     4.3300     0.0000    36.0000 </r>
       <r>     4.4388     0.0000    36.0000 </r>
       <r>     4.5476     0.0001    36.0000 </r>
       <r>     4.6565     0.0015    36.0002 </r>
       <r>     4.7653     0.0179    36.0021 </r>
       <r>     4.8741     0.1237    36.0156 </r>
       <r>     4.9830     0.4855    36.0684 </r>
       <r>     5.0918     1.0829    36.1863 </r>
       <r>     5.2007     1.3751    36.3359 </r>
       <r>     5.3095     1.0091    36.4458 </r>
       <r>     5.4183     0.5625    36.5070 </r>
       <r>     5.5272     0.9045    36.6055 </r>
       <r>     5.6360     2.4610    36.8733 </r>
       <r>     5.7449     4.4989    37.3630 </r>
       <r>     5.8537     5.6449    37.9774 </r>
       <r>     5.9625     5.6804    38.5956 </r>
       <r>     6.0714     4.6207    39.0985 </r>
       <r>     6.1802     2.5976    39.3812 </r>
       <r>     6.2891     0.8919    39.4783 </r>
       <r>     6.3979     0.1777    39.4977 </r>
       <r>     6.5067     0.0203    39.4999 </r>
       <r>     6.6156     0.0034    39.5002 </r>
       <r>     6.7244     0.0311    39.5036 </r>
       <r>     6.8333     0.2639    39.5323 </r>
       <r>     6.9421     1.2694    39.6705 </r>
       <r>     7.0509     3.4670    40.0479 </r>
       <r>     7.1598     5.3846    40.6339 </r>
       <r>     7.2686     4.7590    41.1519 </r>
       <r>     7.3775     2.3930    41.4123 </r>
       <r>     7.4863     0.6839    41.4868 </r>
       <r>     7.5951     0.1119    41.4990 </r>
       <r>     7.7040     0.0272    41.5019 </r>
       <r>     7.8128     0.1561    41.5189 </r>
       <r>     7.9216     0.8045    41.6065 </r>
       <r>     8.0305     2.3611    41.8634 </r>
       <r>     8.1393     3.9399    42.2923 </r>
       <r>     8.2482     3.7411    42.6994 </r>
       <r>     8.3570     2.0213    42.9194 </r>
       <r>     8.4658     0.6208    42.9870 </r>
       <r>     8.5747     0.1082    42.9988 </r>
       <r>     8.6835     0.0107    42.9999 </r>
       <r>     8.7924     0.0006    43.0000 </r>
       <r>     8.9012     0.0000    43.0000 </r>
       <r>     9.0100     0.0000    43.0000 </r>
       <r>     9.1189     0.0000    43.0000 </r>
       <r>     9.2277     0.0000    43.0000 </r>
       <r>     9.3366     0.0000    43.0000 </r>
       <r>     9.4454     0.0000    43.0000 </r>
       <r>     9.5542     0.0006    43.0001 </r>
       <r>     9.6631     0.0124    43.0014 </r>
       <r>     9.7719     0.1474    43.0175 </r>
       <r>     9.8808     0.9967    43.1260 </r>
       <r>     9.9896     3.8550    43.5455 </r>
       <r>    10.0984     8.5509    44.4762 </r>
       <r>    10.2073    10.8979    45.6623 </r>
       <r>    10.3161     7.9872    46.5316 </r>
       <r>    10.4250     3.3660    46.8980 </r>
       <r>    10.5338     0.8148    46.9867 </r>
       <r>    10.6426     0.1131    46.9990 </r>
       <r>    10.7515     0.0090    47.0000 </r>
       <r>    10.8603     0.0004    47.0000 </r>
       <r>    10.9692     0.0000    47.0000 </r>
       <r>    11.0780     0.0000    47.0000 </r>
       <r>    11.1868     0.0000    47.0000 </r>
       <r>    11.2957     0.0000    47.0000 </r>
       <r>    11.4045     0.0000    47.0000 </r>
       <r>    11.5133     0.0000    47.0000 </r>
       <r>    11.6222     0.0002    47.0000 </r>
       <r>    11.7310     0.0043    47.0005 </r>
       <r>    11.8399     0.0414    47.0050 </r>
       <r>    11.9487     0.2287    47.0299 </r>
       <r>    12.0575     0.7160    47.1078 </r>
       <r>    12.1664     1.2745    47.2465 </r>
       <r>    12.2752     1.2908    47.3870 </r>
       <r>    12.3841     0.7439    47.4680 </r>
       <r>    12.4929     0.2437    47.4945 </r>
       <r>    12.6017     0.0453    47.4994 </r>
       <r>    12.7106     0.0048    47.5000 </r>
       <r>    12.8194     0.0003    47.5000 </r>
       <r>    12.9283     0.0000    47.5000 </r>
       <r>    13.0371     0.0000    47.5000 </r>
       <r>    13.1459     0.0000    47.5000 </r>
       <r>    13.2548     0.0000    47.5000 </r>
       <r>    13.3636     0.0000    47.5000 </r>
       <r>    13.4725     0.0000    47.5000 </r>
       <r>    13.5813     0.0000    47.5000 </r>
       <r>    13.6901     0.0000    47.5000 </r>
       <r>    13.7990     0.0000    47.5000 </r>
       <r>    13.9078     0.0000    47.5000 </r>
       <r>    14.0167     0.0000    47.5000 </r>
       <r>    14.1255     0.0008    47.5001 </r>
       <r>    14.2343     0.0113    47.5013 </r>
       <r>    14.3432     0.0876    47.5109 </r>
       <r>    14.4520     0.3856    47.5528 </r>
       <r>    14.5608     0.9639    47.6577 </r>
       <r>    14.6697     1.3705    47.8069 </r>
       <r>    14.7785     1.1088    47.9276 </r>
       <r>    14.8874     0.5104    47.9831 </r>
       <r>    14.9962     0.1335    47.9977 </r>
       <r>    15.1050     0.0198    47.9998 </r>
       <r>    15.2139     0.0017    48.0000 </r>
       <r>    15.3227     0.0001    48.0000 </r>
       <r>    15.4316     0.0000    48.0000 </r>
       <r>    15.5404     0.0000    48.0000 </r>
       <r>    15.6492     0.0000    48.0000 </r>
       <r>    15.7581     0.0000    48.0000 </r>
       <r>    15.8669     0.0000    48.0000 </r>
       <r>    15.9758     0.0000    48.0000 </r>
       <r>    16.0846     0.0000    48.0000 </r>
       <r>    16.1934     0.0000    48.0000 </r>
       <r>    16.3023     0.0000    48.0000 </r>
       <r>    16.4111     0.0000    48.0000 </r>
       <r>    16.5200     0.0000    48.0000 </r>
       <r>    16.6288     0.0000    48.0000 </r>
      </set>
     </set>
    </array>
   </total>
   <partial>
    <array>
     <dimension dim="1">gridpoints</dimension>
     <dimension dim="2">spin</dimension>
     <dimension dim="3">ion</dimension>
     <field>energy</field>
     <field>    s</field>
     <field>   py</field>
     <field>   pz</field>
     <field>   px</field>
     <field>  dxy</field>
     <field>  dyz</field>
     <field>  dz2</field>
     <field>  dxz</field>
     <field>x2-y2</field>
     <set>
      <set comment="ion 1">
       <set comment="spin 1">
        <r>   -16.0230     0.0000     0.0000     0.0000     0.0000     0.0000     0.0000     0.0000     0.0000     0.0000 </r>
        <r>   -15.9142     0.0000     0.0000     0.0000     0.0000     0.0000     0.0000     0.0000     0.0000     0.0000 </r>
        <r>   -15.8053     0.0000     0.0000     0.0000     0.0000     0.0000     0.0000     0.0000     0.0000     0.0000 </r>
        <r>   -15.6965     0.0000     0.0000     0.0000     0.0000     0.0000     0.0000     0.0000     0.0000     0.0000 </r>
        <r>   -15.5876     0.0000     0.0000     0.0000     0.0000     0.0000     0.0000     0.0000     0.0000     0.0000 </r>
        <r>   -15.4788     0.0000     0.0000     0.0000     0.0000     0.0000     0.0000     0.0000     0.0000     0.0000 </r>
        <r>   -15.3700     0.0000     0.0000     0.0000     0.0000     0.0000     0.0000     0.0000     0.0000     0.0000 </r>
        <r>   -15.2611     0.0000     0.0000     0.0000     0.0000     0.0000     0.0000     0.0000     0.0000     0.0000 </r>
        <r>   -15.1523     0.0000     0.0000     0.0000     0.0000     0.0000     0.0000     0.0000     0.0000     0.0000 </r>
        <r>   -15.0435     0.0000     0.0000     0.0000     0.0000     0.0000     0.0000     0.0000     0.0000     0.0000 </r>
        <r>   -14.9346     0.0000     0.0000     0.0000     0.0000     0.0000     0.0000     0.0000     0.0000     0.0000 </r>
        <r>   -14.8258     0.0000     0.0000     0.0000     0.0000     0.0000     0.0000     0.0000     0.0000     0.0000 </r>
        <r>   -14.7169     0.0000     0.0000     0.0000     0.0000     0.0000     0.0000     0.0000     0.0000     0.0000 </r>
        <r>   -14.6081     0.0000     0.0000     0.0000     0.0000     0.0000     0.0000     0.0000     0.0000     0.0000 </r>
        <r>   -14.4993     0.0000     0.0000     0.0000     0.0000     0.0007     0.0007     0.0000     0.0007     0.0000 </r>
        <r>   -14.3904     0.0000     0.0000     0.0000     0.0000     0.0105     0.0105     0.0010     0.0105     0.0010 </r>
        <r>   -14.2816     0.0000     0.0000     0.0000     0.0000     0.0878     0.0878     0.0147     0.0878     0.0147 </r>
        <r>   -14.1727     0.0001     0.0001     0.0001     0.0001     0.4367     0.4367     0.1244     0.4367     0.1244 </r>
        <r>   -14.0639     0.0003     0.0003     0.0003     0.0003     1.3046     1.3046     0.6024     1.3046     0.6024 </r>
        <r>   -13.9551     0.0004     0.0004     0.0004     0.0004     2.3400     2.3400     1.6671     2.3400     1.6671 </r>
        <r>   -13.8462     0.0004     0.0004     0.0004     0.0004     2.5091     2.5091     2.6376     2.5091     2.6376 </r>
        <r>   -13.7374     0.0002     0.0002     0.0002     0.0002     1.5966     1.5966     2.3860     1.5966     2.3860 </r>
        <r>   -13.6285     0.0001     0.0001     0.0001     0.0001     0.5977     0.5977     1.2333     0.5977     1.2333 </r>
        <r>   -13.5197     0.0000     0.0000     0.0000     0.0000     0.1305     0.1305     0.3636     0.1305     0.3636 </r>
        <r>   -13.4109     0.0000     0.0000     0.0000     0.0000     0.0165     0.0165     0.0610     0.0165     0.0610 </r>
        <r>   -13.3020     0.0000     0.0000     0.0000     0.0000     0.0012     0.0012     0.0058     0.0012     0.0058 </r>
        <r>   -13.1932     0.0000     0.0000     0.0000     0.0000     0.0000     0.0000     0.0003     0.0000     0.0003 </r>
        <r>   -13.0843     0.0000     0.0000     0.0000     0.0000     0.0000     0.0000     0.0000     0.0000     0.0000 </r>
        <r>   -12.9755     0.0000     0.0000     0.0000     0.0000     0.0000     0.0000     0.0000     0.0000     0.0000 </r>
        <r>   -12.8667     0.0000     0.0000     0.0000     0.0000     0.0000     0.0000     0.0000     0.0000     0.0000 </r>
        <r>   -12.7578     0.0000     0.0000     0.0000     0.0000     0.0000     0.0000     0.0000     0.0000     0.0000 </r>
        <r>   -12.6490     0.0000     0.0000     0.0000     0.0000     0.0000     0.0000     0.0000     0.0000     0.0000 </r>
        <r>   -12.5401     0.0000     0.0000     0.0000     0.0000     0.0000     0.0000     0.0000     0.0000     0.0000 </r>
        <r>   -12.4313     0.0000     0.0000     0.0000     0.0000     0.0000     0.0000     0.0000     0.0000     0.0000 </r>
        <r>   -12.3225     0.0000     0.0000     0.0000     0.0000     0.0000     0.0000     0.0000     0.0000     0.0000 </r>
        <r>   -12.2136     0.0000     0.0000     0.0000     0.0000     0.0000     0.0000     0.0000     0.0000     0.0000 </r>
        <r>   -12.1048     0.0000     0.0000     0.0000     0.0000     0.0000     0.0000     0.0000     0.0000     0.0000 </r>
        <r>   -11.9960     0.0000     0.0000     0.0000     0.0000     0.0000     0.0000     0.0000     0.0000     0.0000 </r>
        <r>   -11.8871     0.0000     0.0000     0.0000     0.0000     0.0000     0.0000     0.0000     0.0000     0.0000 </r>
        <r>   -11.7783     0.0000     0.0000     0.0000     0.0000     0.0000     0.0000     0.0000     0.0000     0.0000 </r>
        <r>   -11.6694     0.0000     0.0000     0.0000     0.0000     0.0000     0.0000     0.0000     0.0000     0.0000 </r>
        <r>   -11.5606     0.0000     0.0000     0.0000     0.0000     0.0000     0.0000     0.0000     0.0000     0.0000 </r>
        <r>   -11.4518     0.0000     0.0000     0.0000     0.0000     0.0000     0.0000     0.0000     0.0000     0.0000 </r>
        <r>   -11.3429     0.0000     0.0000     0.0000     0.0000     0.0000     0.0000     0.0000     0.0000     0.0000 </r>
        <r>   -11.2341     0.0000     0.0000     0.0000     0.0000     0.0000     0.0000     0.0000     0.0000     0.0000 </r>
        <r>   -11.1252     0.0000     0.0000     0.0000     0.0000     0.0000     0.0000     0.0000     0.0000     0.0000 </r>
        <r>   -11.0164     0.0000     0.0000     0.0000     0.0000     0.0000     0.0000     0.0000     0.0000     0.0000 </r>
        <r>   -10.9076     0.0000     0.0000     0.0000     0.0000     0.0000     0.0000     0.0000     0.0000     0.0000 </r>
        <r>   -10.7987     0.0001     0.0000     0.0000     0.0000     0.0000     0.0000     0.0000     0.0000     0.0000 </r>
        <r>   -10.6899     0.0008     0.0000     0.0000     0.0000     0.0000     0.0000     0.0000     0.0000     0.0000 </r>
        <r>   -10.5810     0.0055     0.0000     0.0000     0.0000     0.0000     0.0000     0.0000     0.0000     0.0000 </r>
        <r>   -10.4722     0.0217     0.0000     0.0000     0.0000     0.0000     0.0000     0.0000     0.0000     0.0000 </r>
        <r>   -10.3634     0.0481     0.0000     0.0000     0.0000     0.0000     0.0000     0.0000     0.0000     0.0000 </r>
        <r>   -10.2545     0.0607     0.0000     0.0000     0.0000     0.0000     0.0000     0.0000     0.0000     0.0000 </r>
        <r>   -10.1457     0.0436     0.0000     0.0000     0.0000     0.0000     0.0000     0.0000     0.0000     0.0000 </r>
        <r>   -10.0368     0.0178     0.0000     0.0000     0.0000     0.0000     0.0000     0.0000     0.0000     0.0000 </r>
        <r>    -9.9280     0.0041     0.0000     0.0000     0.0000     0.0000     0.0000     0.0000     0.0000     0.0000 </r>
        <r>    -9.8192     0.0005     0.0000     0.0000     0.0000     0.0000     0.0000     0.0000     0.0000     0.0000 </r>
        <r>    -9.7103     0.0000     0.0000     0.0000     0.0000     0.0000     0.0000     0.0000     0.0000     0.0000 </r>
        <r>    -9.6015     0.0000     0.0000     0.0000     0.0000     0.0000     0.0000     0.0000     0.0000     0.0000 </r>
        <r>    -9.4926     0.0000     0.0000     0.0000     0.0000     0.0000     0.0000     0.0000     0.0000     0.0000 </r>
        <r>    -9.3838     0.0000     0.0000     0.0000     0.0000     0.0000     0.0000     0.0000     0.0000     0.0000 </r>
        <r>    -9.2750     0.0000     0.0000     0.0000     0.0000     0.0000     0.0000     0.0000     0.0000     0.0000 </r>
        <r>    -9.1661     0.0000     0.0000     0.0000     0.0000     0.0000     0.0000     0.0000     0.0000     0.0000 </r>
        <r>    -9.0573     0.0001     0.0000     0.0000     0.0000     0.0000     0.0000     0.0000     0.0000     0.0000 </r>
        <r>    -8.9484     0.0008     0.0001     0.0001     0.0001     0.0001     0.0001     0.0000     0.0001     0.0000 </r>
        <r>    -8.8396     0.0068     0.0006     0.0006     0.0006     0.0005     0.0005     0.0000     0.0005     0.0000 </r>
        <r>    -8.7308     0.0326     0.0030     0.0030     0.0030     0.0026     0.0026     0.0000     0.0026     0.0000 </r>
        <r>    -8.6219     0.0886     0.0082     0.0082     0.0082     0.0069     0.0069     0.0000     0.0069     0.0000 </r>
        <r>    -8.5131     0.1368     0.0127     0.0127     0.0127     0.0107     0.0107     0.0000     0.0107     0.0000 </r>
        <r>    -8.4043     0.1202     0.0111     0.0111     0.0111     0.0094     0.0094     0.0000     0.0094     0.0000 </r>
        <r>    -8.2954     0.0601     0.0056     0.0056     0.0056     0.0047     0.0047     0.0000     0.0047     0.0000 </r>
        <r>    -8.1866     0.0171     0.0016     0.0016     0.0016     0.0013     0.0013     0.0000     0.0013     0.0000 </r>
        <r>    -8.0777     0.0028     0.0003     0.0003     0.0003     0.0002     0.0002     0.0000     0.0002     0.0000 </r>
        <r>    -7.9689     0.0003     0.0002     0.0002     0.0002     0.0001     0.0001     0.0000     0.0001     0.0000 </r>
        <r>    -7.8601     0.0000     0.0013     0.0013     0.0013     0.0008     0.0008     0.0000     0.0008     0.0000 </r>
        <r>    -7.7512     0.0000     0.0058     0.0058     0.0058     0.0034     0.0034     0.0000     0.0034     0.0000 </r>
        <r>    -7.6424     0.0000     0.0142     0.0142     0.0142     0.0083     0.0083     0.0000     0.0083     0.0000 </r>
        <r>    -7.5335     0.0000     0.0197     0.0197     0.0197     0.0116     0.0116     0.0000     0.0116     0.0000 </r>
        <r>    -7.4247     0.0000     0.0156     0.0156     0.0156     0.0092     0.0092     0.0000     0.0092     0.0000 </r>
        <r>    -7.3159     0.0000     0.0070     0.0070     0.0070     0.0041     0.0041     0.0000     0.0041     0.0000 </r>
        <r>    -7.2070     0.0000     0.0018     0.0018     0.0018     0.0011     0.0011     0.0000     0.0011     0.0000 </r>
        <r>    -7.0982     0.0000     0.0003     0.0003     0.0003     0.0002     0.0002     0.0000     0.0002     0.0000 </r>
        <r>    -6.9893     0.0000     0.0000     0.0000     0.0000     0.0000     0.0000     0.0000     0.0000     0.0000 </r>
        <r>    -6.8805     0.0000     0.0000     0.0000     0.0000     0.0000     0.0000     0.0000     0.0000     0.0000 </r>
        <r>    -6.7717     0.0000     0.0000     0.0000     0.0000     0.0000     0.0000     0.0000     0.0000     0.0000 </r>
        <r>    -6.6628     0.0000     0.0000     0.0000     0.0000     0.0000     0.0000     0.0000     0.0000     0.0000 </r>
        <r>    -6.5540     0.0000     0.0000     0.0000     0.0000     0.0000     0.0000     0.0000     0.0000     0.0000 </r>
        <r>    -6.4451     0.0000     0.0000     0.0000     0.0000     0.0000     0.0000     0.0000     0.0000     0.0000 </r>
        <r>    -6.3363     0.0000     0.0000     0.0000     0.0000     0.0000     0.0000     0.0000     0.0000     0.0000 </r>
        <r>    -6.2275     0.0000     0.0000     0.0000     0.0000     0.0000     0.0000     0.0000     0.0000     0.0000 </r>
        <r>    -6.1186     0.0000     0.0000     0.0000     0.0000     0.0000     0.0000     0.0000     0.0000     0.0000 </r>
        <r>    -6.0098     0.0000     0.0000     0.0000     0.0000     0.0000     0.0000     0.0000     0.0000     0.0000 </r>
        <r>    -5.9009     0.0000     0.0000     0.0000     0.0000     0.0000     0.0000     0.0000     0.0000     0.0000 </r>
        <r>    -5.7921     0.0000     0.0000     0.0000     0.0000     0.0000     0.0000     0.0000     0.0000     0.0000 </r>
        <r>    -5.6833     0.0000     0.0000     0.0000     0.0000     0.0000     0.0000     0.0000     0.0000     0.0000 </r>
        <r>    -5.5744     0.0000     0.0000     0.0000     0.0000     0.0000     0.0000     0.0000     0.0000     0.0000 </r>
        <r>    -5.4656     0.0000     0.0000     0.0000     0.0000     0.0000     0.0000     0.0000     0.0000     0.0000 </r>
        <r>    -5.3568     0.0000     0.0000     0.0000     0.0000     0.0000     0.0000     0.0000     0.0000     0.0000 </r>
        <r>    -5.2479     0.0000     0.0000     0.0000     0.0000     0.0000     0.0000     0.0000     0.0000     0.0000 </r>
        <r>    -5.1391     0.0000     0.0000     0.0000     0.0000     0.0000     0.0000     0.0000     0.0000     0.0000 </r>
        <r>    -5.0302     0.0000     0.0000     0.0000     0.0000     0.0000     0.0000     0.0000     0.0000     0.0000 </r>
        <r>    -4.9214     0.0000     0.0000     0.0000     0.0000     0.0000     0.0000     0.0000     0.0000     0.0000 </r>
        <r>    -4.8126     0.0000     0.0000     0.0000     0.0000     0.0000     0.0000     0.0000     0.0000     0.0000 </r>
        <r>    -4.7037     0.0000     0.0000     0.0000     0.0000     0.0000     0.0000     0.0000     0.0000     0.0000 </r>
        <r>    -4.5949     0.0000     0.0000     0.0000     0.0000     0.0000     0.0000     0.0000     0.0000     0.0000 </r>
        <r>    -4.4860     0.0000     0.0000     0.0000     0.0000     0.0000     0.0000     0.0000     0.0000     0.0000 </r>
        <r>    -4.3772     0.0001     0.0000     0.0000     0.0000     0.0000     0.0000     0.0000     0.0000     0.0000 </r>
        <r>    -4.2684     0.0018     0.0000     0.0000     0.0000     0.0000     0.0000     0.0000     0.0000     0.0000 </r>
        <r>    -4.1595     0.0168     0.0000     0.0000     0.0000     0.0000     0.0000     0.0001     0.0000     0.0001 </r>
        <r>    -4.0507     0.0870     0.0000     0.0000     0.0000     0.0000     0.0000     0.0005     0.0000     0.0005 </r>
        <r>    -3.9418     0.2564     0.0000     0.0000     0.0000     0.0000     0.0000     0.0015     0.0000     0.0015 </r>
        <r>    -3.8330     0.4295     0.0000     0.0000     0.0000     0.0000     0.0000     0.0025     0.0000     0.0025 </r>
        <r>    -3.7242     0.4094     0.0000     0.0000     0.0000     0.0000     0.0000     0.0024     0.0000     0.0024 </r>
        <r>    -3.6153     0.2221     0.0000     0.0000     0.0000     0.0000     0.0000     0.0013     0.0000     0.0013 </r>
        <r>    -3.5065     0.0685     0.0000     0.0000     0.0000     0.0000     0.0000     0.0004     0.0000     0.0004 </r>
        <r>    -3.3976     0.0120     0.0000     0.0000     0.0000     0.0000     0.0000     0.0001     0.0000     0.0001 </r>
        <r>    -3.2888     0.0012     0.0000     0.0000     0.0000     0.0000     0.0000     0.0000     0.0000     0.0000 </r>
        <r>    -3.1800     0.0001     0.0000     0.0000     0.0000     0.0000     0.0000     0.0000     0.0000     0.0000 </r>
[...]
        <r>  0.0007  0.0000  0.0000  0.0107  0.0000  0.0074  0.0000  0.0000  0.0000 </r>
        <r>  0.0002  0.0107  0.0000  0.0000  0.0001  0.0000  0.0000  0.0074  0.0000 </r>
        <r>  0.0973  0.0007  0.0002  0.0008  0.0001  0.0000  0.0000  0.0000  0.0000 </r>
        <r>  0.1091  0.0006  0.0001  0.0010  0.0001  0.0000  0.0000  0.0000  0.0000 </r>
        <r>  0.1599  0.0008  0.0001  0.0007  0.0001  0.0000  0.0000  0.0000  0.0000 </r>
        <r>  0.1294  0.0010  0.0001  0.0006  0.0001  0.0000  0.0000  0.0000  0.0000 </r>
       </set>
       <set comment="band 25">
        <r>  0.0000  0.0027  0.0000  0.0029  0.0000  0.0027  0.0000  0.0026  0.0000 </r>
        <r>  0.0002  0.0029  0.0000  0.0027  0.0000  0.0026  0.0000  0.0027  0.0000 </r>
        <r>  0.1538  0.0000  0.0169  0.0000  0.0005  0.0000  0.0000  0.0000  0.0000 </r>
        <r>  0.1481  0.0000  0.0176  0.0000  0.0005  0.0000  0.0000  0.0000  0.0000 </r>
        <r>  0.0444  0.0004  0.0213  0.0006  0.0004  0.0000  0.0001  0.0000  0.0000 </r>
        <r>  0.0006  0.0290  0.0004  0.0301  0.0000  0.0011  0.0000  0.0011  0.0000 </r>
        <r>  0.0461  0.0006  0.0205  0.0004  0.0004  0.0000  0.0001  0.0000  0.0000 </r>
        <r>  0.0010  0.0301  0.0003  0.0290  0.0000  0.0011  0.0000  0.0011  0.0000 </r>
       </set>
       <set comment="band 26">
        <r>  0.0000  0.0028  0.0001  0.0027  0.0000  0.0026  0.0000  0.0027  0.0000 </r>
        <r>  0.0005  0.0027  0.0000  0.0028  0.0000  0.0027  0.0000  0.0026  0.0000 </r>
        <r>  0.1479  0.0000  0.0175  0.0000  0.0005  0.0000  0.0000  0.0000  0.0000 </r>
        <r>  0.1536  0.0000  0.0169  0.0000  0.0005  0.0000  0.0000  0.0000  0.0000 </r>
        <r>  0.0009  0.0282  0.0003  0.0308  0.0000  0.0011  0.0000  0.0010  0.0000 </r>
        <r>  0.0432  0.0006  0.0218  0.0005  0.0004  0.0000  0.0001  0.0000  0.0000 </r>
        <r>  0.0007  0.0308  0.0004  0.0282  0.0000  0.0010  0.0000  0.0011  0.0000 </r>
        <r>  0.0472  0.0005  0.0199  0.0006  0.0004  0.0000  0.0001  0.0000  0.0000 </r>
       </set>
       <set comment="band 27">
        <r>  0.0000  0.0000  0.0344  0.0000  0.0010  0.0000  0.0000  0.0000  0.0000 </r>
        <r>  0.3014  0.0000  0.0000  0.0000  0.0000  0.0000  0.0000  0.0000  0.0000 </r>
        <r>  0.0003  0.0056  0.0000  0.0000  0.0000  0.0000  0.0000  0.0053  0.0000 </r>
        <r>  0.0003  0.0000  0.0000  0.0056  0.0000  0.0053  0.0000  0.0000  0.0000 </r>
        <r>  0.0239  0.0165  0.0104  0.0132  0.0002  0.0005  0.0000  0.0006  0.0000 </r>
        <r>  0.0252  0.0156  0.0093  0.0148  0.0002  0.0005  0.0000  0.0006  0.0000 </r>
        <r>  0.0226  0.0132  0.0110  0.0165  0.0002  0.0006  0.0000  0.0005  0.0000 </r>
        <r>  0.0203  0.0148  0.0116  0.0156  0.0002  0.0006  0.0000  0.0005  0.0000 </r>
       </set>
       <set comment="band 28">
        <r>  0.3020  0.0000  0.0000  0.0000  0.0000  0.0000  0.0000  0.0000  0.0000 </r>
        <r>  0.0000  0.0000  0.0345  0.0000  0.0010  0.0000  0.0000  0.0000  0.0000 </r>
        <r>  0.0000  0.0000  0.0000  0.0056  0.0000  0.0053  0.0000  0.0000  0.0000 </r>
        <r>  0.0000  0.0056  0.0000  0.0000  0.0000  0.0000  0.0000  0.0053  0.0000 </r>
        <r>  0.0228  0.0150  0.0104  0.0154  0.0002  0.0006  0.0000  0.0006  0.0000 </r>
        <r>  0.0230  0.0149  0.0109  0.0147  0.0002  0.0005  0.0000  0.0005  0.0000 </r>
        <r>  0.0226  0.0154  0.0105  0.0150  0.0002  0.0006  0.0000  0.0006  0.0000 </r>
        <r>  0.0236  0.0147  0.0106  0.0149  0.0002  0.0005  0.0000  0.0005  0.0000 </r>
       </set>
       <set comment="band 29">
        <r>  0.0215  0.0015  0.0007  0.0015  0.0001  0.0000  0.0041  0.0000  0.0000 </r>
        <r>  0.0003  0.0015  0.0543  0.0015  0.0079  0.0000  0.0001  0.0000  0.0000 </r>
        <r>  0.0007  0.0006  0.0019  0.0450  0.0003  0.0000  0.0001  0.0000  0.0000 </r>
        <r>  0.0007  0.0450  0.0018  0.0006  0.0003  0.0000  0.0001  0.0000  0.0000 </r>
        <r>  0.0005  0.0075  0.0907  0.0074  0.0010  0.0001  0.0001  0.0001  0.0000 </r>
        <r>  0.0007  0.0053  0.0326  0.0205  0.0004  0.0003  0.0002  0.0001  0.0000 </r>
        <r>  0.0020  0.0074  0.0233  0.0075  0.0003  0.0001  0.0004  0.0001  0.0000 </r>
        <r>  0.0007  0.0205  0.0333  0.0053  0.0004  0.0001  0.0002  0.0003  0.0000 </r>
       </set>
       <set comment="band 30">
        <r>  0.0014  0.0238  0.0003  0.0215  0.0000  0.0000  0.0003  0.0000  0.0000 </r>
        <r>  0.0001  0.0215  0.0036  0.0238  0.0005  0.0000  0.0000  0.0000  0.0000 </r>
        <r>  0.0103  0.0003  0.0287  0.0030  0.0042  0.0000  0.0020  0.0000  0.0000 </r>
        <r>  0.0114  0.0030  0.0259  0.0003  0.0037  0.0000  0.0022  0.0000  0.0000 </r>
        <r>  0.0021  0.0022  0.0554  0.0034  0.0006  0.0000  0.0005  0.0000  0.0000 </r>
        <r>  0.0002  0.0225  0.0152  0.0125  0.0002  0.0002  0.0000  0.0003  0.0000 </r>
        <r>  0.0012  0.0034  0.0994  0.0022  0.0011  0.0000  0.0003  0.0000  0.0000 </r>
        <r>  0.0003  0.0125  0.0099  0.0225  0.0001  0.0003  0.0001  0.0002  0.0000 </r>
       </set>
       <set comment="band 31">
        <r>  0.0001  0.0225  0.0003  0.0256  0.0000  0.0000  0.0000  0.0000  0.0000 </r>
        <r>  0.0001  0.0256  0.0002  0.0225  0.0000  0.0000  0.0000  0.0000  0.0000 </r>
        <r>  0.0123  0.0003  0.0271  0.0002  0.0039  0.0000  0.0023  0.0000  0.0000 </r>
        <r>  0.0108  0.0002  0.0309  0.0003  0.0045  0.0000  0.0021  0.0000  0.0000 </r>
        <r>  0.0002  0.0164  0.0066  0.0206  0.0001  0.0003  0.0000  0.0002  0.0000 </r>
        <r>  0.0016  0.0022  0.0909  0.0015  0.0010  0.0000  0.0003  0.0000  0.0000 </r>
        <r>  0.0001  0.0206  0.0098  0.0164  0.0001  0.0002  0.0000  0.0003  0.0000 </r>
        <r>  0.0020  0.0015  0.0725  0.0022  0.0008  0.0000  0.0004  0.0000  0.0000 </r>
       </set>
       <set comment="band 32">
        <r>  0.0002  0.0007  0.0572  0.0000  0.0083  0.0000  0.0000  0.0000  0.0000 </r>
        <r>  0.0227  0.0000  0.0004  0.0007  0.0001  0.0000  0.0043  0.0000  0.0000 </r>
        <r>  0.0000  0.0475  0.0009  0.0004  0.0001  0.0000  0.0000  0.0000  0.0000 </r>
        <r>  0.0003  0.0004  0.0000  0.0475  0.0000  0.0000  0.0001  0.0000  0.0000 </r>
        <r>  0.0010  0.0145  0.0272  0.0093  0.0003  0.0001  0.0002  0.0002  0.0000 </r>
        <r>  0.0014  0.0107  0.0412  0.0061  0.0005  0.0001  0.0003  0.0001  0.0000 </r>
        <r>  0.0006  0.0093  0.0473  0.0145  0.0005  0.0002  0.0001  0.0001  0.0000 </r>
        <r>  0.0009  0.0061  0.0642  0.0107  0.0007  0.0001  0.0002  0.0001  0.0000 </r>
       </set>
       <set comment="band 33">
        <r>  0.0000  0.0001  0.0000  0.0000  0.0000  0.0000  0.0000  0.0000  0.0000 </r>
        <r>  0.0000  0.0000  0.0000  0.0001  0.0000  0.0000  0.0000  0.0000  0.0069 </r>
        <r>  0.0000  0.0867  0.0000  0.0001  0.0000  0.0000  0.0000  0.0103  0.0000 </r>
        <r>  0.0000  0.0001  0.0000  0.0867  0.0000  0.0103  0.0000  0.0000  0.0000 </r>
        <r>  0.0000  0.0493  0.0000  0.0414  0.0000  0.0004  0.0000  0.0005  0.0004 </r>
        <r>  0.0000  0.0477  0.0000  0.0467  0.0000  0.0005  0.0000  0.0005  0.0005 </r>
        <r>  0.0000  0.0414  0.0000  0.0493  0.0000  0.0005  0.0000  0.0004  0.0004 </r>
        <r>  0.0000  0.0467  0.0000  0.0477  0.0000  0.0005  0.0000  0.0005  0.0004 </r>
       </set>
       <set comment="band 34">
        <r>  0.0000  0.0002  0.0000  0.0002  0.0000  0.0000  0.0000  0.0000  0.0069 </r>
        <r>  0.0000  0.0002  0.0000  0.0002  0.0000  0.0000  0.0000  0.0000  0.0000 </r>
        <r>  0.0000  0.0001  0.0000  0.0865  0.0000  0.0103  0.0000  0.0000  0.0000 </r>
        <r>  0.0000  0.0865  0.0000  0.0001  0.0000  0.0000  0.0000  0.0103  0.0000 </r>
        <r>  0.0000  0.0552  0.0000  0.0392  0.0000  0.0004  0.0000  0.0005  0.0004 </r>
        <r>  0.0000  0.0454  0.0000  0.0452  0.0000  0.0004  0.0000  0.0004  0.0005 </r>
        <r>  0.0000  0.0392  0.0000  0.0552  0.0000  0.0005  0.0000  0.0004  0.0004 </r>
        <r>  0.0000  0.0452  0.0000  0.0454  0.0000  0.0004  0.0000  0.0004  0.0004 </r>
       </set>
       <set comment="band 35">
        <r>  0.0000  0.0600  0.0000  0.0268  0.0000  0.0032  0.0000  0.0071  0.0000 </r>
        <r>  0.0000  0.0268  0.0000  0.0600  0.0000  0.0071  0.0000  0.0032  0.0000 </r>
        <r>  0.0000  0.0000  0.0000  0.0000  0.0000  0.0000  0.0000  0.0000  0.0021 </r>
        <r>  0.0000  0.0000  0.0000  0.0000  0.0000  0.0000  0.0000  0.0000  0.0048 </r>
        <r>  0.0000  0.0082  0.0000  0.0103  0.0000  0.0001  0.0000  0.0001  0.0008 </r>
        <r>  0.0000  0.0835  0.0000  0.0830  0.0000  0.0008  0.0000  0.0008  0.0001 </r>
        <r>  0.0000  0.0103  0.0000  0.0082  0.0000  0.0001  0.0000  0.0001  0.0008 </r>
        <r>  0.0000  0.0830  0.0000  0.0835  0.0000  0.0008  0.0000  0.0008  0.0001 </r>
       </set>
       <set comment="band 36">
        <r>  0.0000  0.0266  0.0000  0.0599  0.0000  0.0071  0.0000  0.0032  0.0000 </r>
        <r>  0.0000  0.0599  0.0000  0.0266  0.0000  0.0032  0.0000  0.0071  0.0000 </r>
        <r>  0.0000  0.0001  0.0000  0.0003  0.0000  0.0000  0.0000  0.0000  0.0048 </r>
        <r>  0.0000  0.0003  0.0000  0.0001  0.0000  0.0000  0.0000  0.0000  0.0021 </r>
        <r>  0.0000  0.0723  0.0000  0.0942  0.0000  0.0009  0.0000  0.0007  0.0001 </r>
        <r>  0.0000  0.0084  0.0000  0.0102  0.0000  0.0001  0.0000  0.0001  0.0007 </r>
        <r>  0.0000  0.0942  0.0000  0.0723  0.0000  0.0007  0.0000  0.0009  0.0001 </r>
        <r>  0.0000  0.0102  0.0000  0.0084  0.0000  0.0001  0.0000  0.0001  0.0009 </r>
       </set>
       <set comment="band 37">
        <r>  0.0000  0.0000  0.0000  0.0000  0.0000  0.0002  0.0000  0.0002  0.0000 </r>
        <r>  0.0000  0.0000  0.0000  0.0000  0.0000  0.0002  0.0000  0.0002  0.0000 </r>
        <r>  0.0808  0.0000  0.0595  0.0000  0.0097  0.0000  0.0048  0.0000  0.0000 </r>
        <r>  0.0924  0.0000  0.0521  0.0000  0.0085  0.0000  0.0054  0.0000  0.0000 </r>
        <r>  0.0002  0.0024  0.0002  0.0025  0.0000  0.0002  0.0000  0.0001  0.0000 </r>
        <r>  0.0359  0.0000  0.0447  0.0000  0.0120  0.0000  0.0050  0.0000  0.0000 </r>
        <r>  0.0002  0.0025  0.0002  0.0024  0.0001  0.0001  0.0000  0.0002  0.0000 </r>
        <r>  0.0377  0.0000  0.0427  0.0000  0.0114  0.0000  0.0052  0.0000  0.0000 </r>
       </set>
       <set comment="band 38">
        <r>  0.0000  0.0000  0.0000  0.0000  0.0000  0.0002  0.0000  0.0002  0.0000 </r>
        <r>  0.0000  0.0000  0.0000  0.0000  0.0000  0.0002  0.0000  0.0002  0.0000 </r>
        <r>  0.0924  0.0000  0.0521  0.0000  0.0085  0.0000  0.0054  0.0000  0.0000 </r>
        <r>  0.0808  0.0000  0.0595  0.0000  0.0097  0.0000  0.0048  0.0000  0.0000 </r>
        <r>  0.0360  0.0000  0.0446  0.0000  0.0119  0.0000  0.0050  0.0000  0.0000 </r>
        <r>  0.0002  0.0024  0.0002  0.0025  0.0001  0.0002  0.0000  0.0001  0.0000 </r>
        <r>  0.0376  0.0000  0.0428  0.0000  0.0115  0.0000  0.0052  0.0000  0.0000 </r>
        <r>  0.0002  0.0025  0.0002  0.0024  0.0001  0.0001  0.0000  0.0002  0.0000 </r>
       </set>
       <set comment="band 39">
        <r>  0.0029  0.0000  0.1097  0.0000  0.0179  0.0000  0.0002  0.0000  0.0000 </r>
        <r>  0.1704  0.0000  0.0018  0.0000  0.0003  0.0000  0.0100  0.0000  0.0000 </r>
        <r>  0.0000  0.0000  0.0000  0.0000  0.0000  0.0000  0.0000  0.0003  0.0000 </r>
        <r>  0.0000  0.0000  0.0000  0.0000  0.0000  0.0003  0.0000  0.0000  0.0000 </r>
        <r>  0.0142  0.0016  0.0158  0.0015  0.0042  0.0001  0.0020  0.0001  0.0000 </r>
        <r>  0.0235  0.0010  0.0272  0.0009  0.0073  0.0001  0.0033  0.0001  0.0000 </r>
        <r>  0.0133  0.0015  0.0169  0.0016  0.0045  0.0001  0.0018  0.0001  0.0000 </r>
        <r>  0.0229  0.0009  0.0279  0.0010  0.0075  0.0001  0.0032  0.0001  0.0000 </r>
       </set>
       <set comment="band 40">
        <r>  0.1704  0.0000  0.0018  0.0000  0.0003  0.0000  0.0100  0.0000  0.0000 </r>
        <r>  0.0029  0.0000  0.1097  0.0000  0.0179  0.0000  0.0002  0.0000  0.0000 </r>
        <r>  0.0000  0.0000  0.0000  0.0000  0.0000  0.0003  0.0000  0.0000  0.0000 </r>
        <r>  0.0000  0.0000  0.0000  0.0000  0.0000  0.0000  0.0000  0.0003  0.0000 </r>
        <r>  0.0235  0.0010  0.0272  0.0009  0.0073  0.0001  0.0033  0.0001  0.0000 </r>
        <r>  0.0143  0.0016  0.0157  0.0015  0.0042  0.0001  0.0020  0.0001  0.0000 </r>
        <r>  0.0229  0.0009  0.0279  0.0010  0.0075  0.0001  0.0032  0.0001  0.0000 </r>
        <r>  0.0132  0.0015  0.0170  0.0016  0.0046  0.0001  0.0018  0.0001  0.0000 </r>
       </set>
       <set comment="band 41">
        <r>  0.0195  0.0001  0.0412  0.0007  0.0008  0.0016  0.0018  0.0004  0.0000 </r>
        <r>  0.0561  0.0004  0.0140  0.0001  0.0003  0.0004  0.0052  0.0018  0.0000 </r>
        <r>  0.0302  0.0009  0.0049  0.0004  0.0001  0.0010  0.0028  0.0031  0.0000 </r>
        <r>  0.0068  0.0004  0.0225  0.0012  0.0005  0.0030  0.0006  0.0010  0.0000 </r>
        <r>  0.0001  0.0290  0.0133  0.0019  0.0008  0.0012  0.0003  0.0200  0.0000 </r>
        <r>  0.0013  0.0016  0.0070  0.0031  0.0004  0.0023  0.0057  0.0011  0.0000 </r>
        <r>  0.0002  0.0020  0.0060  0.0280  0.0003  0.0195  0.0007  0.0013  0.0000 </r>
        <r>  0.0001  0.0036  0.1102  0.0016  0.0063  0.0011  0.0004  0.0025  0.0000 </r>
       </set>
       <set comment="band 42">
        <r>  0.0630  0.0002  0.0067  0.0006  0.0001  0.0020  0.0057  0.0002  0.0000 </r>
        <r>  0.0090  0.0005  0.0478  0.0001  0.0010  0.0003  0.0008  0.0021  0.0000 </r>
        <r>  0.0350  0.0001  0.0033  0.0012  0.0001  0.0035  0.0031  0.0005  0.0000 </r>
        <r>  0.0048  0.0008  0.0268  0.0002  0.0006  0.0005  0.0005  0.0038  0.0000 </r>
        <r>  0.0001  0.0004  0.0833  0.0085  0.0047  0.0065  0.0009  0.0003  0.0000 </r>
        <r>  0.0000  0.0046  0.0374  0.0203  0.0021  0.0150  0.0001  0.0029  0.0000 </r>
        <r>  0.0012  0.0095  0.0154  0.0004  0.0009  0.0003  0.0040  0.0070  0.0000 </r>
        <r>  0.0006  0.0201  0.0019  0.0040  0.0001  0.0026  0.0018  0.0149  0.0000 </r>
       </set>
       <set comment="band 43">
        <r>  0.0062  0.0009  0.0350  0.0010  0.0009  0.0017  0.0005  0.0014  0.0000 </r>
        <r>  0.0430  0.0001  0.0055  0.0002  0.0002  0.0018  0.0037  0.0025  0.0000 </r>
        <r>  0.0319  0.0002  0.0214  0.0000  0.0004  0.0005  0.0027  0.0031  0.0000 </r>
        <r>  0.0291  0.0002  0.0259  0.0009  0.0007  0.0025  0.0027  0.0005  0.0000 </r>
        <r>  0.0009  0.0022  0.0186  0.0190  0.0010  0.0141  0.0009  0.0019  0.0000 </r>
        <r>  0.0002  0.0062  0.0821  0.0043  0.0047  0.0036  0.0005  0.0057  0.0000 </r>
        <r>  0.0004  0.0216  0.0280  0.0026  0.0016  0.0021  0.0007  0.0154  0.0000 </r>
        <r>  0.0011  0.0034  0.0112  0.0039  0.0006  0.0043  0.0040  0.0031  0.0000 </r>
       </set>
       <set comment="band 44">
        <r>  0.0196  0.0012  0.0016  0.0027  0.0000  0.0025  0.0018  0.0055  0.0002 </r>
        <r>  0.0030  0.0027  0.0150  0.0196  0.0003  0.0004  0.0003  0.0003  0.0001 </r>
        <r>  0.0114  0.0026  0.0358  0.0071  0.0002  0.0005  0.0008  0.0006  0.0001 </r>
        <r>  0.0640  0.0053  0.0118  0.0047  0.0005  0.0003  0.0070  0.0030  0.0002 </r>
        <r>  0.0004  0.0205  0.0207  0.0024  0.0012  0.0005  0.0045  0.0069  0.0001 </r>
        <r>  0.0003  0.0270  0.0074  0.0033  0.0004  0.0029  0.0011  0.0153  0.0025 </r>
        <r>  0.0005  0.0091  0.0731  0.0001  0.0042  0.0003  0.0008  0.0031  0.0002 </r>
        <r>  0.0003  0.0064  0.0103  0.0177  0.0006  0.0112  0.0010  0.0048  0.0006 </r>
       </set>
       <set comment="band 45">
        <r>  0.0000  0.0162  0.0000  0.0225  0.0000  0.0025  0.0000  0.0018  0.0032 </r>
        <r>  0.0000  0.0205  0.0001  0.0177  0.0000  0.0018  0.0000  0.0020  0.0003 </r>
        <r>  0.0000  0.0102  0.0000  0.1034  0.0000  0.0114  0.0000  0.0010  0.0007 </r>
        <r>  0.0001  0.0904  0.0001  0.0109  0.0000  0.0013  0.0000  0.0092  0.0006 </r>
        <r>  0.0002  0.0106  0.0000  0.0109  0.0000  0.0038  0.0001  0.0031  0.0114 </r>
        <r>  0.0000  0.0290  0.0000  0.0106  0.0000  0.0036  0.0000  0.0076  0.0047 </r>
        <r>  0.0000  0.0133  0.0000  0.0097  0.0000  0.0035  0.0000  0.0040  0.0047 </r>
        <r>  0.0000  0.0098  0.0000  0.0206  0.0000  0.0083  0.0000  0.0030  0.0056 </r>
       </set>
       <set comment="band 46">
        <r>  0.0000  0.0168  0.0001  0.0321  0.0000  0.0038  0.0000  0.0017  0.0002 </r>
        <r>  0.0000  0.0260  0.0001  0.0171  0.0000  0.0019  0.0000  0.0025  0.0031 </r>
        <r>  0.0000  0.0970  0.0001  0.0068  0.0000  0.0008  0.0000  0.0104  0.0010 </r>
        <r>  0.0000  0.0038  0.0002  0.0917  0.0001  0.0096  0.0000  0.0003  0.0006 </r>
        <r>  0.0001  0.0051  0.0001  0.0184  0.0000  0.0066  0.0000  0.0021  0.0010 </r>
        <r>  0.0001  0.0024  0.0001  0.0287  0.0000  0.0098  0.0000  0.0006  0.0029 </r>
        <r>  0.0002  0.0207  0.0000  0.0075  0.0000  0.0019  0.0000  0.0060  0.0135 </r>
        <r>  0.0002  0.0297  0.0000  0.0018  0.0000  0.0007  0.0000  0.0090  0.0090 </r>
       </set>
       <set comment="band 47">
        <r>  0.0002  0.0949  0.0009  0.0488  0.0002  0.0058  0.0000  0.0097  0.0000 </r>
        <r>  0.0001  0.0500  0.0005  0.0698  0.0000  0.0077  0.0000  0.0047  0.0003 </r>
        <r>  0.0002  0.0070  0.0002  0.0006  0.0002  0.0001  0.0000  0.0004  0.0016 </r>
        <r>  0.0006  0.0002  0.0003  0.0145  0.0000  0.0021  0.0002  0.0000  0.0027 </r>
        <r>  0.0000  0.0022  0.0004  0.0085  0.0000  0.0034  0.0001  0.0015  0.0135 </r>
        <r>  0.0003  0.0239  0.0001  0.0173  0.0000  0.0039  0.0001  0.0069  0.0021 </r>
        <r>  0.0009  0.0111  0.0011  0.0077  0.0001  0.0015  0.0002  0.0027  0.0057 </r>
        <r>  0.0005  0.0087  0.0001  0.0349  0.0000  0.0123  0.0001  0.0042  0.0043 </r>
       </set>
       <set comment="band 48">
        <r>  0.0020  0.0366  0.0022  0.0257  0.0010  0.0016  0.0002  0.0024  0.0011 </r>
        <r>  0.0007  0.0538  0.0013  0.0076  0.0000  0.0018  0.0005  0.0087  0.0008 </r>
        <r>  0.0004  0.0267  0.0009  0.0320  0.0003  0.0046  0.0001  0.0028  0.0012 </r>
        <r>  0.0080  0.0352  0.0064  0.0264  0.0014  0.0035  0.0016  0.0027  0.0006 </r>
        <r>  0.0005  0.0095  0.0033  0.0149  0.0002  0.0066  0.0010  0.0087  0.0001 </r>
        <r>  0.0052  0.0051  0.0017  0.0082  0.0001  0.0013  0.0016  0.0010  0.0127 </r>
        <r>  0.0015  0.0157  0.0054  0.0574  0.0003  0.0093  0.0002  0.0022  0.0019 </r>
        <r>  0.0025  0.0015  0.0010  0.0038  0.0000  0.0011  0.0007  0.0025  0.0060 </r>
       </set>
      </set>
     </set>
    </set>
   </array>
  </projected>
 </calculation>
 <structure name="finalpos" >
  <crystal>
   <varray name="basis" >
    <v>       5.66247787       0.00000000       0.00000000 </v>
    <v>      -0.00000000       5.66247787       0.00000000 </v>
    <v>       0.00000000       0.00000000       5.66247787 </v>
   </varray>
   <i name="volume">    181.55974043 </i>
   <varray name="rec_basis" >
    <v>       0.17660113       0.00000000       0.00000000 </v>
    <v>       0.00000000       0.17660113       0.00000000 </v>
    <v>      -0.00000000      -0.00000000       0.17660113 </v>
   </varray>
  </crystal>
  <varray name="positions" >
   <v>       0.00000000       0.00000000       0.00000000 </v>
   <v>       0.50000000       0.50000000       0.00000000 </v>
   <v>       0.50000000       0.00000000       0.50000000 </v>
   <v>       0.00000000       0.50000000       0.50000000 </v>
   <v>       0.25000000       0.25000000       0.25000000 </v>
   <v>       0.25000000       0.75000000       0.75000000 </v>
   <v>       0.75000000       0.75000000       0.25000000 </v>
   <v>       0.75000000       0.25000000       0.75000000 </v>
  </varray>
 </structure>
</modeling>
