 vasp.6.4.2 20Jul23 (build Mar 15 2024 16:31:38) complex                        
  
 executed on             LinuxIFC date 2025.03.27  17:15:25
 running  120 mpi-ranks, on    3 nodes
 distrk:  each k-point on  120 cores,    1 groups
 distr:  one band on NCORE=  10 cores,   12 groups


--------------------------------------------------------------------------------------------------------


 INCAR:
   ALGO = Normal
   EDIFF = 1e-05
   ENAUG = 1360
   ENCUT = 680
   GGA = Pe
   HFSCREEN = 0.2
   ISMEAR = -5
   ISPIN = 1
   LAECHG = True
   LASPH = True
   LCHARG = False
   LDAU = False
   LELF = False
   LHFCALC = True
   LMIXTAU = True
   LORBIT = 11
   LREAL = False
   LVTOT = True
   LWAVE = True
   NBANDS = 15
   NCORE = 10
   NEDOS = 1455
   NELM = 200
   NELMIN = 5
   NSW = 0
   PREC = Accurate
   PRECFOCK = Fast
   SIGMA = 0.05

 POTCAR:    PAW_PBE Si 05Jan2001                  
 WARNING: For LVTOT=.TRUE., VASP.5.x writes the TOTAL local potential to the
     file LOCPOT. If you want only the Hartree contributions, use LVHAR=.TRUE.
     instead. 

 POTCAR:    PAW_PBE Si 05Jan2001                  
   VRHFIN =Si: s2p2                                                                                 
   LEXCH  = PE                                                                                      
   EATOM  =   103.0669 eV,    7.5752 Ry                                                             
                                                                                                    
   TITEL  = PAW_PBE Si 05Jan2001                                                                    
   LULTRA =        F    use ultrasoft PP ?                                                          
   IUNSCR =        1    unscreen: 0-lin 1-nonlin 2-no                                               
   RPACOR =    1.500    partial core radius                                                         
   POMASS =   28.085; ZVAL   =    4.000    mass and valenz                                          
   RCORE  =    1.900    outmost cutoff radius                                                       
   RWIGS  =    2.480; RWIGS  =    1.312    wigner-seitz radius (au A)                               
   ENMAX  =  245.345; ENMIN  =  184.009 eV                                                          
   ICORE  =        2    local potential                                                             
   LCOR   =        T    correct aug charges                                                         
   LPAW   =        T    paw PP                                                                      
   EAUG   =  322.069                                                                                
   DEXC   =    0.000                                                                                
   RMAX   =    1.950    core radius for proj-oper                                                   
   RAUG   =    1.300    factor for augmentation sphere                                              
   RDEP   =    1.993    radius for radial grids                                                     
   RDEPT  =    1.837    core radius for aug-charge                                                  
                                                                                                    
   Atomic configuration                                                                             
    6 entries                                                                                       
     n  l   j            E        occ.                                                              
     1  0  0.50     -1785.8828   2.0000                                                             
     2  0  0.50      -139.4969   2.0000                                                             
     2  1  1.50       -95.5546   6.0000                                                             
     3  0  0.50       -10.8127   2.0000                                                             
     3  1  0.50        -4.0811   2.0000                                                             
     3  2  1.50        -4.0817   0.0000                                                             
   Description                                                                                      
     l       E           TYP  RCUT    TYP  RCUT                                                     
     0    -10.8127223     23  1.900                                                                 
     0     -7.6451159     23  1.900                                                                 
     1     -4.0811372     23  1.900                                                                 
     1      2.4879257     23  1.900                                                                 
     2     -4.0817478      7  1.900                                                                 
  local pseudopotential read in
  partial core-charges read in
  partial kinetic energy density read in
  atomic valenz-charges read in
  non local Contribution for L=           0  read in
    real space projection operators read in
  non local Contribution for L=           0  read in
    real space projection operators read in
  non local Contribution for L=           1  read in
    real space projection operators read in
  non local Contribution for L=           1  read in
    real space projection operators read in
    PAW grid and wavefunctions read in
 
   number of l-projection  operators is LMAX  =           4
   number of lm-projection operators is LMMAX =           8
 
  PAW_PBE Si 05Jan2001                  :
 energy of atom  1       EATOM= -103.0669
 kinetic energy error for atom=    0.0003 (will be added to EATOM!!)
 
 
 POSCAR: Si2
  positions in direct lattice
  No initial velocities read in
 exchange correlation table for  LEXCH =        8
   RHO(1)=    0.500       N(1)  =     2000
   RHO(2)=  100.500       N(2)  =     4000
 


--------------------------------------------------------------------------------------------------------


 ion  position               nearest neighbor table
   1  0.875  0.875  0.875-   2 2.36   2 2.36   2 2.36   2 2.36
   2  0.125  0.125  0.125-   1 2.36   1 2.36   1 2.36   1 2.36
 
  LATTYP: Found a face centered cubic cell.
 ALAT       =     5.4437031470
  
  Lattice vectors:
  
 A1 = (   3.3335729972,   0.0000000000,   1.9246389981)
 A2 = (   1.1111909993,   3.1429239987,   1.9246389993)
 A3 = (   0.0000000000,   0.0000000000,   3.8492780000)


Analysis of symmetry for initial positions (statically):
=====================================================================
 Subroutine PRICEL returns:
 Original cell was already a primitive cell.
 

 Routine SETGRP: Setting up the symmetry group for a 
 face centered cubic supercell.


 Subroutine GETGRP returns: Found 48 space group operations
 (whereof 12 operations were pure point group operations)
 out of a pool of 48 trial point group operations.


The static configuration has the point symmetry D_3d.
 The point group associated with its full space group is O_h .


Analysis of symmetry for dynamics (positions and initial velocities):
=====================================================================
 Subroutine PRICEL returns:
 Original cell was already a primitive cell.
 

 Routine SETGRP: Setting up the symmetry group for a 
 face centered cubic supercell.


 Subroutine GETGRP returns: Found 48 space group operations
 (whereof 12 operations were pure point group operations)
 out of a pool of 48 trial point group operations.


The dynamic configuration has the point symmetry D_3d.
 The point group associated with its full space group is O_h .


 Subroutine INISYM returns: Found 48 space group operations
 (whereof 12 operations are pure point group operations),
 and found     1 'primitive' translations


----------------------------------------------------------------------------------------

                                     Primitive cell                                     

  volume of cell :      40.3295

  direct lattice vectors                    reciprocal lattice vectors
     3.333572997  0.000000000  1.924638998     0.299978432 -0.106058350  0.000000000
     1.111190999  3.142923999  1.924638999     0.000000000  0.318175050  0.000000000
     0.000000000  0.000000000  3.849278000    -0.149989216 -0.106058350  0.259788979

  length of vectors
     3.849278400  3.849279410  3.849278000     0.318175161  0.318175050  0.318175190

  position of ions in fractional coordinates (direct lattice)
     0.875000000  0.875000000  0.875000000
     0.125000000  0.125000000  0.125000000

  ion indices of the primitive-cell ions
   primitive index   ion index
                 1           1
                 2           2

----------------------------------------------------------------------------------------

 
 
 KPOINTS: pymatgen with grid density = 787 / numbe

Automatic generation of k-mesh.
 Grid dimensions read from file:
 generate k-points for:    7    7    7

 Generating k-lattice:

  Cartesian coordinates                     Fractional coordinates (reciprocal lattice)
     0.042854062 -0.015151193  0.000000000     0.142857143  0.000000000  0.000000000
     0.000000000  0.045453579  0.000000000     0.000000000  0.142857143  0.000000000
    -0.021427031 -0.015151193  0.037112711     0.000000000  0.000000000  0.142857143

  Length of vectors
     0.045453594  0.045453579  0.045453599

  Shift w.r.t. Gamma in fractional coordinates (k-lattice)
     0.000000000  0.000000000  0.000000000

 TETIRR: Found     58 inequivalent tetrahedra from     2058
 
 Subroutine IBZKPT returns following result:
 ===========================================
 
 Found     20 irreducible k-points:
 
 Following reciprocal coordinates:
            Coordinates               Weight
  0.000000  0.000000  0.000000      1.000000
  0.142857 -0.000000  0.000000      8.000000
  0.285714 -0.000000  0.000000      8.000000
  0.428571 -0.000000  0.000000      8.000000
  0.142857  0.142857  0.000000      6.000000
  0.285714  0.142857  0.000000     24.000000
  0.428571  0.142857  0.000000     24.000000
 -0.428571  0.142857  0.000000     24.000000
 -0.285714  0.142857  0.000000     24.000000
 -0.142857  0.142857  0.000000     12.000000
  0.285714  0.285714  0.000000      6.000000
  0.428571  0.285714  0.000000     24.000000
 -0.428571  0.285714  0.000000     24.000000
 -0.285714  0.285714  0.000000     12.000000
  0.428571  0.428571  0.000000      6.000000
 -0.428571  0.428571  0.000000     12.000000
  0.428571  0.285714  0.142857     24.000000
 -0.428571  0.285714  0.142857     48.000000
 -0.428571  0.428571  0.142857     24.000000
 -0.285714  0.428571  0.142857     24.000000
 
 Following cartesian coordinates:
            Coordinates               Weight
  0.000000  0.000000  0.000000      1.000000
  0.042854 -0.015151  0.000000      8.000000
  0.085708 -0.030302  0.000000      8.000000
  0.128562 -0.045454  0.000000      8.000000
  0.042854  0.030302  0.000000      6.000000
  0.085708  0.015151  0.000000     24.000000
  0.128562 -0.000000  0.000000     24.000000
 -0.128562  0.090907  0.000000     24.000000
 -0.085708  0.075756  0.000000     24.000000
 -0.042854  0.060605  0.000000     12.000000
  0.085708  0.060605  0.000000      6.000000
  0.128562  0.045454  0.000000     24.000000
 -0.128562  0.136361  0.000000     24.000000
 -0.085708  0.121210  0.000000     12.000000
  0.128562  0.090907  0.000000      6.000000
 -0.128562  0.181814  0.000000     12.000000
  0.107135  0.030302  0.037113     24.000000
 -0.149989  0.121210  0.037113     48.000000
 -0.149989  0.166663  0.037113     24.000000
 -0.107135  0.151512  0.037113     24.000000
 
 
 Subroutine IBZKPT_HF returns following result:
 ==============================================
 
 Found    343 k-points in 1st BZ
 the following    343 k-points will be used (e.g. in the exchange kernel)
 Following reciprocal coordinates:   # in IRBZ
  0.000000  0.000000  0.000000    0.00291545   1 t-inv F
  0.142857 -0.000000  0.000000    0.00291545   2 t-inv F
  0.285714 -0.000000  0.000000    0.00291545   3 t-inv F
  0.428571 -0.000000  0.000000    0.00291545   4 t-inv F
  0.142857  0.142857  0.000000    0.00291545   5 t-inv F
  0.285714  0.142857  0.000000    0.00291545   6 t-inv F
  0.428571  0.142857  0.000000    0.00291545   7 t-inv F
 -0.428571  0.142857  0.000000    0.00291545   8 t-inv F
 -0.285714  0.142857  0.000000    0.00291545   9 t-inv F
 -0.142857  0.142857  0.000000    0.00291545  10 t-inv F
  0.285714  0.285714  0.000000    0.00291545  11 t-inv F
  0.428571  0.285714  0.000000    0.00291545  12 t-inv F
 -0.428571  0.285714  0.000000    0.00291545  13 t-inv F
 -0.285714  0.285714  0.000000    0.00291545  14 t-inv F
  0.428571  0.428571  0.000000    0.00291545  15 t-inv F
 -0.428571  0.428571  0.000000    0.00291545  16 t-inv F
  0.428571  0.285714  0.142857    0.00291545  17 t-inv F
 -0.428571  0.285714  0.142857    0.00291545  18 t-inv F
 -0.428571  0.428571  0.142857    0.00291545  19 t-inv F
 -0.285714  0.428571  0.142857    0.00291545  20 t-inv F
 -0.142857  0.000000  0.000000    0.00291545   2 t-inv F
  0.000000  0.142857 -0.000000    0.00291545   2 t-inv F
  0.000000 -0.142857  0.000000    0.00291545   2 t-inv F
 -0.000000  0.000000  0.142857    0.00291545   2 t-inv F
  0.000000  0.000000 -0.142857    0.00291545   2 t-inv F
  0.142857  0.142857  0.142857    0.00291545   2 t-inv F
 -0.142857 -0.142857 -0.142857    0.00291545   2 t-inv F
 -0.285714  0.000000  0.000000    0.00291545   3 t-inv F
  0.000000  0.285714 -0.000000    0.00291545   3 t-inv F
  0.000000 -0.285714  0.000000    0.00291545   3 t-inv F
 -0.000000  0.000000  0.285714    0.00291545   3 t-inv F
  0.000000  0.000000 -0.285714    0.00291545   3 t-inv F
  0.285714  0.285714  0.285714    0.00291545   3 t-inv F
 -0.285714 -0.285714 -0.285714    0.00291545   3 t-inv F
 -0.428571  0.000000  0.000000    0.00291545   4 t-inv F
  0.000000  0.428571 -0.000000    0.00291545   4 t-inv F
  0.000000 -0.428571  0.000000    0.00291545   4 t-inv F
 -0.000000  0.000000  0.428571    0.00291545   4 t-inv F
  0.000000  0.000000 -0.428571    0.00291545   4 t-inv F
  0.428571  0.428571  0.428571    0.00291545   4 t-inv F
 -0.428571 -0.428571 -0.428571    0.00291545   4 t-inv F
 -0.142857 -0.142857  0.000000    0.00291545   5 t-inv F
  0.000000  0.142857  0.142857    0.00291545   5 t-inv F
  0.000000 -0.142857 -0.142857    0.00291545   5 t-inv F
  0.142857  0.000000  0.142857    0.00291545   5 t-inv F
 -0.142857  0.000000 -0.142857    0.00291545   5 t-inv F
 -0.285714 -0.142857  0.000000    0.00291545   6 t-inv F
  0.000000  0.285714  0.142857    0.00291545   6 t-inv F
  0.000000 -0.285714 -0.142857    0.00291545   6 t-inv F
  0.142857  0.000000  0.285714    0.00291545   6 t-inv F
 -0.142857  0.000000 -0.285714    0.00291545   6 t-inv F
 -0.285714  0.000000 -0.142857    0.00291545   6 t-inv F
  0.285714  0.000000  0.142857    0.00291545   6 t-inv F
 -0.142857 -0.285714  0.000000    0.00291545   6 t-inv F
  0.142857  0.285714  0.000000    0.00291545   6 t-inv F
  0.000000 -0.142857 -0.285714    0.00291545   6 t-inv F
  0.000000  0.142857  0.285714    0.00291545   6 t-inv F
  0.142857  0.142857 -0.142857    0.00291545   6 t-inv F
 -0.142857 -0.142857  0.142857    0.00291545   6 t-inv F
  0.285714  0.142857  0.285714    0.00291545   6 t-inv F
 -0.285714 -0.142857 -0.285714    0.00291545   6 t-inv F
  0.142857 -0.142857 -0.142857    0.00291545   6 t-inv F
 -0.142857  0.142857  0.142857    0.00291545   6 t-inv F
  0.285714  0.285714  0.142857    0.00291545   6 t-inv F
 -0.285714 -0.285714 -0.142857    0.00291545   6 t-inv F
 -0.142857  0.142857 -0.142857    0.00291545   6 t-inv F
  0.142857 -0.142857  0.142857    0.00291545   6 t-inv F
  0.142857  0.285714  0.285714    0.00291545   6 t-inv F
 -0.142857 -0.285714 -0.285714    0.00291545   6 t-inv F
 -0.428571 -0.142857  0.000000    0.00291545   7 t-inv F
  0.000000  0.428571  0.142857    0.00291545   7 t-inv F
  0.000000 -0.428571 -0.142857    0.00291545   7 t-inv F
  0.142857  0.000000  0.428571    0.00291545   7 t-inv F
 -0.142857  0.000000 -0.428571    0.00291545   7 t-inv F
 -0.428571  0.000000 -0.142857    0.00291545   7 t-inv F
  0.428571  0.000000  0.142857    0.00291545   7 t-inv F
 -0.142857 -0.428571  0.000000    0.00291545   7 t-inv F
  0.142857  0.428571  0.000000    0.00291545   7 t-inv F
  0.000000 -0.142857 -0.428571    0.00291545   7 t-inv F
  0.000000  0.142857  0.428571    0.00291545   7 t-inv F
  0.142857  0.142857 -0.285714    0.00291545   7 t-inv F
 -0.142857 -0.142857  0.285714    0.00291545   7 t-inv F
  0.428571  0.285714  0.428571    0.00291545   7 t-inv F
 -0.428571 -0.285714 -0.428571    0.00291545   7 t-inv F
  0.285714 -0.142857 -0.142857    0.00291545   7 t-inv F
 -0.285714  0.142857  0.142857    0.00291545   7 t-inv F
  0.428571  0.428571  0.285714    0.00291545   7 t-inv F
 -0.428571 -0.428571 -0.285714    0.00291545   7 t-inv F
 -0.142857  0.285714 -0.142857    0.00291545   7 t-inv F
  0.142857 -0.285714  0.142857    0.00291545   7 t-inv F
  0.285714  0.428571  0.428571    0.00291545   7 t-inv F
 -0.285714 -0.428571 -0.428571    0.00291545   7 t-inv F
  0.428571 -0.142857  0.000000    0.00291545   8 t-inv F
  0.000000 -0.428571  0.142857    0.00291545   8 t-inv F
  0.000000  0.428571 -0.142857    0.00291545   8 t-inv F
  0.142857  0.000000 -0.428571    0.00291545   8 t-inv F
 -0.142857  0.000000  0.428571    0.00291545   8 t-inv F
  0.428571  0.000000 -0.142857    0.00291545   8 t-inv F
 -0.428571  0.000000  0.142857    0.00291545   8 t-inv F
 -0.142857  0.428571  0.000000    0.00291545   8 t-inv F
  0.142857 -0.428571  0.000000    0.00291545   8 t-inv F
  0.000000 -0.142857  0.428571    0.00291545   8 t-inv F
  0.000000  0.142857 -0.428571    0.00291545   8 t-inv F
  0.142857  0.142857  0.571429    0.00291545   8 t-inv F
 -0.142857 -0.142857 -0.571429    0.00291545   8 t-inv F
 -0.428571 -0.571429 -0.428571    0.00291545   8 t-inv F
  0.428571  0.571429  0.428571    0.00291545   8 t-inv F
 -0.571429 -0.142857 -0.142857    0.00291545   8 t-inv F
  0.571429  0.142857  0.142857    0.00291545   8 t-inv F
 -0.428571 -0.428571 -0.571429    0.00291545   8 t-inv F
  0.428571  0.428571  0.571429    0.00291545   8 t-inv F
 -0.142857 -0.571429 -0.142857    0.00291545   8 t-inv F
  0.142857  0.571429  0.142857    0.00291545   8 t-inv F
 -0.571429 -0.428571 -0.428571    0.00291545   8 t-inv F
  0.571429  0.428571  0.428571    0.00291545   8 t-inv F
  0.285714 -0.142857  0.000000    0.00291545   9 t-inv F
  0.000000 -0.285714  0.142857    0.00291545   9 t-inv F
  0.000000  0.285714 -0.142857    0.00291545   9 t-inv F
  0.142857  0.000000 -0.285714    0.00291545   9 t-inv F
 -0.142857  0.000000  0.285714    0.00291545   9 t-inv F
  0.285714  0.000000 -0.142857    0.00291545   9 t-inv F
 -0.285714  0.000000  0.142857    0.00291545   9 t-inv F
 -0.142857  0.285714  0.000000    0.00291545   9 t-inv F
  0.142857 -0.285714  0.000000    0.00291545   9 t-inv F
  0.000000 -0.142857  0.285714    0.00291545   9 t-inv F
  0.000000  0.142857 -0.285714    0.00291545   9 t-inv F
  0.142857  0.142857  0.428571    0.00291545   9 t-inv F
 -0.142857 -0.142857 -0.428571    0.00291545   9 t-inv F
 -0.285714 -0.428571 -0.285714    0.00291545   9 t-inv F
  0.285714  0.428571  0.285714    0.00291545   9 t-inv F
 -0.428571 -0.142857 -0.142857    0.00291545   9 t-inv F
  0.428571  0.142857  0.142857    0.00291545   9 t-inv F
 -0.285714 -0.285714 -0.428571    0.00291545   9 t-inv F
  0.285714  0.285714  0.428571    0.00291545   9 t-inv F
 -0.142857 -0.428571 -0.142857    0.00291545   9 t-inv F
  0.142857  0.428571  0.142857    0.00291545   9 t-inv F
 -0.428571 -0.285714 -0.285714    0.00291545   9 t-inv F
  0.428571  0.285714  0.285714    0.00291545   9 t-inv F
  0.142857 -0.142857  0.000000    0.00291545  10 t-inv F
  0.000000 -0.142857  0.142857    0.00291545  10 t-inv F
  0.000000  0.142857 -0.142857    0.00291545  10 t-inv F
  0.142857  0.000000 -0.142857    0.00291545  10 t-inv F
 -0.142857  0.000000  0.142857    0.00291545  10 t-inv F
  0.142857  0.142857  0.285714    0.00291545  10 t-inv F
 -0.142857 -0.142857 -0.285714    0.00291545  10 t-inv F
 -0.142857 -0.285714 -0.142857    0.00291545  10 t-inv F
  0.142857  0.285714  0.142857    0.00291545  10 t-inv F
 -0.285714 -0.142857 -0.142857    0.00291545  10 t-inv F
  0.285714  0.142857  0.142857    0.00291545  10 t-inv F
 -0.285714 -0.285714  0.000000    0.00291545  11 t-inv F
  0.000000  0.285714  0.285714    0.00291545  11 t-inv F
  0.000000 -0.285714 -0.285714    0.00291545  11 t-inv F
  0.285714  0.000000  0.285714    0.00291545  11 t-inv F
 -0.285714  0.000000 -0.285714    0.00291545  11 t-inv F
 -0.428571 -0.285714  0.000000    0.00291545  12 t-inv F
  0.000000  0.428571  0.285714    0.00291545  12 t-inv F
  0.000000 -0.428571 -0.285714    0.00291545  12 t-inv F
  0.285714  0.000000  0.428571    0.00291545  12 t-inv F
 -0.285714  0.000000 -0.428571    0.00291545  12 t-inv F
 -0.428571  0.000000 -0.285714    0.00291545  12 t-inv F
  0.428571  0.000000  0.285714    0.00291545  12 t-inv F
 -0.285714 -0.428571  0.000000    0.00291545  12 t-inv F
  0.285714  0.428571  0.000000    0.00291545  12 t-inv F
  0.000000 -0.285714 -0.428571    0.00291545  12 t-inv F
  0.000000  0.285714  0.428571    0.00291545  12 t-inv F
  0.285714  0.285714 -0.142857    0.00291545  12 t-inv F
 -0.285714 -0.285714  0.142857    0.00291545  12 t-inv F
  0.428571  0.142857  0.428571    0.00291545  12 t-inv F
 -0.428571 -0.142857 -0.428571    0.00291545  12 t-inv F
  0.142857 -0.285714 -0.285714    0.00291545  12 t-inv F
 -0.142857  0.285714  0.285714    0.00291545  12 t-inv F
  0.428571  0.428571  0.142857    0.00291545  12 t-inv F
 -0.428571 -0.428571 -0.142857    0.00291545  12 t-inv F
 -0.285714  0.142857 -0.285714    0.00291545  12 t-inv F
  0.285714 -0.142857  0.285714    0.00291545  12 t-inv F
  0.142857  0.428571  0.428571    0.00291545  12 t-inv F
 -0.142857 -0.428571 -0.428571    0.00291545  12 t-inv F
  0.428571 -0.285714  0.000000    0.00291545  13 t-inv F
  0.000000 -0.428571  0.285714    0.00291545  13 t-inv F
  0.000000  0.428571 -0.285714    0.00291545  13 t-inv F
  0.285714  0.000000 -0.428571    0.00291545  13 t-inv F
 -0.285714  0.000000  0.428571    0.00291545  13 t-inv F
  0.428571  0.000000 -0.285714    0.00291545  13 t-inv F
 -0.428571  0.000000  0.285714    0.00291545  13 t-inv F
 -0.285714  0.428571  0.000000    0.00291545  13 t-inv F
  0.285714 -0.428571  0.000000    0.00291545  13 t-inv F
  0.000000 -0.285714  0.428571    0.00291545  13 t-inv F
  0.000000  0.285714 -0.428571    0.00291545  13 t-inv F
  0.285714  0.285714  0.714286    0.00291545  13 t-inv F
 -0.285714 -0.285714 -0.714286    0.00291545  13 t-inv F
 -0.428571 -0.714286 -0.428571    0.00291545  13 t-inv F
  0.428571  0.714286  0.428571    0.00291545  13 t-inv F
 -0.714286 -0.285714 -0.285714    0.00291545  13 t-inv F
  0.714286  0.285714  0.285714    0.00291545  13 t-inv F
 -0.428571 -0.428571 -0.714286    0.00291545  13 t-inv F
  0.428571  0.428571  0.714286    0.00291545  13 t-inv F
 -0.285714 -0.714286 -0.285714    0.00291545  13 t-inv F
  0.285714  0.714286  0.285714    0.00291545  13 t-inv F
 -0.714286 -0.428571 -0.428571    0.00291545  13 t-inv F
  0.714286  0.428571  0.428571    0.00291545  13 t-inv F
  0.285714 -0.285714  0.000000    0.00291545  14 t-inv F
  0.000000 -0.285714  0.285714    0.00291545  14 t-inv F
  0.000000  0.285714 -0.285714    0.00291545  14 t-inv F
  0.285714  0.000000 -0.285714    0.00291545  14 t-inv F
 -0.285714  0.000000  0.285714    0.00291545  14 t-inv F
  0.285714  0.285714  0.571429    0.00291545  14 t-inv F
 -0.285714 -0.285714 -0.571429    0.00291545  14 t-inv F
 -0.285714 -0.571429 -0.285714    0.00291545  14 t-inv F
  0.285714  0.571429  0.285714    0.00291545  14 t-inv F
 -0.571429 -0.285714 -0.285714    0.00291545  14 t-inv F
  0.571429  0.285714  0.285714    0.00291545  14 t-inv F
 -0.428571 -0.428571  0.000000    0.00291545  15 t-inv F
  0.000000  0.428571  0.428571    0.00291545  15 t-inv F
  0.000000 -0.428571 -0.428571    0.00291545  15 t-inv F
  0.428571  0.000000  0.428571    0.00291545  15 t-inv F
 -0.428571  0.000000 -0.428571    0.00291545  15 t-inv F
  0.428571 -0.428571  0.000000    0.00291545  16 t-inv F
  0.000000 -0.428571  0.428571    0.00291545  16 t-inv F
  0.000000  0.428571 -0.428571    0.00291545  16 t-inv F
  0.428571  0.000000 -0.428571    0.00291545  16 t-inv F
 -0.428571  0.000000  0.428571    0.00291545  16 t-inv F
  0.428571  0.428571  0.857143    0.00291545  16 t-inv F
 -0.428571 -0.428571 -0.857143    0.00291545  16 t-inv F
 -0.428571 -0.857143 -0.428571    0.00291545  16 t-inv F
  0.428571  0.857143  0.428571    0.00291545  16 t-inv F
 -0.857143 -0.428571 -0.428571    0.00291545  16 t-inv F
  0.857143  0.428571  0.428571    0.00291545  16 t-inv F
 -0.428571 -0.285714 -0.142857    0.00291545  17 t-inv F
  0.142857  0.428571  0.285714    0.00291545  17 t-inv F
 -0.142857 -0.428571 -0.285714    0.00291545  17 t-inv F
  0.285714  0.142857  0.428571    0.00291545  17 t-inv F
 -0.285714 -0.142857 -0.428571    0.00291545  17 t-inv F
 -0.428571 -0.142857 -0.285714    0.00291545  17 t-inv F
  0.428571  0.142857  0.285714    0.00291545  17 t-inv F
 -0.285714 -0.428571 -0.142857    0.00291545  17 t-inv F
  0.285714  0.428571  0.142857    0.00291545  17 t-inv F
 -0.142857 -0.285714 -0.428571    0.00291545  17 t-inv F
  0.142857  0.285714  0.428571    0.00291545  17 t-inv F
  0.285714  0.142857 -0.142857    0.00291545  17 t-inv F
 -0.285714 -0.142857  0.142857    0.00291545  17 t-inv F
  0.142857 -0.285714 -0.142857    0.00291545  17 t-inv F
 -0.142857  0.285714  0.142857    0.00291545  17 t-inv F
  0.142857  0.285714 -0.142857    0.00291545  17 t-inv F
 -0.142857 -0.285714  0.142857    0.00291545  17 t-inv F
  0.142857 -0.142857 -0.285714    0.00291545  17 t-inv F
 -0.142857  0.142857  0.285714    0.00291545  17 t-inv F
 -0.142857  0.142857 -0.285714    0.00291545  17 t-inv F
  0.142857 -0.142857  0.285714    0.00291545  17 t-inv F
 -0.285714  0.142857 -0.142857    0.00291545  17 t-inv F
  0.285714 -0.142857  0.142857    0.00291545  17 t-inv F
  0.428571 -0.285714 -0.142857    0.00291545  18 t-inv F
  0.142857 -0.428571  0.285714    0.00291545  18 t-inv F
 -0.142857  0.428571 -0.285714    0.00291545  18 t-inv F
  0.285714  0.142857 -0.428571    0.00291545  18 t-inv F
 -0.285714 -0.142857  0.428571    0.00291545  18 t-inv F
  0.428571 -0.142857 -0.285714    0.00291545  18 t-inv F
 -0.428571  0.142857  0.285714    0.00291545  18 t-inv F
 -0.285714  0.428571 -0.142857    0.00291545  18 t-inv F
  0.285714 -0.428571  0.142857    0.00291545  18 t-inv F
 -0.142857 -0.285714  0.428571    0.00291545  18 t-inv F
  0.142857  0.285714 -0.428571    0.00291545  18 t-inv F
  0.285714  0.142857  0.714286    0.00291545  18 t-inv F
 -0.285714 -0.142857 -0.714286    0.00291545  18 t-inv F
 -0.428571 -0.714286 -0.571429    0.00291545  18 t-inv F
  0.428571  0.714286  0.571429    0.00291545  18 t-inv F
  0.142857  0.571429 -0.142857    0.00291545  18 t-inv F
 -0.142857 -0.571429  0.142857    0.00291545  18 t-inv F
  0.142857 -0.571429 -0.142857    0.00291545  18 t-inv F
 -0.142857  0.571429  0.142857    0.00291545  18 t-inv F
 -0.714286 -0.142857 -0.285714    0.00291545  18 t-inv F
  0.714286  0.142857  0.285714    0.00291545  18 t-inv F
  0.571429  0.714286  0.428571    0.00291545  18 t-inv F
 -0.571429 -0.714286 -0.428571    0.00291545  18 t-inv F
 -0.571429 -0.428571 -0.714286    0.00291545  18 t-inv F
  0.571429  0.428571  0.714286    0.00291545  18 t-inv F
 -0.142857  0.142857  0.571429    0.00291545  18 t-inv F
  0.142857 -0.142857 -0.571429    0.00291545  18 t-inv F
  0.714286  0.285714  0.142857    0.00291545  18 t-inv F
 -0.714286 -0.285714 -0.142857    0.00291545  18 t-inv F
 -0.142857  0.142857 -0.571429    0.00291545  18 t-inv F
  0.142857 -0.142857  0.571429    0.00291545  18 t-inv F
 -0.285714 -0.714286 -0.142857    0.00291545  18 t-inv F
  0.285714  0.714286  0.142857    0.00291545  18 t-inv F
  0.428571  0.571429  0.714286    0.00291545  18 t-inv F
 -0.428571 -0.571429 -0.714286    0.00291545  18 t-inv F
 -0.714286 -0.571429 -0.428571    0.00291545  18 t-inv F
  0.714286  0.571429  0.428571    0.00291545  18 t-inv F
  0.571429 -0.142857  0.142857    0.00291545  18 t-inv F
 -0.571429  0.142857 -0.142857    0.00291545  18 t-inv F
  0.142857  0.714286  0.285714    0.00291545  18 t-inv F
 -0.142857 -0.714286 -0.285714    0.00291545  18 t-inv F
 -0.571429 -0.142857  0.142857    0.00291545  18 t-inv F
  0.571429  0.142857 -0.142857    0.00291545  18 t-inv F
 -0.142857 -0.285714 -0.714286    0.00291545  18 t-inv F
  0.142857  0.285714  0.714286    0.00291545  18 t-inv F
  0.714286  0.428571  0.571429    0.00291545  18 t-inv F
 -0.714286 -0.428571 -0.571429    0.00291545  18 t-inv F
  0.428571 -0.428571 -0.142857    0.00291545  19 t-inv F
  0.142857 -0.428571  0.428571    0.00291545  19 t-inv F
 -0.142857  0.428571 -0.428571    0.00291545  19 t-inv F
  0.428571  0.142857 -0.428571    0.00291545  19 t-inv F
 -0.428571 -0.142857  0.428571    0.00291545  19 t-inv F
  0.428571 -0.142857 -0.428571    0.00291545  19 t-inv F
 -0.428571  0.142857  0.428571    0.00291545  19 t-inv F
 -0.428571  0.428571 -0.142857    0.00291545  19 t-inv F
  0.428571 -0.428571  0.142857    0.00291545  19 t-inv F
 -0.142857 -0.428571  0.428571    0.00291545  19 t-inv F
  0.142857  0.428571 -0.428571    0.00291545  19 t-inv F
  0.428571  0.285714  0.857143    0.00291545  19 t-inv F
 -0.428571 -0.285714 -0.857143    0.00291545  19 t-inv F
  0.142857  0.571429 -0.285714    0.00291545  19 t-inv F
 -0.142857 -0.571429  0.285714    0.00291545  19 t-inv F
  0.285714 -0.571429 -0.142857    0.00291545  19 t-inv F
 -0.285714  0.571429  0.142857    0.00291545  19 t-inv F
 -0.857143 -0.285714 -0.428571    0.00291545  19 t-inv F
  0.857143  0.285714  0.428571    0.00291545  19 t-inv F
 -0.285714  0.142857  0.571429    0.00291545  19 t-inv F
  0.285714 -0.142857 -0.571429    0.00291545  19 t-inv F
 -0.428571 -0.857143 -0.285714    0.00291545  19 t-inv F
  0.428571  0.857143  0.285714    0.00291545  19 t-inv F
  0.285714 -0.428571 -0.142857    0.00291545  20 t-inv F
  0.142857 -0.285714  0.428571    0.00291545  20 t-inv F
 -0.142857  0.285714 -0.428571    0.00291545  20 t-inv F
  0.428571  0.142857 -0.285714    0.00291545  20 t-inv F
 -0.428571 -0.142857  0.285714    0.00291545  20 t-inv F
  0.285714 -0.142857 -0.428571    0.00291545  20 t-inv F
 -0.285714  0.142857  0.428571    0.00291545  20 t-inv F
 -0.428571  0.285714 -0.142857    0.00291545  20 t-inv F
  0.428571 -0.285714  0.142857    0.00291545  20 t-inv F
 -0.142857 -0.428571  0.285714    0.00291545  20 t-inv F
  0.142857  0.428571 -0.285714    0.00291545  20 t-inv F
  0.428571  0.285714  0.714286    0.00291545  20 t-inv F
 -0.428571 -0.285714 -0.714286    0.00291545  20 t-inv F
 -0.285714 -0.714286 -0.428571    0.00291545  20 t-inv F
  0.285714  0.714286  0.428571    0.00291545  20 t-inv F
 -0.714286 -0.285714 -0.428571    0.00291545  20 t-inv F
  0.714286  0.285714  0.428571    0.00291545  20 t-inv F
  0.428571  0.714286  0.285714    0.00291545  20 t-inv F
 -0.428571 -0.714286 -0.285714    0.00291545  20 t-inv F
  0.714286  0.428571  0.285714    0.00291545  20 t-inv F
 -0.714286 -0.428571 -0.285714    0.00291545  20 t-inv F
  0.285714  0.428571  0.714286    0.00291545  20 t-inv F
 -0.285714 -0.428571 -0.714286    0.00291545  20 t-inv F
 -----------------------------------------------------------------------------
|                                                                             |
|           W    W    AA    RRRRR   N    N  II  N    N   GGGG   !!!           |
|           W    W   A  A   R    R  NN   N  II  NN   N  G    G  !!!           |
|           W    W  A    A  R    R  N N  N  II  N N  N  G       !!!           |
|           W WW W  AAAAAA  RRRRR   N  N N  II  N  N N  G  GGG   !            |
|           WW  WW  A    A  R   R   N   NN  II  N   NN  G    G                |
|           W    W  A    A  R    R  N    N  II  N    N   GGGG   !!!           |
|                                                                             |
|     The number of bands has been changed from the values supplied in        |
|     the INCAR file. This is a result of running the parallel version.       |
|     The orbitals not found in the WAVECAR file will be initialized with     |
|     random numbers, which is usually adequate. For correlated               |
|     calculations, however, you should redo the groundstate calculation.     |
|     I found NBANDS = 15. Now, NBANDS = 24.                                  |
|                                                                             |
 -----------------------------------------------------------------------------



--------------------------------------------------------------------------------------------------------




 Dimension of arrays:
   k-points           NKPTS =     20   k-points in BZ     NKDIM =    343   number of bands    NBANDS=     24
   number of dos      NEDOS =   1455   number of ions     NIONS =      2
   non local maximal  LDIM  =      4   non local SUM 2l+1 LMDIM =      8
   total plane-waves  NPLWV =  46656
   max r-space proj   IRMAX =      1   max aug-charges    IRDMAX=  38875
   dimension x,y,z NGX =    36 NGY =   36 NGZ =   36
   dimension x,y,z NGXF=    72 NGYF=   72 NGZF=   72
   support grid    NGXF=    72 NGYF=   72 NGZF=   72
   ions per type =               2
   NGX,Y,Z   is equivalent  to a cutoff of  15.55, 15.55, 15.55 a.u.
   NGXF,Y,Z  is equivalent  to a cutoff of  31.10, 31.10, 31.10 a.u.

 SYSTEM =  unknown system                          
 POSCAR =  Si2                                     

 Startparameter for this run:
   NWRITE =      2    write-flag & timer
   PREC   = accura    normal or accurate (medium, high low for compatibility)
   ISTART =      0    job   : 0-new  1-cont  2-samecut
   ICHARG =      2    charge: 1-file 2-atom 10-const
   ISPIN  =      1    spin polarized calculation?
   LNONCOLLINEAR =      F non collinear calculations
   LSORBIT =      F    spin-orbit coupling
   INIWAV =      1    electr: 0-lowe 1-rand  2-diag
   LASPH  =      T    aspherical Exc in radial PAW
 Electronic Relaxation 1
   ENCUT  =  680.0 eV  49.98 Ry    7.07 a.u.   8.18  8.18  8.18*2*pi/ulx,y,z
   ENINI  =  680.0     initial cutoff
   ENAUG  = 1360.0 eV  augmentation charge cutoff
   NELM   =    200;   NELMIN=  5; NELMDL= -5     # of ELM steps 
   EDIFF  = 0.1E-04   stopping-criterion for ELM
   LREAL  =      F    real-space projection
   NLSPLINE    = F    spline interpolate recip. space projectors
   LCOMPAT=      F    compatible to vasp.4.4
   GGA_COMPAT  = T    GGA compatible to vasp.4.4-vasp.4.6
   LMAXPAW     = -100 max onsite density
   LMAXMIX     =    2 max onsite mixed and CHGCAR
   VOSKOWN=      0    Vosko Wilk Nusair interpolation
   ROPT   =    0.00000
 Ionic relaxation
   EDIFFG = 0.1E-03   stopping-criterion for IOM
   NSW    =      0    number of steps for IOM
   NBLOCK =      1;   KBLOCK =      1    inner block; outer block 
   IBRION =     -1    ionic relax: 0-MD 1-quasi-New 2-CG
   NFREE  =      0    steps in history (QN), initial steepest desc. (CG)
   ISIF   =      0    stress and relaxation
   IWAVPR =     10    prediction:  0-non 1-charg 2-wave 3-comb
   ISYM   =      3    0-nonsym 1-usesym 2-fastsym
   LCORR  =      T    Harris-Foulkes like correction to forces

   POTIM  = 0.5000    time-step for ionic-motion
   TEIN   =    0.0    initial temperature
   TEBEG  =    0.0;   TEEND  =   0.0 temperature during run
   SMASS  =  -3.00    Nose mass-parameter (am)
   estimated Nose-frequenzy (Omega)   =  0.10E-29 period in steps = 0.13E+47 mass=  -0.339E-27a.u.
   SCALEE = 1.0000    scale energy and forces
   NPACO  =    256;   APACO  = 10.0  distance and # of slots for P.C.
   PSTRESS=    0.0 pullay stress

  Mass of Ions in am
   POMASS =  28.09
  Ionic Valenz
   ZVAL   =   4.00
  Atomic Wigner-Seitz radii
   RWIGS  =  -1.00
  virtual crystal weights 
   VCA    =   1.00
   NELECT =       8.0000    total number of electrons
   NUPDOWN=      -1.0000    fix difference up-down

 DOS related values:
   EMIN   =  10.00;   EMAX   =-10.00  energy-range for DOS
   EFERMI =   0.00;   METHOD = LEGACY      
   ISMEAR =    -5;   SIGMA  =   0.05  broadening in eV -4-tet -1-fermi 0-gaus

 Electronic relaxation 2 (details)
   IALGO  =     38    algorithm
   LDIAG  =      T    sub-space diagonalisation (order eigenvalues)
   LSUBROT=      F    optimize rotation matrix (better conditioning)
   TURBO    =      0    0=normal 1=particle mesh
   IRESTART =      0    0=no restart 2=restart with 2 vectors
   NREBOOT  =      0    no. of reboots
   NMIN     =      0    reboot dimension
   EREF     =   0.00    reference energy to select bands
   IMIX   =      1    mixing-type and parameters
     AMIX     =   0.40;   BMIX     =  1.00
     AMIX_MAG =   1.60;   BMIX_MAG =  1.00
     AMIN     =   0.10
     WC   =   100.;   INIMIX=   1;  MIXPRE=   1;  MAXMIX= -45

 Intra band minimization:
   WEIMIN = 0.0000     energy-eigenvalue tresh-hold
   EBREAK =  0.10E-06  absolut break condition
   DEPER  =   0.30     relativ break condition  

   TIME   =   0.40     timestep for ELM

  volume/ion in A,a.u.               =      20.16       136.08
  Fermi-wavevector in a.u.,A,eV,Ry     =   0.954766  1.804247 12.402783  0.911579
  Thomas-Fermi vector in A             =   2.083543
 
 Write flags
   LWAVE        =      T    write WAVECAR
   LDOWNSAMPLE  =      F    k-point downsampling of WAVECAR
   LCHARG       =      F    write CHGCAR
   LVTOT        =      T    write LOCPOT, total local potential
   LVHAR        =      F    write LOCPOT, Hartree potential only
   LELF         =      F    write electronic localiz. function (ELF)
   LORBIT       =     11    0 simple, 1 ext, 2 COOP (PROOUT), +10 PAW based schemes


 Dipole corrections
   LMONO  =      F    monopole corrections only (constant potential shift)
   LDIPOL =      F    correct potential (dipole corrections)
   IDIPOL =      0    1-x, 2-y, 3-z, 4-all directions 
   EPSILON=  1.0000000 bulk dielectric constant

 Exchange correlation treatment:
   GGA     =    PE    GGA type
   LEXCH   =     8    internal setting for exchange type
   LIBXC   =     F    Libxc                    
   VOSKOWN =     0    Vosko Wilk Nusair interpolation
   EXXOEP  =     0    0=HF, 1=EXX-LHF (local Hartree Fock) 2=EXX OEP
   LHFCALC =     T    Hartree Fock is set to
   LSYMGRAD=     F    symmetrize gradient (conserves proper symmetry)
   PRECFOCK=fast      Normal, Fast or Accurate (Low or Medium for compatibility)
   LRHFCALC=     F    long range Hartree Fock
   LRSCOR  =     F    long range correlation only (use DFT for short range part)
   LTHOMAS =     F    Thomas Fermi screening in HF
   LMODELHF=     F    short range full HF, long range fraction AEXX
   FOCKCORR=     1    mode to apply convergence corrections
   LFOCKACE=     T    use Adeptively-Compressed-Exchange operator
   ENCUT4O =  -1.0   cutoff for four orbital integrals eV
   LMAXFOCK=     4    L truncation for augmentation on plane wave grid
   LMAXFOCKAE=  -1    L truncation for all-electron charge restoration on plane wave grid
   NMAXFOCKAE=   1    number of basis functions for all-electron charge restoration
   LFOCKAEDFT=     F  apply the AE augmentation even for DFT
   NKREDX  =     1    reduce k-point grid by
   NKREDY  =     1    reduce k-point grid by
   NKREDZ  =     1    reduce k-point grid by
   SHIFTRED=     F    shift reduced grid of Gamma
   HFKIDENT=     F    idential grid for each k-point
   ODDONLY =     F    use only odd q-grid points
   EVENONLY=     F    use only even q-grid points
   HFALPHA =   -1.0000 decay constant for conv. correction
   MCALPHA =    0.0000 extent of test-charge in conv. correction in multipole expansion
   AEXX    =    0.2500 exact exchange contribution
   HFSCREEN=    0.2000 screening length (either q_TF or 0.3 A-1)
   HFSCREENC=   0.2000 screening length for correlation (either q_TF or 0.3 A-1)
   HFRCUT  =    0.0000 spherical cutoff for potential kernel
   ALDAX   =    0.7500 LDA exchange part
   AGGAX   =    0.7500 GGA exchange part
   ALDAC   =    1.0000 LDA correlation
   AGGAC   =    1.0000 GGA correlation
   ENCUTFOCK=  -1.0 apply spherical cutoff to Coloumb kernel
   NBANDSGWLOW=     1    first orbital included in HF term
   NBLOCK_FOCK=    64    blocking factor in FOCK_ACC

 Linear response parameters
   LEPSILON=     F    determine dielectric tensor
   LRPA    =     F    only Hartree local field effects (RPA)
   LNABLA  =     F    use nabla operator in PAW spheres
   LVEL    =     F    velocity operator in full k-point grid
   CSHIFT  =0.1000    complex shift for real part using Kramers Kronig
   OMEGAMAX=  -1.0    maximum frequency
   DEG_THRESHOLD= 0.2000000E-02 threshold for treating states as degnerate
   RTIME   =   -0.100 relaxation time in fs
  (WPLASMAI=    0.000 imaginary part of plasma frequency in eV, 0.658/RTIME)
   DFIELD  = 0.0000000 0.0000000 0.0000000 field for delta impulse in time
 
  Optional k-point grid parameters
   LKPOINTS_OPT  =     F    use optional k-point grid
   KPOINTS_OPT_MODE=     1    mode for optional k-point grid
 
 Orbital magnetization related:
   ORBITALMAG=     F  switch on orbital magnetization
   LCHIMAG   =     F  perturbation theory with respect to B field
   DQ        =  0.001000  dq finite difference perturbation B field
   LLRAUG    =     F  two centre corrections for induced B field
   LBONE     =     F  B-component reconstruction in AE one-centre
   LVGVCALC  =     T  calculate vGv susceptibility
   LVGVAPPL  =     F  apply vGv susceptibility instead of pGv for G=0

 Random number generation:
   RANDOM_GENERATOR = DEFAULT
   PCG_SEED         = not used


--------------------------------------------------------------------------------------------------------


 Static calculation
 charge density and potential will be updated during run
 non-spin polarized calculation
 Variant of blocked Davidson
 Davidson routine will perform the subspace rotation
 perform sub-space diagonalisation
    after iterative eigenvector-optimisation
 Kerker-like  mixing scheme
 using additional bands           20
 reciprocal scheme for non local part
 use partial core corrections
 calculate Harris-corrections to forces 
   (improved forces if not selfconsistent)
 use gradient corrections 
 use of overlap-Matrix (Vanderbilt PP)
 Fermi weights with tetrahedron method with Bloechl corrections


--------------------------------------------------------------------------------------------------------


  energy-cutoff  :      680.00
  volume of cell :       40.33
      direct lattice vectors                 reciprocal lattice vectors
     3.333572997  0.000000000  1.924638998     0.299978432 -0.106058350  0.000000000
     1.111190999  3.142923999  1.924638999     0.000000000  0.318175050  0.000000000
     0.000000000  0.000000000  3.849278000    -0.149989216 -0.106058350  0.259788979

  length of vectors
     3.849278400  3.849279410  3.849278000     0.318175161  0.318175050  0.318175190


 
 k-points in units of 2pi/SCALE and weight: pymatgen with grid density = 787 / numbe
   0.00000000  0.00000000  0.00000000       0.003
   0.04285406 -0.01515119  0.00000000       0.023
   0.08570812 -0.03030239  0.00000000       0.023
   0.12856219 -0.04545358  0.00000000       0.023
   0.04285406  0.03030239  0.00000000       0.017
   0.08570812  0.01515119  0.00000000       0.070
   0.12856219 -0.00000000  0.00000000       0.070
  -0.12856219  0.09090716  0.00000000       0.070
  -0.08570812  0.07575596  0.00000000       0.070
  -0.04285406  0.06060477  0.00000000       0.035
   0.08570812  0.06060477  0.00000000       0.017
   0.12856219  0.04545358  0.00000000       0.070
  -0.12856219  0.13636074  0.00000000       0.070
  -0.08570812  0.12120954  0.00000000       0.035
   0.12856219  0.09090716  0.00000000       0.017
  -0.12856219  0.18181431  0.00000000       0.035
   0.10713515  0.03030239  0.03711271       0.070
  -0.14998922  0.12120954  0.03711271       0.140
  -0.14998922  0.16666312  0.03711271       0.070
  -0.10713515  0.15151193  0.03711271       0.070
 
 k-points in reciprocal lattice and weights: pymatgen with grid density = 787 / numbe
   0.00000000  0.00000000  0.00000000       0.003
   0.14285714 -0.00000000  0.00000000       0.023
   0.28571429 -0.00000000  0.00000000       0.023
   0.42857143 -0.00000000  0.00000000       0.023
   0.14285714  0.14285714  0.00000000       0.017
   0.28571429  0.14285714  0.00000000       0.070
   0.42857143  0.14285714  0.00000000       0.070
  -0.42857143  0.14285714  0.00000000       0.070
  -0.28571429  0.14285714  0.00000000       0.070
  -0.14285714  0.14285714  0.00000000       0.035
   0.28571429  0.28571429  0.00000000       0.017
   0.42857143  0.28571429  0.00000000       0.070
  -0.42857143  0.28571429  0.00000000       0.070
  -0.28571429  0.28571429  0.00000000       0.035
   0.42857143  0.42857143  0.00000000       0.017
  -0.42857143  0.42857143  0.00000000       0.035
   0.42857143  0.28571429  0.14285714       0.070
  -0.42857143  0.28571429  0.14285714       0.140
  -0.42857143  0.42857143  0.14285714       0.070
  -0.28571429  0.42857143  0.14285714       0.070
 
 position of ions in fractional coordinates (direct lattice) 
   0.87500000  0.87500000  0.87500000
   0.12500000  0.12500000  0.12500000
 
 position of ions in cartesian coordinates  (Angst):
   3.88916850  2.75005850  6.73623650
   0.55559550  0.39286550  0.96231950
 


--------------------------------------------------------------------------------------------------------


 k-point   1 :   0.0000 0.0000 0.0000  plane waves:    1639
 k-point   2 :   0.1429-0.0000 0.0000  plane waves:    1618
 k-point   3 :   0.2857-0.0000 0.0000  plane waves:    1633
 k-point   4 :   0.4286-0.0000 0.0000  plane waves:    1616
 k-point   5 :   0.1429 0.1429 0.0000  plane waves:    1623
 k-point   6 :   0.2857 0.1429 0.0000  plane waves:    1626
 k-point   7 :   0.4286 0.1429 0.0000  plane waves:    1623
 k-point   8 :  -0.4286 0.1429 0.0000  plane waves:    1626
 k-point   9 :  -0.2857 0.1429 0.0000  plane waves:    1629
 k-point  10 :  -0.1429 0.1429 0.0000  plane waves:    1618
 k-point  11 :   0.2857 0.2857 0.0000  plane waves:    1620
 k-point  12 :   0.4286 0.2857 0.0000  plane waves:    1626
 k-point  13 :  -0.4286 0.2857 0.0000  plane waves:    1623
 k-point  14 :  -0.2857 0.2857 0.0000  plane waves:    1622
 k-point  15 :   0.4286 0.4286 0.0000  plane waves:    1628
 k-point  16 :  -0.4286 0.4286 0.0000  plane waves:    1628
 k-point  17 :   0.4286 0.2857 0.1429  plane waves:    1615
 k-point  18 :  -0.4286 0.2857 0.1429  plane waves:    1624
 k-point  19 :  -0.4286 0.4286 0.1429  plane waves:    1641
 k-point  20 :  -0.2857 0.4286 0.1429  plane waves:    1626

 maximum and minimum number of plane-waves per node :       174      151

 maximum number of plane-waves:      1641
 maximum index in each direction: 
   IXMAX=    8   IYMAX=    8   IZMAX=    8
   IXMIN=   -8   IYMIN=   -8   IZMIN=   -8


 parallel 3D FFT for wavefunctions:
    minimum data exchange during FFTs selected (reduces bandwidth)
 parallel 3D FFT for charge:
    minimum data exchange during FFTs selected (reduces bandwidth)


 FFT grid for exact exchange (Hartree Fock) 
  NGX = 20; NGY = 20; NGZ = 20

 
 Radii for the augmentation spheres in the non-local exchange
 for species   1 augmentation radius   1.335 (default was   0.989)
       energy cutoff for augmentation   2720.0

 real space projection operators:
  total allocation   :        270.84 KBytes
  max/ min on nodes  :         27.91         26.23

 Maximum index for augmentation-charges in exchange          193
  SETUP_FOCK is finished

 total amount of memory used by VASP MPI-rank0    31369. kBytes
=======================================================================

   base      :      30000. kBytes
   nonl-proj :        267. kBytes
   fftplans  :        394. kBytes
   grid      :        463. kBytes
   one-center:          3. kBytes
   HF        :          4. kBytes
   nonlr-proj:        100. kBytes
   wavefun   :        138. kBytes
 
     INWAV:  cpu time      0.0001: real time      0.0005
 initial charge density was supplied:
 charge density of overlapping atoms calculated
 number of electron       8.0000000 magnetization 
 keeping initial charge density in first step


--------------------------------------------------------------------------------------------------------


 Maximum index for augmentation-charges         1039 (set IRDMAX)


--------------------------------------------------------------------------------------------------------


 First call to EWALD:  gamma=   0.517
 Maximum number of real-space cells 3x 3x 3
 Maximum number of reciprocal cells 3x 3x 3

    FEWALD:  cpu time      0.0023: real time      0.0025


--------------------------------------- Ionic step        1  -------------------------------------------




--------------------------------------- Iteration      1(   1)  ---------------------------------------


    POTLOK:  cpu time      0.0143: real time      0.0166
    SETDIJ:  cpu time      0.0448: real time      0.0451
     EDDAV:  cpu time      0.6879: real time      0.7057
 BZINTS: Fermi energy:    7.861692;    8.000000 electrons
         Band energy: 0.166206E+02;  BLOECHL correction:    0.000000
       DOS:  cpu time      0.0039: real time      0.0041
    --------------------------------------------
      LOOP:  cpu time      0.7509: real time      0.7715

 eigenvalue-minimisations  :   960
 total energy-change (2. order) :-0.2491848E+03  (-0.3555104E+03)
 number of electron       8.0000000 magnetization 
 augmentation part        8.0000000 magnetization 

 Free energy of the ion-electron system (eV)
  ---------------------------------------------------
  alpha Z        PSCENC =         3.33880742
  Ewald energy   TEWEN  =      -227.98820653
  -Hartree energ DENC   =       -11.11484529
  -exchange      EXHF   =         0.00000000
  -V(xc)+E(xc)   XCENC  =       -18.63153738
  PAW double counting   =       176.24759923     -391.65626926
  entropy T*S    EENTRO =         0.00000000
  eigenvalues    EBANDS =        16.62057290
  atomic energy  EATOM  =       203.99906502
  Solvation  Ediel_sol  =         0.00000000
  ---------------------------------------------------
  free energy    TOTEN  =      -249.18481390 eV

  energy without entropy =     -249.18481390  energy(sigma->0) =     -249.18481390
  exchange ACFDT corr.  =         0.00000000  see jH, gK, PRB 81, 115126


--------------------------------------------------------------------------------------------------------




--------------------------------------- Iteration      1(   2)  ---------------------------------------


     EDDAV:  cpu time      0.1898: real time      0.1931
 BZINTS: Fermi energy:    4.871046;    8.000000 electrons
         Band energy:-0.132042E+01;  BLOECHL correction:    0.000000
       DOS:  cpu time      0.0027: real time      0.0027
    --------------------------------------------
      LOOP:  cpu time      0.1924: real time      0.1958

 eigenvalue-minimisations  :  1344
 total energy-change (2. order) :-0.1794100E+02  (-0.1757250E+02)
 number of electron       8.0000000 magnetization 
 augmentation part        8.0000000 magnetization 

 Free energy of the ion-electron system (eV)
  ---------------------------------------------------
  alpha Z        PSCENC =         3.33880742
  Ewald energy   TEWEN  =      -227.98820653
  -Hartree energ DENC   =       -11.11484529
  -exchange      EXHF   =         0.00000000
  -V(xc)+E(xc)   XCENC  =       -18.63153738
  PAW double counting   =       176.24759923     -391.65626926
  entropy T*S    EENTRO =         0.00000000
  eigenvalues    EBANDS =        -1.32042410
  atomic energy  EATOM  =       203.99906502
  Solvation  Ediel_sol  =         0.00000000
  ---------------------------------------------------
  free energy    TOTEN  =      -267.12581090 eV

  energy without entropy =     -267.12581090  energy(sigma->0) =     -267.12581090
  exchange ACFDT corr.  =         0.00000000  see jH, gK, PRB 81, 115126


--------------------------------------------------------------------------------------------------------




--------------------------------------- Iteration      1(   3)  ---------------------------------------


     EDDAV:  cpu time      0.1613: real time      0.1776
 BZINTS: Fermi energy:    4.729975;    8.000000 electrons
         Band energy:-0.167487E+01;  BLOECHL correction:    0.000000
       DOS:  cpu time      0.0023: real time      0.0023
    --------------------------------------------
      LOOP:  cpu time      0.1637: real time      0.1799

 eigenvalue-minimisations  :  1188
 total energy-change (2. order) :-0.3544421E+00  (-0.3541238E+00)
 number of electron       8.0000000 magnetization 
 augmentation part        8.0000000 magnetization 

 Free energy of the ion-electron system (eV)
  ---------------------------------------------------
  alpha Z        PSCENC =         3.33880742
  Ewald energy   TEWEN  =      -227.98820653
  -Hartree energ DENC   =       -11.11484529
  -exchange      EXHF   =         0.00000000
  -V(xc)+E(xc)   XCENC  =       -18.63153738
  PAW double counting   =       176.24759923     -391.65626926
  entropy T*S    EENTRO =         0.00000000
  eigenvalues    EBANDS =        -1.67486616
  atomic energy  EATOM  =       203.99906502
  Solvation  Ediel_sol  =         0.00000000
  ---------------------------------------------------
  free energy    TOTEN  =      -267.48025296 eV

  energy without entropy =     -267.48025296  energy(sigma->0) =     -267.48025296
  exchange ACFDT corr.  =         0.00000000  see jH, gK, PRB 81, 115126


--------------------------------------------------------------------------------------------------------




--------------------------------------- Iteration      1(   4)  ---------------------------------------


     EDDAV:  cpu time      0.1749: real time      0.1909
 BZINTS: Fermi energy:    4.747553;    8.000000 electrons
         Band energy:-0.167604E+01;  BLOECHL correction:    0.000000
       DOS:  cpu time      0.0031: real time      0.0032
    --------------------------------------------
      LOOP:  cpu time      0.1781: real time      0.1941

 eigenvalue-minimisations  :  1272
 total energy-change (2. order) :-0.1174175E-02  (-0.1174419E-02)
 number of electron       8.0000000 magnetization 
 augmentation part        8.0000000 magnetization 

 Free energy of the ion-electron system (eV)
  ---------------------------------------------------
  alpha Z        PSCENC =         3.33880742
  Ewald energy   TEWEN  =      -227.98820653
  -Hartree energ DENC   =       -11.11484529
  -exchange      EXHF   =         0.00000000
  -V(xc)+E(xc)   XCENC  =       -18.63153738
  PAW double counting   =       176.24759923     -391.65626926
  entropy T*S    EENTRO =         0.00000000
  eigenvalues    EBANDS =        -1.67604034
  atomic energy  EATOM  =       203.99906502
  Solvation  Ediel_sol  =         0.00000000
  ---------------------------------------------------
  free energy    TOTEN  =      -267.48142713 eV

  energy without entropy =     -267.48142713  energy(sigma->0) =     -267.48142713
  exchange ACFDT corr.  =         0.00000000  see jH, gK, PRB 81, 115126


--------------------------------------------------------------------------------------------------------




--------------------------------------- Iteration      1(   5)  ---------------------------------------


    POTLOK:  cpu time      0.0099: real time      0.0312
    SETDIJ:  cpu time      0.1249: real time      0.1252
     EDDAV:  cpu time     14.2749: real time     14.3121
 BZINTS: Fermi energy:    4.704314;    8.000000 electrons
         Band energy:-0.554200E+01;  BLOECHL correction:    0.000000
       DOS:  cpu time      0.0026: real time      0.0027
    CHARGE:  cpu time      0.0334: real time      0.0338
    MIXING:  cpu time      0.0010: real time      0.0010
    --------------------------------------------
      LOOP:  cpu time     14.4467: real time     14.5059

 eigenvalue-minimisations  :  1116
 total energy-change (2. order) : 0.2545399E+03  (-0.1580805E+00)
 number of electron       8.0000000 magnetization 
 augmentation part       -0.4502835 magnetization 

 Free energy of the ion-electron system (eV)
  ---------------------------------------------------
  alpha Z        PSCENC =         3.33880742
  Ewald energy   TEWEN  =      -227.98820653
  -Hartree energ DENC   =       -11.11484529
  -exchange      EXHF   =        11.44829652
  -V(xc)+E(xc)   XCENC  =       -14.90535473
  PAW double counting   =       171.63954155     -143.81684058
  entropy T*S    EENTRO =         0.00000000
  eigenvalues    EBANDS =        -5.54199765
  atomic energy  EATOM  =       203.99906502
  Solvation  Ediel_sol  =         0.00000000
  ---------------------------------------------------
  free energy    TOTEN  =       -12.94153427 eV

  energy without entropy =      -12.94153427  energy(sigma->0) =      -12.94153427
  exchange ACFDT corr.  =         0.00000000  see jH, gK, PRB 81, 115126


--------------------------------------------------------------------------------------------------------




--------------------------------------- Iteration      1(   6)  ---------------------------------------


    POTLOK:  cpu time      0.0125: real time      0.0269
    SETDIJ:  cpu time      0.1236: real time      0.1239
     EDDAV:  cpu time     13.2155: real time     13.2488
 BZINTS: Fermi energy:    4.972094;    8.000000 electrons
         Band energy:-0.376887E+01;  BLOECHL correction:    0.000000
       DOS:  cpu time      0.0028: real time      0.0030
    CHARGE:  cpu time      0.0287: real time      0.0288
    MIXING:  cpu time      0.0001: real time      0.0001
    --------------------------------------------
      LOOP:  cpu time     13.3833: real time     13.4314

 eigenvalue-minimisations  :  1332
 total energy-change (2. order) : 0.2545127E+00  (-0.1624829E-01)
 number of electron       8.0000000 magnetization 
 augmentation part       -0.4391695 magnetization 

 Free energy of the ion-electron system (eV)
  ---------------------------------------------------
  alpha Z        PSCENC =         3.33880742
  Ewald energy   TEWEN  =      -227.98820653
  -Hartree energ DENC   =       -12.78580650
  -exchange      EXHF   =        11.49702051
  -V(xc)+E(xc)   XCENC  =       -14.70469788
  PAW double counting   =       533.71664113     -505.99097750
  entropy T*S    EENTRO =         0.00000000
  eigenvalues    EBANDS =        -3.76886724
  atomic energy  EATOM  =       203.99906502
  Solvation  Ediel_sol  =         0.00000000
  ---------------------------------------------------
  free energy    TOTEN  =       -12.68702157 eV

  energy without entropy =      -12.68702157  energy(sigma->0) =      -12.68702157
  exchange ACFDT corr.  =         0.00000000  see jH, gK, PRB 81, 115126


--------------------------------------------------------------------------------------------------------




--------------------------------------- Iteration      1(   7)  ---------------------------------------


    POTLOK:  cpu time      0.0117: real time      0.0265
    SETDIJ:  cpu time      0.1228: real time      0.1231
     EDDAV:  cpu time     13.2554: real time     13.2887
 BZINTS: Fermi energy:    5.156091;    8.000000 electrons
         Band energy:-0.265861E+01;  BLOECHL correction:   -0.000000
       DOS:  cpu time      0.0032: real time      0.0032
    CHARGE:  cpu time      0.0305: real time      0.0306
    MIXING:  cpu time      0.0001: real time      0.0001
    --------------------------------------------
      LOOP:  cpu time     13.4237: real time     13.4722

 eigenvalue-minimisations  :  1332
 total energy-change (2. order) : 0.8013350E-01  (-0.6521327E-02)
 number of electron       8.0000000 magnetization 
 augmentation part       -0.4358221 magnetization 

 Free energy of the ion-electron system (eV)
  ---------------------------------------------------
  alpha Z        PSCENC =         3.33880742
  Ewald energy   TEWEN  =      -227.98820653
  -Hartree energ DENC   =       -13.81330590
  -exchange      EXHF   =        11.41158298
  -V(xc)+E(xc)   XCENC  =       -14.57503010
  PAW double counting   =       924.63056520     -896.95175179
  entropy T*S    EENTRO =         0.00000000
  eigenvalues    EBANDS =        -2.65861438
  atomic energy  EATOM  =       203.99906502
  Solvation  Ediel_sol  =         0.00000000
  ---------------------------------------------------
  free energy    TOTEN  =       -12.60688807 eV

  energy without entropy =      -12.60688807  energy(sigma->0) =      -12.60688807
  exchange ACFDT corr.  =         0.00000000  see jH, gK, PRB 81, 115126


--------------------------------------------------------------------------------------------------------




--------------------------------------- Iteration      1(   8)  ---------------------------------------


    POTLOK:  cpu time      0.0094: real time      0.0264
    SETDIJ:  cpu time      0.1277: real time      0.1280
     EDDAV:  cpu time     14.4555: real time     14.4920
 BZINTS: Fermi energy:    5.287335;    8.000000 electrons
         Band energy:-0.205373E+01;  BLOECHL correction:    0.000000
       DOS:  cpu time      0.0027: real time      0.0027
    CHARGE:  cpu time      0.0286: real time      0.0287
    MIXING:  cpu time      0.0001: real time      0.0001
    --------------------------------------------
      LOOP:  cpu time     14.6240: real time     14.6779

 eigenvalue-minimisations  :  1344
 total energy-change (2. order) : 0.2073309E-01  (-0.2103373E-02)
 number of electron       8.0000000 magnetization 
 augmentation part       -0.4344618 magnetization 

 Free energy of the ion-electron system (eV)
  ---------------------------------------------------
  alpha Z        PSCENC =         3.33880742
  Ewald energy   TEWEN  =      -227.98820653
  -Hartree energ DENC   =       -14.38515570
  -exchange      EXHF   =        11.34539155
  -V(xc)+E(xc)   XCENC  =       -14.49920283
  PAW double counting   =      1214.51066295    -1186.85378764
  entropy T*S    EENTRO =         0.00000000
  eigenvalues    EBANDS =        -2.05372922
  atomic energy  EATOM  =       203.99906502
  Solvation  Ediel_sol  =         0.00000000
  ---------------------------------------------------
  free energy    TOTEN  =       -12.58615499 eV

  energy without entropy =      -12.58615499  energy(sigma->0) =      -12.58615499
  exchange ACFDT corr.  =         0.00000000  see jH, gK, PRB 81, 115126


--------------------------------------------------------------------------------------------------------




--------------------------------------- Iteration      1(   9)  ---------------------------------------


    POTLOK:  cpu time      0.0096: real time      0.0269
    SETDIJ:  cpu time      0.1232: real time      0.1235
     EDDAV:  cpu time     13.2395: real time     13.2728
 BZINTS: Fermi energy:    5.354372;    8.000000 electrons
         Band energy:-0.173839E+01;  BLOECHL correction:    0.000000
       DOS:  cpu time      0.0026: real time      0.0027
    CHARGE:  cpu time      0.0291: real time      0.0292
    MIXING:  cpu time      0.0001: real time      0.0001
    --------------------------------------------
      LOOP:  cpu time     13.4041: real time     13.4551

 eigenvalue-minimisations  :  1332
 total energy-change (2. order) : 0.5237521E-02  (-0.5527691E-03)
 number of electron       8.0000000 magnetization 
 augmentation part       -0.4340214 magnetization 

 Free energy of the ion-electron system (eV)
  ---------------------------------------------------
  alpha Z        PSCENC =         3.33880742
  Ewald energy   TEWEN  =      -227.98820653
  -Hartree energ DENC   =       -14.69171341
  -exchange      EXHF   =        11.30855443
  -V(xc)+E(xc)   XCENC  =       -14.45604596
  PAW double counting   =      1404.81464830    -1377.16763937
  entropy T*S    EENTRO =         0.00000000
  eigenvalues    EBANDS =        -1.73838737
  atomic energy  EATOM  =       203.99906502
  Solvation  Ediel_sol  =         0.00000000
  ---------------------------------------------------
  free energy    TOTEN  =       -12.58091747 eV

  energy without entropy =      -12.58091747  energy(sigma->0) =      -12.58091747
  exchange ACFDT corr.  =         0.00000000  see jH, gK, PRB 81, 115126


--------------------------------------------------------------------------------------------------------




--------------------------------------- Iteration      1(  10)  ---------------------------------------


    POTLOK:  cpu time      0.0105: real time      0.0259
    SETDIJ:  cpu time      0.1230: real time      0.1233
     EDDAV:  cpu time     13.7159: real time     13.7505
 BZINTS: Fermi energy:    5.371183;    8.000000 electrons
         Band energy:-0.157419E+01;  BLOECHL correction:    0.000000
       DOS:  cpu time      0.0031: real time      0.0031
    CHARGE:  cpu time      0.0326: real time      0.0327
    MIXING:  cpu time      0.0002: real time      0.0002
    --------------------------------------------
      LOOP:  cpu time     13.8854: real time     13.9357

 eigenvalue-minimisations  :  1320
 total energy-change (2. order) : 0.1304319E-02  (-0.1329647E-03)
 number of electron       8.0000000 magnetization 
 augmentation part       -0.4339355 magnetization 

 Free energy of the ion-electron system (eV)
  ---------------------------------------------------
  alpha Z        PSCENC =         3.33880742
  Ewald energy   TEWEN  =      -227.98820653
  -Hartree energ DENC   =       -14.85639920
  -exchange      EXHF   =        11.29016841
  -V(xc)+E(xc)   XCENC  =       -14.43148778
  PAW double counting   =      1520.71109245    -1493.06846008
  entropy T*S    EENTRO =         0.00000000
  eigenvalues    EBANDS =        -1.57419285
  atomic energy  EATOM  =       203.99906502
  Solvation  Ediel_sol  =         0.00000000
  ---------------------------------------------------
  free energy    TOTEN  =       -12.57961315 eV

  energy without entropy =      -12.57961315  energy(sigma->0) =      -12.57961315
  exchange ACFDT corr.  =         0.00000000  see jH, gK, PRB 81, 115126


--------------------------------------------------------------------------------------------------------




--------------------------------------- Iteration      1(  11)  ---------------------------------------


    POTLOK:  cpu time      0.0130: real time      0.0275
    SETDIJ:  cpu time      0.1267: real time      0.1270
     EDDAV:  cpu time     13.9161: real time     13.9513
 BZINTS: Fermi energy:    5.380335;    8.000000 electrons
         Band energy:-0.148688E+01;  BLOECHL correction:    0.000000
       DOS:  cpu time      0.0031: real time      0.0031
    CHARGE:  cpu time      0.0304: real time      0.0304
    MIXING:  cpu time      0.0001: real time      0.0001
    --------------------------------------------
      LOOP:  cpu time     14.0893: real time     14.1394

 eigenvalue-minimisations  :  1272
 total energy-change (2. order) : 0.2906162E-03  (-0.3532548E-04)
 number of electron       8.0000000 magnetization 
 augmentation part       -0.4339620 magnetization 

 Free energy of the ion-electron system (eV)
  ---------------------------------------------------
  alpha Z        PSCENC =         3.33880742
  Ewald energy   TEWEN  =      -227.98820653
  -Hartree energ DENC   =       -14.94684765
  -exchange      EXHF   =        11.28139431
  -V(xc)+E(xc)   XCENC  =       -14.41733793
  PAW double counting   =      1588.03826520    -1560.39757970
  entropy T*S    EENTRO =         0.00000000
  eigenvalues    EBANDS =        -1.48688268
  atomic energy  EATOM  =       203.99906502
  Solvation  Ediel_sol  =         0.00000000
  ---------------------------------------------------
  free energy    TOTEN  =       -12.57932253 eV

  energy without entropy =      -12.57932253  energy(sigma->0) =      -12.57932253
  exchange ACFDT corr.  =         0.00000000  see jH, gK, PRB 81, 115126


--------------------------------------------------------------------------------------------------------




--------------------------------------- Iteration      1(  12)  ---------------------------------------


    POTLOK:  cpu time      0.0097: real time      0.0253
    SETDIJ:  cpu time      0.1229: real time      0.1232
     EDDAV:  cpu time     13.2255: real time     13.2589
 BZINTS: Fermi energy:    5.385480;    8.000000 electrons
         Band energy:-0.143886E+01;  BLOECHL correction:    0.000000
       DOS:  cpu time      0.0027: real time      0.0027
    CHARGE:  cpu time      0.0287: real time      0.0288
    MIXING:  cpu time      0.0001: real time      0.0001
    --------------------------------------------
      LOOP:  cpu time     13.3896: real time     13.4390

 eigenvalue-minimisations  :  1236
 total energy-change (2. order) : 0.4254378E-04  (-0.9847013E-05)
 number of electron       8.0000000 magnetization 
 augmentation part       -0.4340170 magnetization 

 Free energy of the ion-electron system (eV)
  ---------------------------------------------------
  alpha Z        PSCENC =         3.33880742
  Ewald energy   TEWEN  =      -227.98820653
  -Hartree energ DENC   =       -14.99800990
  -exchange      EXHF   =        11.27724553
  -V(xc)+E(xc)   XCENC  =       -14.40906794
  PAW double counting   =      1626.11625438    -1598.47650804
  entropy T*S    EENTRO =         0.00000000
  eigenvalues    EBANDS =        -1.43885992
  atomic energy  EATOM  =       203.99906502
  Solvation  Ediel_sol  =         0.00000000
  ---------------------------------------------------
  free energy    TOTEN  =       -12.57927999 eV

  energy without entropy =      -12.57927999  energy(sigma->0) =      -12.57927999
  exchange ACFDT corr.  =         0.00000000  see jH, gK, PRB 81, 115126


--------------------------------------------------------------------------------------------------------




--------------------------------------- Iteration      1(  13)  ---------------------------------------


    POTLOK:  cpu time      0.0089: real time      0.0272
    SETDIJ:  cpu time      0.1229: real time      0.1231
     EDDAV:  cpu time     13.8902: real time     13.9251
 BZINTS: Fermi energy:    5.388489;    8.000000 electrons
         Band energy:-0.141143E+01;  BLOECHL correction:    0.000000
       DOS:  cpu time      0.0026: real time      0.0027
    --------------------------------------------
      LOOP:  cpu time     14.0245: real time     14.0782

 eigenvalue-minimisations  :  1236
 total energy-change (2. order) :-0.9389566E-05  (-0.3182990E-05)
 number of electron       8.0000000 magnetization 
 augmentation part       -0.4340170 magnetization 

 Free energy of the ion-electron system (eV)
  ---------------------------------------------------
  alpha Z        PSCENC =         3.33880742
  Ewald energy   TEWEN  =      -227.98820653
  -Hartree energ DENC   =       -15.02790123
  -exchange      EXHF   =        11.27529179
  -V(xc)+E(xc)   XCENC  =       -14.40415957
  PAW double counting   =      1647.11955957    -1619.48031857
  entropy T*S    EENTRO =         0.00000000
  eigenvalues    EBANDS =        -1.41142728
  atomic energy  EATOM  =       203.99906502
  Solvation  Ediel_sol  =         0.00000000
  ---------------------------------------------------
  free energy    TOTEN  =       -12.57928938 eV

  energy without entropy =      -12.57928938  energy(sigma->0) =      -12.57928938
  exchange ACFDT corr.  =         0.00000000  see jH, gK, PRB 81, 115126


--------------------------------------------------------------------------------------------------------




 average (electrostatic) potential at core
  the test charge radii are     0.9892
  (the norm of the test charge is              1.0000)
       1 -79.6064       2 -79.6064
 
 
 
 E-fermi :   5.3885     XC(G=0):  -7.8216     alpha+bet :-11.8943

 Fermi energy:         5.3884893554

 k-point     1 :       0.0000    0.0000    0.0000
  band No.  band energies     occupation 
      1      -7.8579      2.00000
      2       5.3871      2.00000
      3       5.3871      2.00000
      4       5.3871      2.00000
      5       8.7286      0.00000
      6       8.7286      0.00000
      7       8.7286      0.00000
      8       9.6375      0.00000
      9      14.1582      0.00000
     10      14.1902      0.00000
     11      14.1902      0.00000
     12      17.7114      0.00000
     13      17.7114      0.00000
     14      17.7114      0.00000
     15      21.6189      0.00000
     16      30.0715      0.00000
     17      30.0715      0.00000
     18      30.0715      0.00000
     19      31.3633      0.00000
     20      31.3633      0.00000
     21      32.8724      0.00000
     22      32.8724      0.00000
     23      32.8724      0.00000
     24      36.0997      0.00000

 k-point     2 :       0.1429   -0.0000    0.0000
  band No.  band energies     occupation 
      1      -7.5646      2.00000
      2       3.3296      2.00000
      3       5.0167      2.00000
      4       5.0167      2.00000
      5       8.5868      0.00000
      6       9.2776      0.00000
      7       9.2776      0.00000
      8      11.3419      0.00000
      9      13.5722      0.00000
     10      13.5722      0.00000
     11      15.1930      0.00000
     12      17.0228      0.00000
     13      19.2678      0.00000
     14      19.2678      0.00000
     15      23.2738      0.00000
     16      27.5018      0.00000
     17      27.5018      0.00000
     18      27.9458      0.00000
     19      30.9660      0.00000
     20      30.9661      0.00000
     21      33.4629      0.00000
     22      33.4629      0.00000
     23      34.5711      0.00000
     24      36.3484      0.00000

 k-point     3 :       0.2857   -0.0000    0.0000
  band No.  band energies     occupation 
      1      -6.7181      2.00000
      2       0.4066      2.00000
      3       4.4511      2.00000
      4       4.4511      2.00000
      5       8.0092      0.00000
      6       9.7618      0.00000
      7       9.7618      0.00000
      8      13.8884      0.00000
      9      13.8884      0.00000
     10      13.8925      0.00000
     11      15.2122      0.00000
     12      19.1199      0.00000
     13      21.8250      0.00000
     14      21.8250      0.00000
     15      23.9984      0.00000
     16      23.9984      0.00000
     17      24.3498      0.00000
     18      27.1363      0.00000
     19      31.1800      0.00000
     20      31.1801      0.00000
     21      33.8367      0.00000
     22      33.8644      0.00000
     23      33.8644      0.00000
     24      36.5791      0.00000

 k-point     4 :       0.4286   -0.0000    0.0000
  band No.  band energies     occupation 
      1      -5.5664      2.00000
      2      -1.8714      2.00000
      3       4.1243      2.00000
      4       4.1243      2.00000
      5       7.6616      0.00000
      6       9.5922      0.00000
      7       9.5922      0.00000
      8      14.0789      0.00000
      9      16.0481      0.00000
     10      16.0481      0.00000
     11      17.0916      0.00000
     12      19.2819      0.00000
     13      19.2819      0.00000
     14      20.4365      0.00000
     15      24.3309      0.00000
     16      26.6224      0.00000
     17      26.6224      0.00000
     18      28.8129      0.00000
     19      30.2624      0.00000
     20      30.2624      0.00000
     21      31.0331      0.00000
     22      33.5617      0.00000
     23      33.5617      0.00000
     24      34.7144      0.00000

 k-point     5 :       0.1429    0.1429    0.0000
  band No.  band energies     occupation 
      1      -7.4653      2.00000
      2       3.6519      2.00000
      3       4.3648      2.00000
      4       4.3648      2.00000
      5       7.9718      0.00000
      6      10.2116      0.00000
      7      10.2116      0.00000
      8      10.7170      0.00000
      9      12.8248      0.00000
     10      14.6094      0.00000
     11      15.6314      0.00000
     12      18.3585      0.00000
     13      18.3585      0.00000
     14      18.8674      0.00000
     15      24.1256      0.00000
     16      26.9958      0.00000
     17      26.9958      0.00000
     18      28.3183      0.00000
     19      29.3931      0.00000
     20      30.5237      0.00000
     21      33.7636      0.00000
     22      34.1014      0.00000
     23      34.1015      0.00000
     24      38.7206      0.00000

 k-point     6 :       0.2857    0.1429    0.0000
  band No.  band energies     occupation 
      1      -6.7949      2.00000
      2       1.2901      2.00000
      3       3.7498      2.00000
      4       3.7624      2.00000
      5       8.1522      0.00000
      6      10.1911      0.00000
      7      10.7734      0.00000
      8      11.0588      0.00000
      9      14.6823      0.00000
     10      15.0092      0.00000
     11      16.6027      0.00000
     12      18.5463      0.00000
     13      20.1760      0.00000
     14      21.6274      0.00000
     15      23.4671      0.00000
     16      24.1441      0.00000
     17      26.4943      0.00000
     18      28.1169      0.00000
     19      28.3481      0.00000
     20      29.9216      0.00000
     21      33.2109      0.00000
     22      34.5125      0.00000
     23      34.6119      0.00000
     24      36.8622      0.00000

 k-point     7 :       0.4286    0.1429    0.0000
  band No.  band energies     occupation 
      1      -5.6780      2.00000
      2      -1.1571      2.00000
      3       2.9940      2.00000
      4       3.5435      2.00000
      5       8.2356      0.00000
      6      10.0458      0.00000
      7      10.8186      0.00000
      8      12.1268      0.00000
      9      15.8617      0.00000
     10      16.8534      0.00000
     11      17.5603      0.00000
     12      18.9609      0.00000
     13      19.7218      0.00000
     14      22.3894      0.00000
     15      24.2482      0.00000
     16      24.4415      0.00000
     17      26.0191      0.00000
     18      28.5347      0.00000
     19      29.1390      0.00000
     20      30.5367      0.00000
     21      31.2942      0.00000
     22      31.6172      0.00000
     23      34.5592      0.00000
     24      35.1356      0.00000

 k-point     8 :      -0.4286    0.1429    0.0000
  band No.  band energies     occupation 
      1      -5.0583      2.00000
      2      -2.1246      2.00000
      3       2.5335      2.00000
      4       3.7547      2.00000
      5       8.3588      0.00000
      6       9.9215      0.00000
      7      10.4008      0.00000
      8      14.6509      0.00000
      9      15.1655      0.00000
     10      15.5900      0.00000
     11      17.4671      0.00000
     12      19.9108      0.00000
     13      20.4025      0.00000
     14      21.1061      0.00000
     15      24.8638      0.00000
     16      26.7551      0.00000
     17      27.3692      0.00000
     18      27.7476      0.00000
     19      28.5675      0.00000
     20      29.0116      0.00000
     21      31.6395      0.00000
     22      32.5193      0.00000
     23      33.1425      0.00000
     24      34.4823      0.00000

 k-point     9 :      -0.2857    0.1429    0.0000
  band No.  band energies     occupation 
      1      -6.0863      2.00000
      2      -0.3952      2.00000
      3       2.5422      2.00000
      4       4.3170      2.00000
      5       8.8091      0.00000
      6      10.1152      0.00000
      7      10.1718      0.00000
      8      13.0537      0.00000
      9      13.1303      0.00000
     10      16.2709      0.00000
     11      17.8729      0.00000
     12      18.8515      0.00000
     13      20.7255      0.00000
     14      22.5566      0.00000
     15      23.1305      0.00000
     16      24.4249      0.00000
     17      26.0141      0.00000
     18      28.7121      0.00000
     19      29.1667      0.00000
     20      29.9622      0.00000
     21      31.7320      0.00000
     22      33.0086      0.00000
     23      34.3784      0.00000
     24      35.4828      0.00000

 k-point    10 :      -0.1429    0.1429    0.0000
  band No.  band energies     occupation 
      1      -7.0830      2.00000
      2       1.9799      2.00000
      3       3.3107      2.00000
      4       4.9599      2.00000
      5       9.2812      0.00000
      6       9.5313      0.00000
      7       9.6871      0.00000
      8      11.9750      0.00000
      9      12.5397      0.00000
     10      15.0485      0.00000
     11      16.4751      0.00000
     12      17.7406      0.00000
     13      19.2982      0.00000
     14      21.8569      0.00000
     15      23.5176      0.00000
     16      25.1550      0.00000
     17      27.5822      0.00000
     18      27.6472      0.00000
     19      28.2966      0.00000
     20      29.8885      0.00000
     21      33.6909      0.00000
     22      33.9549      0.00000
     23      36.4398      0.00000
     24      36.4624      0.00000

 k-point    11 :       0.2857    0.2857    0.0000
  band No.  band energies     occupation 
      1      -6.3037      2.00000
      2       0.8315      2.00000
      3       3.0717      2.00000
      4       3.0717      2.00000
      5       6.9387      0.00000
      6       8.7367      0.00000
      7      12.8292      0.00000
      8      12.8292      0.00000
      9      15.3609      0.00000
     10      15.8577      0.00000
     11      18.6277      0.00000
     12      20.0400      0.00000
     13      20.0400      0.00000
     14      20.7470      0.00000
     15      23.4050      0.00000
     16      23.4050      0.00000
     17      24.2565      0.00000
     18      26.6895      0.00000
     19      28.7594      0.00000
     20      32.4443      0.00000
     21      32.7070      0.00000
     22      33.8652      0.00000
     23      33.8652      0.00000
     24      35.7994      0.00000

 k-point    12 :       0.4286    0.2857    0.0000
  band No.  band energies     occupation 
      1      -5.3030      2.00000
      2      -0.8563      2.00000
      3       2.0241      2.00000
      4       2.7780      2.00000
      5       7.2371      0.00000
      6       8.8188      0.00000
      7      13.0604      0.00000
      8      13.2342      0.00000
      9      17.5464      0.00000
     10      17.9962      0.00000
     11      18.2673      0.00000
     12      18.9549      0.00000
     13      20.6500      0.00000
     14      21.7199      0.00000
     15      22.9880      0.00000
     16      24.6105      0.00000
     17      24.6340      0.00000
     18      26.4766      0.00000
     19      28.8666      0.00000
     20      29.4313      0.00000
     21      31.8526      0.00000
     22      32.0995      0.00000
     23      32.5861      0.00000
     24      34.1182      0.00000

 k-point    13 :      -0.4286    0.2857    0.0000
  band No.  band energies     occupation 
      1      -4.2830      2.00000
      2      -2.1745      2.00000
      3       0.9736      2.00000
      4       2.9624      2.00000
      5       7.5035      0.00000
      6      11.1976      0.00000
      7      12.7023      0.00000
      8      12.7886      0.00000
      9      15.5994      0.00000
     10      15.6308      0.00000
     11      19.8599      0.00000
     12      20.5547      0.00000
     13      21.0919      0.00000
     14      24.2259      0.00000
     15      24.3460      0.00000
     16      24.7905      0.00000
     17      25.1781      0.00000
     18      26.8321      0.00000
     19      27.1188      0.00000
     20      29.4502      0.00000
     21      30.7271      0.00000
     22      31.0589      0.00000
     23      31.2867      0.00000
     24      34.7931      0.00000

 k-point    14 :      -0.2857    0.2857    0.0000
  band No.  band energies     occupation 
      1      -5.0058      2.00000
      2      -1.3342      2.00000
      3       0.8931      2.00000
      4       3.5687      2.00000
      5       8.1634      0.00000
      6      11.8689      0.00000
      7      12.0640      0.00000
      8      13.0657      0.00000
      9      13.2437      0.00000
     10      14.6967      0.00000
     11      19.8522      0.00000
     12      20.4006      0.00000
     13      21.7699      0.00000
     14      23.4752      0.00000
     15      23.7128      0.00000
     16      24.6940      0.00000
     17      24.7737      0.00000
     18      27.5692      0.00000
     19      29.4873      0.00000
     20      29.8657      0.00000
     21      30.9507      0.00000
     22      32.1707      0.00000
     23      32.3329      0.00000
     24      33.3746      0.00000

 k-point    15 :       0.4286    0.4286    0.0000
  band No.  band energies     occupation 
      1      -4.4311      2.00000
      2      -1.9756      2.00000
      3       2.3622      2.00000
      4       2.3622      2.00000
      5       6.5566      0.00000
      6       7.1115      0.00000
      7      15.6710      0.00000
      8      15.6710      0.00000
      9      17.9103      0.00000
     10      18.4778      0.00000
     11      18.7968      0.00000
     12      18.7968      0.00000
     13      20.4441      0.00000
     14      20.7299      0.00000
     15      23.7560      0.00000
     16      24.5329      0.00000
     17      24.5329      0.00000
     18      25.8245      0.00000
     19      28.5532      0.00000
     20      28.9988      0.00000
     21      28.9988      0.00000
     22      30.1293      0.00000
     23      31.6714      0.00000
     24      33.6386      0.00000

 k-point    16 :      -0.4286    0.4286    0.0000
  band No.  band energies     occupation 
      1      -3.3726      2.00000
      2      -3.0483      2.00000
      3       1.4145      2.00000
      4       2.4299      2.00000
      5       6.8817      0.00000
      6       8.2097      0.00000
      7      15.4555      0.00000
      8      15.9296      0.00000
      9      16.0077      0.00000
     10      16.2748      0.00000
     11      20.5228      0.00000
     12      20.5864      0.00000
     13      20.7206      0.00000
     14      21.6349      0.00000
     15      23.7788      0.00000
     16      24.0942      0.00000
     17      26.4455      0.00000
     18      26.9392      0.00000
     19      27.3478      0.00000
     20      28.3910      0.00000
     21      28.5756      0.00000
     22      29.7244      0.00000
     23      30.8552      0.00000
     24      32.1496      0.00000

 k-point    17 :       0.4286    0.2857    0.1429
  band No.  band energies     occupation 
      1      -5.9617      2.00000
      2       0.0048      2.00000
      3       2.0363      2.00000
      4       3.4728      2.00000
      5       8.6951      0.00000
      6      10.0372      0.00000
      7      10.3929      0.00000
      8      12.5484      0.00000
      9      14.7454      0.00000
     10      17.5658      0.00000
     11      18.1165      0.00000
     12      19.0411      0.00000
     13      20.3203      0.00000
     14      22.0499      0.00000
     15      22.5196      0.00000
     16      25.3282      0.00000
     17      25.4956      0.00000
     18      27.5686      0.00000
     19      28.4202      0.00000
     20      31.2109      0.00000
     21      31.3971      0.00000
     22      31.9884      0.00000
     23      33.2554      0.00000
     24      35.5577      0.00000

 k-point    18 :      -0.4286    0.2857    0.1429
  band No.  band energies     occupation 
      1      -4.8051      2.00000
      2      -1.7098      2.00000
      3       1.3993      2.00000
      4       2.8860      2.00000
      5       9.2136      0.00000
      6       9.6667      0.00000
      7      11.8066      0.00000
      8      13.0223      0.00000
      9      14.8630      0.00000
     10      16.5897      0.00000
     11      18.7095      0.00000
     12      20.1139      0.00000
     13      21.4496      0.00000
     14      22.6373      0.00000
     15      24.4244      0.00000
     16      25.0942      0.00000
     17      25.9523      0.00000
     18      27.2483      0.00000
     19      28.4018      0.00000
     20      29.3309      0.00000
     21      30.4648      0.00000
     22      31.2424      0.00000
     23      33.1340      0.00000
     24      34.3601      0.00000

 k-point    19 :      -0.4286    0.4286    0.1429
  band No.  band energies     occupation 
      1      -4.2029      2.00000
      2      -2.0722      2.00000
      3       1.4920      2.00000
      4       1.9413      2.00000
      5       8.2898      0.00000
      6       8.6829      0.00000
      7      12.5533      0.00000
      8      15.2583      0.00000
      9      15.7156      0.00000
     10      17.7391      0.00000
     11      19.2212      0.00000
     12      20.7464      0.00000
     13      21.3922      0.00000
     14      22.0466      0.00000
     15      23.4620      0.00000
     16      24.3569      0.00000
     17      26.0587      0.00000
     18      27.3250      0.00000
     19      27.7699      0.00000
     20      28.0912      0.00000
     21      29.6222      0.00000
     22      30.4924      0.00000
     23      31.6514      0.00000
     24      32.9336      0.00000

 k-point    20 :      -0.2857    0.4286    0.1429
  band No.  band energies     occupation 
      1      -3.7163      2.00000
      2      -2.5156      2.00000
      3       0.7894      2.00000
      4       2.0462      2.00000
      5       8.8522      0.00000
      6      11.0683      0.00000
      7      12.0575      0.00000
      8      12.1519      0.00000
      9      15.6769      0.00000
     10      16.8836      0.00000
     11      19.9656      0.00000
     12      21.2427      0.00000
     13      21.8582      0.00000
     14      23.0200      0.00000
     15      24.6217      0.00000
     16      25.1888      0.00000
     17      25.7605      0.00000
     18      25.9585      0.00000
     19      27.0400      0.00000
     20      28.5192      0.00000
     21      29.5342      0.00000
     22      31.3310      0.00000
     23      33.1224      0.00000
     24      33.4199      0.00000


--------------------------------------------------------------------------------------------------------


 soft charge-density along one line, spin component           1
         0         1         2         3         4         5         6         7         8         9
 total charge-density along one line
 
 pseudopotential strength for first ion, spin component:           1
 17.861  24.921   0.000  -0.000  -0.000   0.000  -0.000  -0.000
 24.921  34.775   0.000  -0.000  -0.000   0.000  -0.000  -0.000
  0.000   0.000   4.077  -0.000  -0.000   7.600  -0.000  -0.000
 -0.000  -0.000  -0.000   4.077  -0.000  -0.000   7.600  -0.000
 -0.000  -0.000  -0.000  -0.000   4.077  -0.000  -0.000   7.600
  0.000   0.000   7.600  -0.000  -0.000  14.178  -0.000  -0.000
 -0.000  -0.000  -0.000   7.600  -0.000  -0.000  14.178  -0.000
 -0.000  -0.000  -0.000  -0.000   7.600  -0.000  -0.000  14.178
 total augmentation occupancy for first ion, spin component:           1
 10.958  -5.135  -0.000  -0.000  -0.000   0.000   0.000   0.000
 -5.135   2.457   0.000   0.000   0.000  -0.000  -0.000  -0.000
 -0.000   0.000   3.904  -0.000  -0.000  -1.039   0.000   0.000
 -0.000   0.000  -0.000   3.904  -0.000   0.000  -1.039   0.000
 -0.000   0.000  -0.000  -0.000   3.904   0.000   0.000  -1.039
  0.000  -0.000  -1.039   0.000   0.000   0.282  -0.000  -0.000
  0.000  -0.000   0.000  -1.039   0.000  -0.000   0.282  -0.000
  0.000  -0.000   0.000   0.000  -1.039  -0.000  -0.000   0.282


------------------------ aborting loop because EDIFF is reached ----------------------------------------





 total charge

# of ion       s       p       d       tot
------------------------------------------
    1        0.759   0.959   0.000   1.718
    2        0.759   0.959   0.000   1.718
--------------------------------------------------
tot          1.518   1.918   0.000   3.436
 
    CHARGE:  cpu time      0.0319: real time      0.0320
    FORLOC:  cpu time      0.0007: real time      0.0007
    FORHF :  cpu time      3.7527: real time      3.7628
    FORNL :  cpu time      0.0053: real time      0.0059
    FORCOR:  cpu time      0.1326: real time      0.1332
    FORHAR:  cpu time      0.0030: real time      0.0034
    MIXING:  cpu time      0.0001: real time      0.0001
    OFIELD:  cpu time      0.0010: real time      0.0012

 VOLUME and BASIS-vectors are now :
 -----------------------------------------------------------------------------
  energy-cutoff  :      680.00
  volume of cell :       40.33
      direct lattice vectors                 reciprocal lattice vectors
     3.333572997  0.000000000  1.924638998     0.299978432 -0.106058350  0.000000000
     1.111190999  3.142923999  1.924638999     0.000000000  0.318175050  0.000000000
     0.000000000  0.000000000  3.849278000    -0.149989216 -0.106058350  0.259788979

  length of vectors
     3.849278400  3.849279410  3.849278000     0.318175161  0.318175050  0.318175190


 FORCES acting on ions
    electron-ion (+dipol)            ewald-force                    non-local-force                 convergence-correction
 -----------------------------------------------------------------------------------------------
   0.599E-05 0.253E-04 -.677E-06   -.886E-05 -.418E-04 -.379E-07   -.396E-16 0.403E-16 -.124E-15   0.156E-05 0.265E-05 0.336E-05
   -.591E-05 -.253E-04 0.814E-06   0.886E-05 0.418E-04 0.379E-07   0.100E-15 -.841E-16 0.106E-15   -.155E-05 -.264E-05 -.336E-05
 -----------------------------------------------------------------------------------------------
   0.826E-07 0.673E-07 0.136E-06   -.602E-15 -.229E-16 -.120E-15   0.608E-16 -.438E-16 -.178E-16   0.864E-08 0.736E-08 0.158E-08
 
 
 POSITION                                       TOTAL-FORCE (eV/Angst)
 -----------------------------------------------------------------------------------
      3.88917      2.75006      6.73624         0.000000     -0.000000      0.000000
      0.55560      0.39287      0.96232        -0.000000      0.000000     -0.000000
 -----------------------------------------------------------------------------------
    total drift:                                0.000000      0.000000      0.000000


--------------------------------------------------------------------------------------------------------



  FREE ENERGIE OF THE ION-ELECTRON SYSTEM (eV)
  ---------------------------------------------------
  free  energy   TOTEN  =       -12.57928938 eV

  energy  without entropy=      -12.57928938  energy(sigma->0) =      -12.57928938
 


--------------------------------------------------------------------------------------------------------


    POTLOK:  cpu time      0.1342: real time      0.1347


--------------------------------------------------------------------------------------------------------


 writing wavefunctions
     LOOP+:  cpu time    130.0880: real time    130.6440
    4ORBIT:  cpu time      0.0000: real time      0.0000



 total charge

# of ion       s       p       d       tot
------------------------------------------
    1        0.759   0.959   0.000   1.718
    2        0.759   0.959   0.000   1.718
--------------------------------------------------
tot          1.518   1.918   0.000   3.436
 
 BZINTS: Fermi energy:    5.388489;    8.000000 electrons
         Band energy:-0.141143E+01;  BLOECHL correction:    0.000000

 total amount of memory used by VASP MPI-rank0    32351. kBytes
=======================================================================

   base      :      30000. kBytes
   nonl-proj :        267. kBytes
   fftplans  :        394. kBytes
   grid      :        463. kBytes
   one-center:          3. kBytes
   HF        :          4. kBytes
   nonlr-proj:        301. kBytes
   wavefun   :        138. kBytes
   fock_wrk  :        781. kBytes
 
  
  
 General timing and accounting informations for this job:
 ========================================================
  
                  Total CPU time used (sec):      135.285
                            User time (sec):      134.258
                          System time (sec):        1.027
                         Elapsed time (sec):      136.798
  
                   Maximum memory used (kb):      277236.
                   Average memory used (kb):          N/A
  
                          Minor page faults:        43751
                          Major page faults:            0
                 Voluntary context switches:         3077
