<?xml version="1.0" encoding="ISO-8859-1"?>
<modeling>
 <generator>
  <i name="program" type="string">vasp </i>
  <i name="version" type="string">6.4.2  </i>
  <i name="subversion" type="string">20Jul23 (build Mar 15 2024 16:31:38) complex                          parallel </i>
  <i name="platform" type="string">LinuxIFC </i>
  <i name="date" type="string">2025 03 27 </i>
  <i name="time" type="string">17:15:25 </i>
 </generator>
 <incar>
  <i type="string" name="PREC">Accurate</i>
  <i type="string" name="ALGO">Normal</i>
  <i type="int" name="ISPIN">     1</i>
  <i type="int" name="NELM">   200</i>
  <i type="int" name="NELMIN">     5</i>
  <i name="EDIFF">      0.00001000</i>
  <i type="int" name="NSW">     0</i>
  <i name="ENCUT">    680.00000000</i>
  <i name="ENAUG">   1360.00000000</i>
  <i type="int" name="NBANDS">    15</i>
  <i type="int" name="NEDOS">  1455</i>
  <i type="logical" name="LREAL"> F  </i>
  <i type="int" name="ISMEAR">    -5</i>
  <i name="SIGMA">      0.05000000</i>
  <i type="logical" name="LWAVE"> T  </i>
  <i type="logical" name="LCHARG"> F  </i>
  <i type="logical" name="LVTOT"> T  </i>
  <i type="int" name="LORBIT">    11</i>
  <i type="logical" name="LELF"> F  </i>
  <i type="logical" name="LASPH"> T  </i>
  <i type="logical" name="LAECHG"> T  </i>
  <i name="HFSCREEN">      0.20000000</i>
  <i type="logical" name="LHFCALC"> T  </i>
  <i type="string" name="GGA">Pe</i>
  <i type="string" name="PRECFOCK">Fast</i>
  <i type="logical" name="LDAU"> F  </i>
  <i type="logical" name="LMIXTAU"> T  </i>
 </incar>
 <primitive_cell>
  <structure name="primitive_cell" >
   <crystal>
    <varray name="basis" >
     <v>       3.33357300       0.00000000       1.92463900 </v>
     <v>       1.11119100       3.14292400       1.92463900 </v>
     <v>       0.00000000       0.00000000       3.84927800 </v>
    </varray>
    <i name="volume">     40.32952680 </i>
    <varray name="rec_basis" >
     <v>       0.29997843      -0.10605835       0.00000000 </v>
     <v>       0.00000000       0.31817505       0.00000000 </v>
     <v>      -0.14998922      -0.10605835       0.25978898 </v>
    </varray>
   </crystal>
   <varray name="positions" >
    <v>       0.87500000       0.87500000       0.87500000 </v>
    <v>       0.12500000       0.12500000       0.12500000 </v>
   </varray>
  </structure>
  <varray name="primitive_index" >
   <v type="int" >        1 </v>
   <v type="int" >        2 </v>
  </varray>
 </primitive_cell>
 <kpoints>
  <generation param="Gamma">
   <v type="int" name="divisions">       7        7        7 </v>
   <v name="usershift">      0.00000000       0.00000000       0.00000000 </v>
   <v name="genvec1">      0.14285714       0.00000000       0.00000000 </v>
   <v name="genvec2">      0.00000000       0.14285714       0.00000000 </v>
   <v name="genvec3">      0.00000000       0.00000000       0.14285714 </v>
   <v name="shift">      0.00000000       0.00000000       0.00000000 </v>
  </generation>
  <varray name="kpointlist" >
   <v>       0.00000000       0.00000000       0.00000000 </v>
   <v>       0.14285714      -0.00000000       0.00000000 </v>
   <v>       0.28571429      -0.00000000       0.00000000 </v>
   <v>       0.42857143      -0.00000000       0.00000000 </v>
   <v>       0.14285714       0.14285714       0.00000000 </v>
   <v>       0.28571429       0.14285714       0.00000000 </v>
   <v>       0.42857143       0.14285714       0.00000000 </v>
   <v>      -0.42857143       0.14285714       0.00000000 </v>
   <v>      -0.28571429       0.14285714       0.00000000 </v>
   <v>      -0.14285714       0.14285714       0.00000000 </v>
   <v>       0.28571429       0.28571429       0.00000000 </v>
   <v>       0.42857143       0.28571429       0.00000000 </v>
   <v>      -0.42857143       0.28571429       0.00000000 </v>
   <v>      -0.28571429       0.28571429       0.00000000 </v>
   <v>       0.42857143       0.42857143       0.00000000 </v>
   <v>      -0.42857143       0.42857143       0.00000000 </v>
   <v>       0.42857143       0.28571429       0.14285714 </v>
   <v>      -0.42857143       0.28571429       0.14285714 </v>
   <v>      -0.42857143       0.42857143       0.14285714 </v>
   <v>      -0.28571429       0.42857143       0.14285714 </v>
  </varray>
  <varray name="weights" >
   <v>       0.00291545 </v>
   <v>       0.02332362 </v>
   <v>       0.02332362 </v>
   <v>       0.02332362 </v>
   <v>       0.01749271 </v>
   <v>       0.06997085 </v>
   <v>       0.06997085 </v>
   <v>       0.06997085 </v>
   <v>       0.06997085 </v>
   <v>       0.03498542 </v>
   <v>       0.01749271 </v>
   <v>       0.06997085 </v>
   <v>       0.06997085 </v>
   <v>       0.03498542 </v>
   <v>       0.01749271 </v>
   <v>       0.03498542 </v>
   <v>       0.06997085 </v>
   <v>       0.13994169 </v>
   <v>       0.06997085 </v>
   <v>       0.06997085 </v>
  </varray>
  <varray name="tetrahedronlist"  type="int" >
   <v type="int" >       48        2        3        6       10 </v>
   <v type="int" >       48        6        9       10       17 </v>
   <v type="int" >       24        9        9       10       17 </v>
   <v type="int" >       48        3        6        9       10 </v>
   <v type="int" >       48        9       14       17       18 </v>
   <v type="int" >       48        8        9       14       18 </v>
   <v type="int" >       24        9        9       14       17 </v>
   <v type="int" >       48        8       13       18       18 </v>
   <v type="int" >       48        7        8       13       18 </v>
   <v type="int" >       48        8       13       14       18 </v>
   <v type="int" >       48        7       12       17       18 </v>
   <v type="int" >       48        6        7       12       17 </v>
   <v type="int" >       48        7       12       13       18 </v>
   <v type="int" >       24        6        6       11       17 </v>
   <v type="int" >       24        5        6        6       11 </v>
   <v type="int" >       48        6       11       12       17 </v>
   <v type="int" >       24        5        6        6       10 </v>
   <v type="int" >       48        2        5        6       10 </v>
   <v type="int" >       48        6        7        9       17 </v>
   <v type="int" >       48        3        6        7        9 </v>
   <v type="int" >       48       12       17       18       19 </v>
   <v type="int" >       24       17       18       18       19 </v>
   <v type="int" >       24       14       17       18       18 </v>
   <v type="int" >       48        7        9       17       18 </v>
   <v type="int" >       48       18       19       20       20 </v>
   <v type="int" >       24       18       18       20       20 </v>
   <v type="int" >       48       13       18       18       20 </v>
   <v type="int" >       24       18       18       19       20 </v>
   <v type="int" >       24       14       18       18       20 </v>
   <v type="int" >       48       13       14       18       20 </v>
   <v type="int" >       48       13       18       19       20 </v>
   <v type="int" >       48       12       13       18       19 </v>
   <v type="int" >       24       12       12       17       19 </v>
   <v type="int" >       24       11       12       12       17 </v>
   <v type="int" >       24        6        6       10       17 </v>
   <v type="int" >       48       12       13       16       19 </v>
   <v type="int" >       24       16       19       19       20 </v>
   <v type="int" >       12       19       19       20       20 </v>
   <v type="int" >       24       19       20       20       20 </v>
   <v type="int" >       48       13       16       19       20 </v>
   <v type="int" >        6       20       20       20       20 </v>
   <v type="int" >       48        7        8        8       18 </v>
   <v type="int" >       48        7        8        9       18 </v>
   <v type="int" >       24       13       13       16       20 </v>
   <v type="int" >       24        8        8       18       18 </v>
   <v type="int" >       24        2        2        5       10 </v>
   <v type="int" >       48        3        4        7        9 </v>
   <v type="int" >       48        4        7        8        9 </v>
   <v type="int" >       24       13       13       14       20 </v>
   <v type="int" >       24       12       12       15       19 </v>
   <v type="int" >       24       11       12       12       15 </v>
   <v type="int" >       48       12       15       16       19 </v>
   <v type="int" >       48        4        7        8        8 </v>
   <v type="int" >       12       16       16       19       19 </v>
   <v type="int" >       24       15       16       16       19 </v>
   <v type="int" >       24        4        4        8        8 </v>
   <v type="int" >       12       15       15       16       16 </v>
   <v type="int" >       24        1        2        2        5 </v>
  </varray>
  <i name="volumeweight">      0.00048591 </i>
 </kpoints>
 <parameters>
  <separator name="general" >
   <i type="string" name="SYSTEM">unknown system</i>
   <i type="logical" name="LCOMPAT"> F  </i>
  </separator>
  <separator name="electronic" >
   <i type="string" name="PREC">accura</i>
   <i name="ENMAX">    680.00000000</i>
   <i name="ENAUG">   1360.00000000</i>
   <i name="EDIFF">      0.00001000</i>
   <i type="int" name="IALGO">    38</i>
   <i type="int" name="IWAVPR">    10</i>
   <i type="int" name="NBANDS">    24</i>
   <i type="int" name="NBANDSLOW">    -1</i>
   <i type="int" name="NBANDSHIGH">    -1</i>
   <i name="NELECT">      8.00000000</i>
   <i type="int" name="TURBO">     0</i>
   <i type="int" name="IRESTART">     0</i>
   <i type="int" name="NREBOOT">     0</i>
   <i type="int" name="NMIN">     0</i>
   <i name="EREF">      0.00000000</i>
   <separator name="electronic smearing" >
    <i type="int" name="ISMEAR">    -5</i>
    <i name="SIGMA">      0.05000000</i>
    <i name="KSPACING">      0.50000000</i>
    <i type="logical" name="KGAMMA"> T  </i>
    <i type="logical" name="KBLOWUP"> T  </i>
   </separator>
   <separator name="electronic projectors" >
    <i type="logical" name="LREAL"> F  </i>
    <v name="ROPT">      0.00000000</v>
    <i type="int" name="LMAXPAW">  -100</i>
    <i type="int" name="LMAXMIX">     2</i>
    <i type="logical" name="NLSPLINE"> F  </i>
   </separator>
   <separator name="electronic startup" >
    <i type="int" name="ISTART">     0</i>
    <i type="int" name="ICHARG">     2</i>
    <i type="int" name="INIWAV">     1</i>
   </separator>
   <separator name="electronic spin" >
    <i type="int" name="ISPIN">     1</i>
    <i type="logical" name="LNONCOLLINEAR"> F  </i>
    <v name="MAGMOM">      1.00000000      1.00000000</v>
    <i name="NUPDOWN">     -1.00000000</i>
    <i type="logical" name="LSORBIT"> F  </i>
    <v name="SAXIS">      0.00000000      0.00000000      1.00000000</v>
    <i type="logical" name="LSPIRAL"> F  </i>
    <v name="QSPIRAL">      0.00000000      0.00000000      0.00000000</v>
    <i type="logical" name="LZEROZ"> F  </i>
   </separator>
   <separator name="electronic exchange-correlation" >
    <i type="logical" name="LASPH"> T  </i>
    <i type="logical" name="LMETAGGA"> F  </i>
   </separator>
   <separator name="electronic convergence" >
    <i type="int" name="NELM">   200</i>
    <i type="int" name="NELMDL">    -5</i>
    <i type="int" name="NELMIN">     5</i>
    <i name="ENINI">    680.00000000</i>
    <separator name="electronic convergence detail" >
     <i type="logical" name="LDIAG"> T  </i>
     <i type="logical" name="LSUBROT"> F  </i>
     <i name="WEIMIN">      0.00000000</i>
     <i name="EBREAK">      0.00000010</i>
     <i name="DEPER">      0.30000000</i>
     <i type="int" name="NRMM">     4</i>
     <i name="TIME">      0.40000000</i>
    </separator>
   </separator>
   <separator name="electronic mixer" >
    <i name="AMIX">      0.40000000</i>
    <i name="BMIX">      1.00000000</i>
    <i name="AMIN">      0.10000000</i>
    <i name="AMIX_MAG">      1.60000000</i>
    <i name="BMIX_MAG">      1.00000000</i>
    <separator name="electronic mixer details" >
     <i type="int" name="IMIX">     1</i>
     <i type="logical" name="MIXFIRST"> F  </i>
     <i type="int" name="MAXMIX">   -45</i>
     <i name="WC">    100.00000000</i>
     <i type="int" name="INIMIX">     1</i>
     <i type="int" name="MIXPRE">     1</i>
     <i type="int" name="MREMOVE">     5</i>
    </separator>
   </separator>
   <separator name="electronic dipolcorrection" >
    <i type="logical" name="LDIPOL"> F  </i>
    <i type="logical" name="LMONO"> F  </i>
    <i type="int" name="IDIPOL">     0</i>
    <i name="EPSILON">      1.00000000</i>
    <v name="DIPOL">   -100.00000000   -100.00000000   -100.00000000</v>
    <i name="EFIELD">      0.00000000</i>
   </separator>
  </separator>
  <separator name="grids" >
   <i type="int" name="NGX">    36</i>
   <i type="int" name="NGY">    36</i>
   <i type="int" name="NGZ">    36</i>
   <i type="int" name="NGXF">    72</i>
   <i type="int" name="NGYF">    72</i>
   <i type="int" name="NGZF">    72</i>
   <i type="logical" name="ADDGRID"> F  </i>
  </separator>
  <separator name="ionic" >
   <i type="int" name="NSW">     0</i>
   <i type="int" name="IBRION">    -1</i>
   <i type="int" name="MDALGO">     0</i>
   <i type="int" name="ISIF">     0</i>
   <i name="PSTRESS">      0.00000000</i>
   <i name="EDIFFG">      0.00010000</i>
   <i type="int" name="NFREE">     0</i>
   <i name="POTIM">      0.50000000</i>
   <i name="SMASS">     -3.00000000</i>
   <i name="SCALEE">      1.00000000</i>
  </separator>
  <separator name="ionic md" >
   <i name="TEBEG">      0.00010000</i>
   <i name="TEEND">      0.00010000</i>
   <i type="int" name="NBLOCK">     1</i>
   <i type="int" name="KBLOCK">     1</i>
   <i type="int" name="NPACO">   256</i>
   <i name="APACO">     10.00000000</i>
  </separator>
  <separator name="symmetry" >
   <i type="int" name="ISYM">     3</i>
   <i name="SYMPREC">      0.00001000</i>
  </separator>
  <separator name="dos" >
   <i type="int" name="LORBIT">    11</i>
   <v name="RWIGS">     -1.00000000</v>
   <i type="int" name="NEDOS">  1455</i>
   <i name="EMIN">     10.00000000</i>
   <i name="EMAX">    -10.00000000</i>
   <i name="EFERMI">      0.00000000</i>
  </separator>
  <separator name="writing" >
   <i type="int" name="NWRITE">     2</i>
   <i type="logical" name="LWAVE"> T  </i>
   <i type="logical" name="LDOWNSAMPLE"> F  </i>
   <i type="logical" name="LCHARG"> F  </i>
   <i type="logical" name="LPARD"> F  </i>
   <i type="logical" name="LVTOT"> T  </i>
   <i type="logical" name="LVHAR"> F  </i>
   <i type="logical" name="LELF"> F  </i>
   <i type="logical" name="LOPTICS"> F  </i>
   <v name="STM">      0.00000000      0.00000000      0.00000000      0.00000000      0.00000000      0.00000000      0.00000000</v>
  </separator>
  <separator name="performance" >
   <i type="int" name="NPAR">    12</i>
   <i type="int" name="NSIM">     4</i>
   <i type="int" name="NBLK">    -1</i>
   <i type="logical" name="LPLANE"> T  </i>
   <i type="logical" name="LSCALAPACK"> T  </i>
   <i type="logical" name="LSCAAWARE"> T  </i>
   <i type="logical" name="LSCALU"> F  </i>
   <i type="logical" name="LASYNC"> F  </i>
   <i type="logical" name="LORBITALREAL"> F  </i>
  </separator>
  <separator name="miscellaneous" >
   <i type="int" name="IDIOT">     3</i>
   <i type="int" name="PHON_NSTRUCT">    -1</i>
   <i type="logical" name="LMUSIC"> F  </i>
   <v name="POMASS">     28.08500000</v>
   <v name="DARWINR">      0.00000000</v>
   <v name="DARWINV">      1.00000000</v>
   <i type="logical" name="LCORR"> T  </i>
  </separator>
  <i type="logical" name="GGA_COMPAT"> T  </i>
  <i type="logical" name="LBERRY"> F  </i>
  <i type="int" name="ICORELEVEL">     0</i>
  <i type="logical" name="LDAU"> F  </i>
  <i type="int" name="I_CONSTRAINED_M">     0</i>
  <separator name="electronic exchange-correlation" >
   <i type="string" name="GGA">PE</i>
   <i type="int" name="VOSKOWN">     0</i>
   <i type="logical" name="LHFCALC"> T  </i>
   <i type="string" name="PRECFOCK">fast</i>
   <i type="logical" name="LSYMGRAD"> F  </i>
   <i type="logical" name="LHFONE"> F  </i>
   <i type="logical" name="LRHFCALC"> F  </i>
   <i type="logical" name="LTHOMAS"> F  </i>
   <i type="logical" name="LMODELHF"> F  </i>
   <i type="logical" name="LFOCKACE"> T  </i>
   <i name="ENCUT4O">     -1.00000000</i>
   <i type="int" name="EXXOEP">     0</i>
   <i type="int" name="FOURORBIT">     0</i>
   <i name="AEXX">      0.25000000</i>
   <i name="HFALPHA">     -1.00000000</i>
   <i name="MCALPHA">      0.00000000</i>
   <i name="ALDAX">      0.75000000</i>
   <i name="AGGAX">      0.75000000</i>
   <i name="ALDAC">      1.00000000</i>
   <i name="AGGAC">      1.00000000</i>
   <i type="int" name="NKREDX">     1</i>
   <i type="int" name="NKREDY">     1</i>
   <i type="int" name="NKREDZ">     1</i>
   <i type="logical" name="SHIFTRED"> F  </i>
   <i type="logical" name="ODDONLY"> F  </i>
   <i type="logical" name="EVENONLY"> F  </i>
   <i type="int" name="LMAXFOCK">     4</i>
   <i type="int" name="NMAXFOCKAE">     1</i>
   <i type="logical" name="LFOCKAEDFT"> F  </i>
   <i name="HFSCREEN">      0.20000000</i>
   <i name="HFSCREENC">      0.20000000</i>
   <i type="int" name="NBANDSGWLOW">     1</i>
  </separator>
  <separator name="vdW DFT" >
   <i type="logical" name="LUSE_VDW"> F  </i>
   <i type="int" name="IVDW_NL">     1</i>
   <i type="logical" name="LSPIN_VDW"> F  </i>
   <i name="Zab_VDW">     -0.84910000</i>
   <i name="PARAM1">      0.12340000</i>
   <i name="PARAM2">      1.00000000</i>
   <i name="PARAM3">      0.00000000</i>
  </separator>
  <separator name="model GW" >
   <i type="int" name="MODEL_GW">     0</i>
   <i name="MODEL_EPS0">     12.09885804</i>
   <i name="MODEL_ALPHA">      1.00000000</i>
  </separator>
  <separator name="linear response parameters" >
   <i type="logical" name="LEPSILON"> F  </i>
   <i type="logical" name="LRPA"> F  </i>
   <i type="logical" name="LNABLA"> F  </i>
   <i type="logical" name="LVEL"> F  </i>
   <i name="CSHIFT">      0.10000000</i>
   <i name="OMEGAMAX">     -1.00000000</i>
   <i name="DEG_THRESHOLD">      0.00200000</i>
   <i name="RTIME">     -0.10000000</i>
   <i name="WPLASMAI">      0.00000000</i>
   <v name="DFIELD">      0.00000000      0.00000000      0.00000000</v>
   <v name="WPLASMA">      0.00000000      0.00000000      0.00000000      0.00000000      0.00000000      0.00000000      0.00000000      0.00000000      0.00000000</v>
  </separator>
  <separator name="orbital magnetization" >
   <i type="logical" name="NUCIND"> F  </i>
   <v name="MAGPOS">      0.00000000      0.00000000      0.00000000</v>
   <i type="logical" name="LNICSALL"> T  </i>
   <i type="logical" name="ORBITALMAG"> F  </i>
   <i type="logical" name="LMAGBLOCH"> F  </i>
   <i type="logical" name="LCHIMAG"> F  </i>
   <i type="logical" name="LGAUGE"> T  </i>
   <i type="int" name="MAGATOM">     0</i>
   <v name="MAGDIPOL">      0.00000000      0.00000000      0.00000000</v>
   <v name="AVECCONST">      0.00000000      0.00000000      0.00000000</v>
  </separator>
  <separator name="response functions" >
   <i type="logical" name="LALL_IN_ONE"> F  </i>
   <i type="int" name="IALL_IN_ONE">    -1</i>
   <i type="int" name="NBANDS_WAVE">    -1</i>
   <i type="logical" name="LFINITE_TEMPERATURE"> F  </i>
   <i type="logical" name="LADDER"> F  </i>
   <i type="logical" name="LRPAFORCE"> F  </i>
   <i type="logical" name="LFXC"> F  </i>
   <i type="logical" name="LHARTREE"> T  </i>
   <i type="int" name="IBSE">     0</i>
   <v type="int" name="KPOINT">    -1     0     0     0</v>
   <i type="logical" name="LTCTC"> F  </i>
   <i type="logical" name="LTCTE"> F  </i>
   <i type="logical" name="LTETE"> F  </i>
   <i type="logical" name="LTRIPLET"> F  </i>
   <i type="logical" name="LFXCEPS"> F  </i>
   <i type="logical" name="LFXHEG"> F  </i>
   <i type="int" name="NATURALO">     2</i>
   <i type="logical" name="LHOLEGF"> F  </i>
   <i type="logical" name="L2ORDER"> F  </i>
   <i type="logical" name="LDMP1"> F  </i>
   <i type="logical" name="LMP2LT"> F  </i>
   <i type="logical" name="LSMP2LT"> F  </i>
   <i type="logical" name="LGWLF"> F  </i>
   <i name="ENCUTGW">     -1.60000002</i>
   <i name="ENCUTGWSOFT">     -1.60000002</i>
   <i name="ENCUTLF">     -1.00000000</i>
   <i type="logical" name="LESF_SPLINES"> F  </i>
   <i type="int" name="LMAXMP2">    -1</i>
   <i name="SCISSOR">      0.00000000</i>
   <i type="int" name="NOMEGA">     0</i>
   <i type="int" name="NOMEGAR">     0</i>
   <i type="int" name="NBANDSGW">    -1</i>
   <i type="int" name="NBANDSO">    -1</i>
   <i type="int" name="NBANDSV">    -1</i>
   <i type="int" name="NELMGW">     1</i>
   <i type="int" name="NELMHF">     1</i>
   <i type="int" name="DIM">     3</i>
   <i type="int" name="IESPILON">     4</i>
   <i type="int" name="ANTIRES">     0</i>
   <i name="OMEGAMAX">    -30.00000000</i>
   <i name="OMEGAMIN">    -30.00000000</i>
   <i name="OMEGATL">   -200.00000000</i>
   <i type="int" name="OMEGAGRID">     0</i>
   <i name="CSHIFT">     -0.10000000</i>
   <i type="logical" name="LSELFENERGY"> F  </i>
   <i type="logical" name="LSPECTRAL"> F  </i>
   <i type="logical" name="LSPECTRALGW"> F  </i>
   <i type="logical" name="LSINGLES"> F  </i>
   <i type="logical" name="LFERMIGW"> F  </i>
   <i type="logical" name="ODDONLYGW"> F  </i>
   <i type="logical" name="EVENONLYGW"> F  </i>
   <i type="int" name="NKREDLFX">     1</i>
   <i type="int" name="NKREDLFY">     1</i>
   <i type="int" name="NKREDLFZ">     1</i>
   <i type="int" name="MAXMEM">  2800</i>
   <i type="int" name="TELESCOPE">     0</i>
   <i type="int" name="NTAUPAR">    -1</i>
   <i type="int" name="NOMEGAPAR">    -1</i>
   <i name="DAMP_NEWTON">      0.80000001</i>
   <i name="LAMBDA">      1.00000000</i>
  </separator>
  <separator name="External order field" >
   <i name="OFIELD_KAPPA">      0.00000000</i>
   <v name="OFIELD_K">      0.00000000      0.00000000      0.00000000</v>
   <i name="OFIELD_Q6_NEAR">      0.00000000</i>
   <i name="OFIELD_Q6_FAR">      0.00000000</i>
   <i name="OFIELD_A">      0.00000000</i>
  </separator>
  <separator name="optional k-points parameters" >
   <i type="int" name="KPOINTS_OPT_MODE">     1</i>
   <i type="logical" name="LKPOINTS_OPT"> F  </i>
  </separator>
 </parameters>
 <atominfo>
  <atoms>       2 </atoms>
  <types>       1 </types>
  <array name="atoms" >
   <dimension dim="1">ion</dimension>
   <field type="string">element</field>
   <field type="int">atomtype</field>
   <set>
    <rc><c>Si</c><c>   1</c></rc>
    <rc><c>Si</c><c>   1</c></rc>
   </set>
  </array>
  <array name="atomtypes" >
   <dimension dim="1">type</dimension>
   <field type="int">atomspertype</field>
   <field type="string">element</field>
   <field>mass</field>
   <field>valence</field>
   <field type="string">pseudopotential</field>
   <set>
    <rc><c>   2</c><c>Si</c><c>     28.08500000</c><c>      4.00000000</c><c>  PAW_PBE Si 05Jan2001                  </c></rc>
   </set>
  </array>
 </atominfo>
 <structure name="initialpos" >
  <crystal>
   <varray name="basis" >
    <v>       3.33357300       0.00000000       1.92463900 </v>
    <v>       1.11119100       3.14292400       1.92463900 </v>
    <v>       0.00000000       0.00000000       3.84927800 </v>
   </varray>
   <i name="volume">     40.32952680 </i>
   <varray name="rec_basis" >
    <v>       0.29997843      -0.10605835       0.00000000 </v>
    <v>       0.00000000       0.31817505       0.00000000 </v>
    <v>      -0.14998922      -0.10605835       0.25978898 </v>
   </varray>
  </crystal>
  <varray name="positions" >
   <v>       0.87500000       0.87500000       0.87500000 </v>
   <v>       0.12500000       0.12500000       0.12500000 </v>
  </varray>
 </structure>
 <calculation>
  <scstep>
   <time name="dav">    0.69    0.71</time>
   <time name="total">    0.75    0.77</time>
   <energy>
    <i name="alphaZ">      3.33880742 </i>
    <i name="ewald">   -227.98820653 </i>
    <i name="hartreedc">    -11.11484529 </i>
    <i name="XCdc">    -18.63153738 </i>
    <i name="pawpsdc">    176.24759923 </i>
    <i name="pawaedc">   -391.65626926 </i>
    <i name="eentropy">      0.00000000 </i>
    <i name="bandstr">     16.62057290 </i>
    <i name="atom">    203.99906502 </i>
    <i name="e_fr_energy">   -249.18481390 </i>
    <i name="e_wo_entrp">   -249.18481390 </i>
    <i name="e_0_energy">   -249.18481390 </i>
   </energy>
  </scstep>
  <scstep>
   <time name="dav">    0.19    0.19</time>
   <time name="total">    0.19    0.20</time>
   <energy>
    <i name="e_fr_energy">   -267.12581090 </i>
    <i name="e_wo_entrp">   -267.12581090 </i>
    <i name="e_0_energy">   -267.12581090 </i>
   </energy>
  </scstep>
  <scstep>
   <time name="dav">    0.16    0.18</time>
   <time name="total">    0.16    0.18</time>
   <energy>
    <i name="e_fr_energy">   -267.48025296 </i>
    <i name="e_wo_entrp">   -267.48025296 </i>
    <i name="e_0_energy">   -267.48025296 </i>
   </energy>
  </scstep>
  <scstep>
   <time name="dav">    0.17    0.19</time>
   <time name="total">    0.18    0.19</time>
   <energy>
    <i name="e_fr_energy">   -267.48142713 </i>
    <i name="e_wo_entrp">   -267.48142713 </i>
    <i name="e_0_energy">   -267.48142713 </i>
   </energy>
  </scstep>
  <scstep>
   <time name="dav">   14.27   14.31</time>
   <time name="total">   14.45   14.51</time>
   <energy>
    <i name="e_fr_energy">    -12.94153427 </i>
    <i name="e_wo_entrp">    -12.94153427 </i>
    <i name="e_0_energy">    -12.94153427 </i>
   </energy>
  </scstep>
  <scstep>
   <time name="dav">   13.22   13.25</time>
   <time name="total">   13.38   13.43</time>
   <energy>
    <i name="e_fr_energy">    -12.68702157 </i>
    <i name="e_wo_entrp">    -12.68702157 </i>
    <i name="e_0_energy">    -12.68702157 </i>
   </energy>
  </scstep>
  <scstep>
   <time name="dav">   13.26   13.29</time>
   <time name="total">   13.42   13.47</time>
   <energy>
    <i name="e_fr_energy">    -12.60688807 </i>
    <i name="e_wo_entrp">    -12.60688807 </i>
    <i name="e_0_energy">    -12.60688807 </i>
   </energy>
  </scstep>
  <scstep>
   <time name="dav">   14.46   14.49</time>
   <time name="total">   14.62   14.68</time>
   <energy>
    <i name="e_fr_energy">    -12.58615499 </i>
    <i name="e_wo_entrp">    -12.58615499 </i>
    <i name="e_0_energy">    -12.58615499 </i>
   </energy>
  </scstep>
  <scstep>
   <time name="dav">   13.24   13.27</time>
   <time name="total">   13.40   13.46</time>
   <energy>
    <i name="e_fr_energy">    -12.58091747 </i>
    <i name="e_wo_entrp">    -12.58091747 </i>
    <i name="e_0_energy">    -12.58091747 </i>
   </energy>
  </scstep>
  <scstep>
   <time name="dav">   13.72   13.75</time>
   <time name="total">   13.89   13.94</time>
   <energy>
    <i name="e_fr_energy">    -12.57961315 </i>
    <i name="e_wo_entrp">    -12.57961315 </i>
    <i name="e_0_energy">    -12.57961315 </i>
   </energy>
  </scstep>
  <scstep>
   <time name="dav">   13.92   13.95</time>
   <time name="total">   14.09   14.14</time>
   <energy>
    <i name="e_fr_energy">    -12.57932253 </i>
    <i name="e_wo_entrp">    -12.57932253 </i>
    <i name="e_0_energy">    -12.57932253 </i>
   </energy>
  </scstep>
  <scstep>
   <time name="dav">   13.23   13.26</time>
   <time name="total">   13.39   13.44</time>
   <energy>
    <i name="e_fr_energy">    -12.57927999 </i>
    <i name="e_wo_entrp">    -12.57927999 </i>
    <i name="e_0_energy">    -12.57927999 </i>
   </energy>
  </scstep>
  <scstep>
   <time name="dav">   13.89   13.93</time>
   <time name="total">   14.02   14.08</time>
   <energy>
    <i name="alphaZ">      3.33880742 </i>
    <i name="ewald">   -227.98820653 </i>
    <i name="hartreedc">    -15.02790123 </i>
    <i name="XCdc">    -14.40415957 </i>
    <i name="pawpsdc">   1647.11955957 </i>
    <i name="pawaedc">  -1619.48031857 </i>
    <i name="eentropy">      0.00000000 </i>
    <i name="bandstr">     -1.41142728 </i>
    <i name="atom">    203.99906502 </i>
    <i name="e_fr_energy">    -12.57928938 </i>
    <i name="e_wo_entrp">    -12.57928938 </i>
    <i name="e_0_energy">    -12.57928938 </i>
   </energy>
  </scstep>
  <structure>
   <crystal>
    <varray name="basis" >
     <v>       3.33357300       0.00000000       1.92463900 </v>
     <v>       1.11119100       3.14292400       1.92463900 </v>
     <v>       0.00000000       0.00000000       3.84927800 </v>
    </varray>
    <i name="volume">     40.32952680 </i>
    <varray name="rec_basis" >
     <v>       0.29997843      -0.10605835       0.00000000 </v>
     <v>       0.00000000       0.31817505       0.00000000 </v>
     <v>      -0.14998922      -0.10605835       0.25978898 </v>
    </varray>
   </crystal>
   <varray name="positions" >
    <v>       0.87500000       0.87500000       0.87500000 </v>
    <v>       0.12500000       0.12500000       0.12500000 </v>
   </varray>
  </structure>
  <varray name="forces" >
   <v>       0.00000000      -0.00000000       0.00000000 </v>
   <v>      -0.00000000       0.00000000      -0.00000000 </v>
  </varray>
  <energy>
   <i name="e_fr_energy">    -12.57928938 </i>
   <i name="e_wo_entrp">    -12.57928938 </i>
   <i name="e_0_energy">    -12.57928938 </i>
  </energy>
  <time name="totalsc">  130.09  130.64</time>
  <eigenvalues>
   <array>
    <dimension dim="1">band</dimension>
    <dimension dim="2">kpoint</dimension>
    <dimension dim="3">spin</dimension>
    <field>eigene</field>
    <field>occ</field>
    <set>
     <set comment="spin 1">
      <set comment="kpoint 1">
       <r>   -7.8579    1.0000 </r>
       <r>    5.3871    1.0000 </r>
       <r>    5.3871    1.0000 </r>
       <r>    5.3871    1.0000 </r>
       <r>    8.7286    0.0000 </r>
       <r>    8.7286    0.0000 </r>
       <r>    8.7286    0.0000 </r>
       <r>    9.6375    0.0000 </r>
       <r>   14.1582    0.0000 </r>
       <r>   14.1902    0.0000 </r>
       <r>   14.1902    0.0000 </r>
       <r>   17.7114    0.0000 </r>
       <r>   17.7114    0.0000 </r>
       <r>   17.7114    0.0000 </r>
       <r>   21.6189    0.0000 </r>
       <r>   30.0715    0.0000 </r>
       <r>   30.0715    0.0000 </r>
       <r>   30.0715    0.0000 </r>
       <r>   31.3633    0.0000 </r>
       <r>   31.3633    0.0000 </r>
       <r>   32.8724    0.0000 </r>
       <r>   32.8724    0.0000 </r>
       <r>   32.8724    0.0000 </r>
       <r>   36.0997    0.0000 </r>
      </set>
      <set comment="kpoint 2">
       <r>   -7.5646    1.0000 </r>
       <r>    3.3296    1.0000 </r>
       <r>    5.0167    1.0000 </r>
       <r>    5.0167    1.0000 </r>
       <r>    8.5868    0.0000 </r>
       <r>    9.2776    0.0000 </r>
       <r>    9.2776    0.0000 </r>
       <r>   11.3419    0.0000 </r>
       <r>   13.5722    0.0000 </r>
       <r>   13.5722    0.0000 </r>
       <r>   15.1930    0.0000 </r>
       <r>   17.0228    0.0000 </r>
       <r>   19.2678    0.0000 </r>
       <r>   19.2678    0.0000 </r>
       <r>   23.2738    0.0000 </r>
       <r>   27.5018    0.0000 </r>
       <r>   27.5018    0.0000 </r>
       <r>   27.9458    0.0000 </r>
       <r>   30.9660    0.0000 </r>
       <r>   30.9661    0.0000 </r>
       <r>   33.4629    0.0000 </r>
       <r>   33.4629    0.0000 </r>
       <r>   34.5711    0.0000 </r>
       <r>   36.3484    0.0000 </r>
      </set>
      <set comment="kpoint 3">
       <r>   -6.7181    1.0000 </r>
       <r>    0.4066    1.0000 </r>
       <r>    4.4511    1.0000 </r>
       <r>    4.4511    1.0000 </r>
       <r>    8.0092    0.0000 </r>
       <r>    9.7618    0.0000 </r>
       <r>    9.7618    0.0000 </r>
       <r>   13.8884    0.0000 </r>
       <r>   13.8884    0.0000 </r>
       <r>   13.8925    0.0000 </r>
       <r>   15.2122    0.0000 </r>
       <r>   19.1199    0.0000 </r>
       <r>   21.8250    0.0000 </r>
       <r>   21.8250    0.0000 </r>
       <r>   23.9984    0.0000 </r>
       <r>   23.9984    0.0000 </r>
       <r>   24.3498    0.0000 </r>
       <r>   27.1363    0.0000 </r>
       <r>   31.1800    0.0000 </r>
       <r>   31.1801    0.0000 </r>
       <r>   33.8367    0.0000 </r>
       <r>   33.8644    0.0000 </r>
       <r>   33.8644    0.0000 </r>
       <r>   36.5791    0.0000 </r>
      </set>
      <set comment="kpoint 4">
       <r>   -5.5664    1.0000 </r>
       <r>   -1.8714    1.0000 </r>
       <r>    4.1243    1.0000 </r>
       <r>    4.1243    1.0000 </r>
       <r>    7.6616    0.0000 </r>
       <r>    9.5922    0.0000 </r>
       <r>    9.5922    0.0000 </r>
       <r>   14.0789    0.0000 </r>
       <r>   16.0481    0.0000 </r>
       <r>   16.0481    0.0000 </r>
       <r>   17.0916    0.0000 </r>
       <r>   19.2819    0.0000 </r>
       <r>   19.2819    0.0000 </r>
       <r>   20.4365    0.0000 </r>
       <r>   24.3309    0.0000 </r>
       <r>   26.6224    0.0000 </r>
       <r>   26.6224    0.0000 </r>
       <r>   28.8129    0.0000 </r>
       <r>   30.2624    0.0000 </r>
       <r>   30.2624    0.0000 </r>
       <r>   31.0331    0.0000 </r>
       <r>   33.5617    0.0000 </r>
       <r>   33.5617    0.0000 </r>
       <r>   34.7144    0.0000 </r>
      </set>
      <set comment="kpoint 5">
       <r>   -7.4653    1.0000 </r>
       <r>    3.6519    1.0000 </r>
       <r>    4.3648    1.0000 </r>
       <r>    4.3648    1.0000 </r>
       <r>    7.9718    0.0000 </r>
       <r>   10.2116    0.0000 </r>
       <r>   10.2116    0.0000 </r>
       <r>   10.7170    0.0000 </r>
       <r>   12.8248    0.0000 </r>
       <r>   14.6094    0.0000 </r>
       <r>   15.6314    0.0000 </r>
       <r>   18.3585    0.0000 </r>
       <r>   18.3585    0.0000 </r>
       <r>   18.8674    0.0000 </r>
       <r>   24.1256    0.0000 </r>
       <r>   26.9958    0.0000 </r>
       <r>   26.9958    0.0000 </r>
       <r>   28.3183    0.0000 </r>
       <r>   29.3931    0.0000 </r>
       <r>   30.5237    0.0000 </r>
       <r>   33.7636    0.0000 </r>
       <r>   34.1014    0.0000 </r>
       <r>   34.1015    0.0000 </r>
       <r>   38.7206    0.0000 </r>
      </set>
      <set comment="kpoint 6">
       <r>   -6.7949    1.0000 </r>
       <r>    1.2901    1.0000 </r>
       <r>    3.7498    1.0000 </r>
       <r>    3.7624    1.0000 </r>
       <r>    8.1522    0.0000 </r>
       <r>   10.1911    0.0000 </r>
       <r>   10.7734    0.0000 </r>
       <r>   11.0588    0.0000 </r>
       <r>   14.6823    0.0000 </r>
       <r>   15.0092    0.0000 </r>
       <r>   16.6027    0.0000 </r>
       <r>   18.5463    0.0000 </r>
       <r>   20.1760    0.0000 </r>
       <r>   21.6274    0.0000 </r>
       <r>   23.4671    0.0000 </r>
       <r>   24.1441    0.0000 </r>
       <r>   26.4943    0.0000 </r>
       <r>   28.1169    0.0000 </r>
       <r>   28.3481    0.0000 </r>
       <r>   29.9216    0.0000 </r>
       <r>   33.2109    0.0000 </r>
       <r>   34.5125    0.0000 </r>
       <r>   34.6119    0.0000 </r>
       <r>   36.8622    0.0000 </r>
      </set>
      <set comment="kpoint 7">
       <r>   -5.6780    1.0000 </r>
       <r>   -1.1571    1.0000 </r>
       <r>    2.9940    1.0000 </r>
       <r>    3.5435    1.0000 </r>
       <r>    8.2356    0.0000 </r>
       <r>   10.0458    0.0000 </r>
       <r>   10.8186    0.0000 </r>
       <r>   12.1268    0.0000 </r>
       <r>   15.8617    0.0000 </r>
       <r>   16.8534    0.0000 </r>
       <r>   17.5603    0.0000 </r>
       <r>   18.9609    0.0000 </r>
       <r>   19.7218    0.0000 </r>
       <r>   22.3894    0.0000 </r>
       <r>   24.2482    0.0000 </r>
       <r>   24.4415    0.0000 </r>
       <r>   26.0191    0.0000 </r>
       <r>   28.5347    0.0000 </r>
       <r>   29.1390    0.0000 </r>
       <r>   30.5367    0.0000 </r>
       <r>   31.2942    0.0000 </r>
       <r>   31.6172    0.0000 </r>
       <r>   34.5592    0.0000 </r>
       <r>   35.1356    0.0000 </r>
      </set>
      <set comment="kpoint 8">
       <r>   -5.0583    1.0000 </r>
       <r>   -2.1246    1.0000 </r>
       <r>    2.5335    1.0000 </r>
       <r>    3.7547    1.0000 </r>
       <r>    8.3588    0.0000 </r>
       <r>    9.9215    0.0000 </r>
       <r>   10.4008    0.0000 </r>
       <r>   14.6509    0.0000 </r>
       <r>   15.1655    0.0000 </r>
       <r>   15.5900    0.0000 </r>
       <r>   17.4671    0.0000 </r>
       <r>   19.9108    0.0000 </r>
       <r>   20.4025    0.0000 </r>
       <r>   21.1061    0.0000 </r>
       <r>   24.8638    0.0000 </r>
       <r>   26.7551    0.0000 </r>
       <r>   27.3692    0.0000 </r>
       <r>   27.7476    0.0000 </r>
       <r>   28.5675    0.0000 </r>
       <r>   29.0116    0.0000 </r>
       <r>   31.6395    0.0000 </r>
       <r>   32.5193    0.0000 </r>
       <r>   33.1425    0.0000 </r>
       <r>   34.4823    0.0000 </r>
      </set>
      <set comment="kpoint 9">
       <r>   -6.0863    1.0000 </r>
       <r>   -0.3952    1.0000 </r>
       <r>    2.5422    1.0000 </r>
       <r>    4.3170    1.0000 </r>
       <r>    8.8091    0.0000 </r>
       <r>   10.1152    0.0000 </r>
       <r>   10.1718    0.0000 </r>
       <r>   13.0537    0.0000 </r>
       <r>   13.1303    0.0000 </r>
       <r>   16.2709    0.0000 </r>
       <r>   17.8729    0.0000 </r>
       <r>   18.8515    0.0000 </r>
       <r>   20.7255    0.0000 </r>
       <r>   22.5566    0.0000 </r>
       <r>   23.1305    0.0000 </r>
       <r>   24.4249    0.0000 </r>
       <r>   26.0141    0.0000 </r>
       <r>   28.7121    0.0000 </r>
       <r>   29.1667    0.0000 </r>
       <r>   29.9622    0.0000 </r>
       <r>   31.7320    0.0000 </r>
       <r>   33.0086    0.0000 </r>
       <r>   34.3784    0.0000 </r>
       <r>   35.4828    0.0000 </r>
      </set>
      <set comment="kpoint 10">
       <r>   -7.0830    1.0000 </r>
       <r>    1.9799    1.0000 </r>
       <r>    3.3107    1.0000 </r>
       <r>    4.9599    1.0000 </r>
       <r>    9.2812    0.0000 </r>
       <r>    9.5313    0.0000 </r>
       <r>    9.6871    0.0000 </r>
       <r>   11.9750    0.0000 </r>
       <r>   12.5397    0.0000 </r>
       <r>   15.0485    0.0000 </r>
       <r>   16.4751    0.0000 </r>
       <r>   17.7406    0.0000 </r>
       <r>   19.2982    0.0000 </r>
       <r>   21.8569    0.0000 </r>
       <r>   23.5176    0.0000 </r>
       <r>   25.1550    0.0000 </r>
       <r>   27.5822    0.0000 </r>
       <r>   27.6472    0.0000 </r>
       <r>   28.2966    0.0000 </r>
       <r>   29.8885    0.0000 </r>
       <r>   33.6909    0.0000 </r>
       <r>   33.9549    0.0000 </r>
       <r>   36.4398    0.0000 </r>
       <r>   36.4624    0.0000 </r>
      </set>
      <set comment="kpoint 11">
       <r>   -6.3037    1.0000 </r>
       <r>    0.8315    1.0000 </r>
       <r>    3.0717    1.0000 </r>
       <r>    3.0717    1.0000 </r>
       <r>    6.9387    0.0000 </r>
       <r>    8.7367    0.0000 </r>
       <r>   12.8292    0.0000 </r>
       <r>   12.8292    0.0000 </r>
       <r>   15.3609    0.0000 </r>
       <r>   15.8577    0.0000 </r>
       <r>   18.6277    0.0000 </r>
       <r>   20.0400    0.0000 </r>
       <r>   20.0400    0.0000 </r>
       <r>   20.7470    0.0000 </r>
       <r>   23.4050    0.0000 </r>
       <r>   23.4050    0.0000 </r>
       <r>   24.2565    0.0000 </r>
       <r>   26.6895    0.0000 </r>
       <r>   28.7594    0.0000 </r>
       <r>   32.4443    0.0000 </r>
       <r>   32.7070    0.0000 </r>
       <r>   33.8652    0.0000 </r>
       <r>   33.8652    0.0000 </r>
       <r>   35.7994    0.0000 </r>
      </set>
      <set comment="kpoint 12">
       <r>   -5.3030    1.0000 </r>
       <r>   -0.8563    1.0000 </r>
       <r>    2.0241    1.0000 </r>
       <r>    2.7780    1.0000 </r>
       <r>    7.2371    0.0000 </r>
       <r>    8.8188    0.0000 </r>
       <r>   13.0604    0.0000 </r>
       <r>   13.2342    0.0000 </r>
       <r>   17.5464    0.0000 </r>
       <r>   17.9962    0.0000 </r>
       <r>   18.2673    0.0000 </r>
       <r>   18.9549    0.0000 </r>
       <r>   20.6500    0.0000 </r>
       <r>   21.7199    0.0000 </r>
       <r>   22.9880    0.0000 </r>
       <r>   24.6105    0.0000 </r>
       <r>   24.6340    0.0000 </r>
       <r>   26.4766    0.0000 </r>
       <r>   28.8666    0.0000 </r>
       <r>   29.4313    0.0000 </r>
       <r>   31.8526    0.0000 </r>
       <r>   32.0995    0.0000 </r>
       <r>   32.5861    0.0000 </r>
       <r>   34.1182    0.0000 </r>
      </set>
      <set comment="kpoint 13">
       <r>   -4.2830    1.0000 </r>
       <r>   -2.1745    1.0000 </r>
       <r>    0.9736    1.0000 </r>
       <r>    2.9624    1.0000 </r>
       <r>    7.5035    0.0000 </r>
       <r>   11.1976    0.0000 </r>
       <r>   12.7023    0.0000 </r>
       <r>   12.7886    0.0000 </r>
       <r>   15.5994    0.0000 </r>
       <r>   15.6308    0.0000 </r>
       <r>   19.8599    0.0000 </r>
       <r>   20.5547    0.0000 </r>
       <r>   21.0919    0.0000 </r>
       <r>   24.2259    0.0000 </r>
       <r>   24.3460    0.0000 </r>
       <r>   24.7905    0.0000 </r>
       <r>   25.1781    0.0000 </r>
       <r>   26.8321    0.0000 </r>
       <r>   27.1188    0.0000 </r>
       <r>   29.4502    0.0000 </r>
       <r>   30.7271    0.0000 </r>
       <r>   31.0589    0.0000 </r>
       <r>   31.2867    0.0000 </r>
       <r>   34.7931    0.0000 </r>
      </set>
      <set comment="kpoint 14">
       <r>   -5.0058    1.0000 </r>
       <r>   -1.3342    1.0000 </r>
       <r>    0.8931    1.0000 </r>
       <r>    3.5687    1.0000 </r>
       <r>    8.1634    0.0000 </r>
       <r>   11.8689    0.0000 </r>
       <r>   12.0640    0.0000 </r>
       <r>   13.0657    0.0000 </r>
       <r>   13.2437    0.0000 </r>
       <r>   14.6967    0.0000 </r>
       <r>   19.8522    0.0000 </r>
       <r>   20.4006    0.0000 </r>
       <r>   21.7699    0.0000 </r>
       <r>   23.4752    0.0000 </r>
       <r>   23.7128    0.0000 </r>
       <r>   24.6940    0.0000 </r>
       <r>   24.7737    0.0000 </r>
       <r>   27.5692    0.0000 </r>
       <r>   29.4873    0.0000 </r>
       <r>   29.8657    0.0000 </r>
       <r>   30.9507    0.0000 </r>
       <r>   32.1707    0.0000 </r>
       <r>   32.3329    0.0000 </r>
       <r>   33.3746    0.0000 </r>
      </set>
      <set comment="kpoint 15">
       <r>   -4.4311    1.0000 </r>
       <r>   -1.9756    1.0000 </r>
       <r>    2.3622    1.0000 </r>
       <r>    2.3622    1.0000 </r>
       <r>    6.5566    0.0000 </r>
       <r>    7.1115    0.0000 </r>
       <r>   15.6710    0.0000 </r>
       <r>   15.6710    0.0000 </r>
       <r>   17.9103    0.0000 </r>
       <r>   18.4778    0.0000 </r>
       <r>   18.7968    0.0000 </r>
       <r>   18.7968    0.0000 </r>
       <r>   20.4441    0.0000 </r>
       <r>   20.7299    0.0000 </r>
       <r>   23.7560    0.0000 </r>
       <r>   24.5329    0.0000 </r>
       <r>   24.5329    0.0000 </r>
       <r>   25.8245    0.0000 </r>
       <r>   28.5532    0.0000 </r>
       <r>   28.9988    0.0000 </r>
       <r>   28.9988    0.0000 </r>
       <r>   30.1293    0.0000 </r>
       <r>   31.6714    0.0000 </r>
       <r>   33.6386    0.0000 </r>
      </set>
      <set comment="kpoint 16">
       <r>   -3.3726    1.0000 </r>
       <r>   -3.0483    1.0000 </r>
       <r>    1.4145    1.0000 </r>
       <r>    2.4299    1.0000 </r>
       <r>    6.8817    0.0000 </r>
       <r>    8.2097    0.0000 </r>
       <r>   15.4555    0.0000 </r>
       <r>   15.9296    0.0000 </r>
       <r>   16.0077    0.0000 </r>
       <r>   16.2748    0.0000 </r>
       <r>   20.5228    0.0000 </r>
       <r>   20.5864    0.0000 </r>
       <r>   20.7206    0.0000 </r>
       <r>   21.6349    0.0000 </r>
       <r>   23.7788    0.0000 </r>
       <r>   24.0942    0.0000 </r>
       <r>   26.4455    0.0000 </r>
       <r>   26.9392    0.0000 </r>
       <r>   27.3478    0.0000 </r>
       <r>   28.3910    0.0000 </r>
       <r>   28.5756    0.0000 </r>
       <r>   29.7244    0.0000 </r>
       <r>   30.8552    0.0000 </r>
       <r>   32.1496    0.0000 </r>
      </set>
      <set comment="kpoint 17">
       <r>   -5.9617    1.0000 </r>
       <r>    0.0048    1.0000 </r>
       <r>    2.0363    1.0000 </r>
       <r>    3.4728    1.0000 </r>
       <r>    8.6951    0.0000 </r>
       <r>   10.0372    0.0000 </r>
       <r>   10.3929    0.0000 </r>
       <r>   12.5484    0.0000 </r>
       <r>   14.7454    0.0000 </r>
       <r>   17.5658    0.0000 </r>
       <r>   18.1165    0.0000 </r>
       <r>   19.0411    0.0000 </r>
       <r>   20.3203    0.0000 </r>
       <r>   22.0499    0.0000 </r>
       <r>   22.5196    0.0000 </r>
       <r>   25.3282    0.0000 </r>
       <r>   25.4956    0.0000 </r>
       <r>   27.5686    0.0000 </r>
       <r>   28.4202    0.0000 </r>
       <r>   31.2109    0.0000 </r>
       <r>   31.3971    0.0000 </r>
       <r>   31.9884    0.0000 </r>
       <r>   33.2554    0.0000 </r>
       <r>   35.5577    0.0000 </r>
      </set>
      <set comment="kpoint 18">
       <r>   -4.8051    1.0000 </r>
       <r>   -1.7098    1.0000 </r>
       <r>    1.3993    1.0000 </r>
       <r>    2.8860    1.0000 </r>
       <r>    9.2136    0.0000 </r>
       <r>    9.6667    0.0000 </r>
       <r>   11.8066    0.0000 </r>
       <r>   13.0223    0.0000 </r>
       <r>   14.8630    0.0000 </r>
       <r>   16.5897    0.0000 </r>
       <r>   18.7095    0.0000 </r>
       <r>   20.1139    0.0000 </r>
       <r>   21.4496    0.0000 </r>
       <r>   22.6373    0.0000 </r>
       <r>   24.4244    0.0000 </r>
       <r>   25.0942    0.0000 </r>
       <r>   25.9523    0.0000 </r>
       <r>   27.2483    0.0000 </r>
       <r>   28.4018    0.0000 </r>
       <r>   29.3309    0.0000 </r>
       <r>   30.4648    0.0000 </r>
       <r>   31.2424    0.0000 </r>
       <r>   33.1340    0.0000 </r>
       <r>   34.3601    0.0000 </r>
      </set>
      <set comment="kpoint 19">
       <r>   -4.2029    1.0000 </r>
       <r>   -2.0722    1.0000 </r>
       <r>    1.4920    1.0000 </r>
       <r>    1.9413    1.0000 </r>
       <r>    8.2898    0.0000 </r>
       <r>    8.6829    0.0000 </r>
       <r>   12.5533    0.0000 </r>
       <r>   15.2583    0.0000 </r>
       <r>   15.7156    0.0000 </r>
       <r>   17.7391    0.0000 </r>
       <r>   19.2212    0.0000 </r>
       <r>   20.7464    0.0000 </r>
       <r>   21.3922    0.0000 </r>
       <r>   22.0466    0.0000 </r>
       <r>   23.4620    0.0000 </r>
       <r>   24.3569    0.0000 </r>
       <r>   26.0587    0.0000 </r>
       <r>   27.3250    0.0000 </r>
       <r>   27.7699    0.0000 </r>
       <r>   28.0912    0.0000 </r>
       <r>   29.6222    0.0000 </r>
       <r>   30.4924    0.0000 </r>
       <r>   31.6514    0.0000 </r>
       <r>   32.9336    0.0000 </r>
      </set>
      <set comment="kpoint 20">
       <r>   -3.7163    1.0000 </r>
       <r>   -2.5156    1.0000 </r>
       <r>    0.7894    1.0000 </r>
       <r>    2.0462    1.0000 </r>
       <r>    8.8522    0.0000 </r>
       <r>   11.0683    0.0000 </r>
       <r>   12.0575    0.0000 </r>
       <r>   12.1519    0.0000 </r>
       <r>   15.6769    0.0000 </r>
       <r>   16.8836    0.0000 </r>
       <r>   19.9656    0.0000 </r>
       <r>   21.2427    0.0000 </r>
       <r>   21.8582    0.0000 </r>
       <r>   23.0200    0.0000 </r>
       <r>   24.6217    0.0000 </r>
       <r>   25.1888    0.0000 </r>
       <r>   25.7605    0.0000 </r>
       <r>   25.9585    0.0000 </r>
       <r>   27.0400    0.0000 </r>
       <r>   28.5192    0.0000 </r>
       <r>   29.5342    0.0000 </r>
       <r>   31.3310    0.0000 </r>
       <r>   33.1224    0.0000 </r>
       <r>   33.4199    0.0000 </r>
      </set>
     </set>
    </set>
   </array>
  </eigenvalues>
  <separator name="orbital magnetization" >
   <v name="MAGDIPOLOUT">      0.00000000      0.00000000      0.00000000</v>
  </separator>
  <dos>
   <i name="efermi">      5.38848936 </i>
   <total>
    <array>
     <dimension dim="1">gridpoints</dimension>
     <dimension dim="2">spin</dimension>
     <field>energy</field>
     <field>total</field>
     <field>integrated</field>
     <set>
      <set comment="spin 1">
       <r>   -10.1868     0.0000     0.0000 </r>
       <r>   -10.1516     0.0000     0.0000 </r>
       <r>   -10.1163     0.0000     0.0000 </r>
       <r>   -10.0811     0.0000     0.0000 </r>
       <r>   -10.0459     0.0000     0.0000 </r>
       <r>   -10.0106     0.0000     0.0000 </r>
       <r>    -9.9754     0.0000     0.0000 </r>
       <r>    -9.9402     0.0000     0.0000 </r>
       <r>    -9.9049     0.0000     0.0000 </r>
       <r>    -9.8697     0.0000     0.0000 </r>
       <r>    -9.8344     0.0000     0.0000 </r>
       <r>    -9.7992     0.0000     0.0000 </r>
       <r>    -9.7640     0.0000     0.0000 </r>
       <r>    -9.7287     0.0000     0.0000 </r>
       <r>    -9.6935     0.0000     0.0000 </r>
       <r>    -9.6582     0.0000     0.0000 </r>
       <r>    -9.6230     0.0000     0.0000 </r>
       <r>    -9.5878     0.0000     0.0000 </r>
       <r>    -9.5525     0.0000     0.0000 </r>
       <r>    -9.5173     0.0000     0.0000 </r>
       <r>    -9.4821     0.0000     0.0000 </r>
       <r>    -9.4468     0.0000     0.0000 </r>
       <r>    -9.4116     0.0000     0.0000 </r>
       <r>    -9.3763     0.0000     0.0000 </r>
       <r>    -9.3411     0.0000     0.0000 </r>
       <r>    -9.3059     0.0000     0.0000 </r>
       <r>    -9.2706     0.0000     0.0000 </r>
       <r>    -9.2354     0.0000     0.0000 </r>
       <r>    -9.2001     0.0000     0.0000 </r>
       <r>    -9.1649     0.0000     0.0000 </r>
       <r>    -9.1297     0.0000     0.0000 </r>
       <r>    -9.0944     0.0000     0.0000 </r>
       <r>    -9.0592     0.0000     0.0000 </r>
       <r>    -9.0240     0.0000     0.0000 </r>
       <r>    -8.9887     0.0000     0.0000 </r>
       <r>    -8.9535     0.0000     0.0000 </r>
       <r>    -8.9182     0.0000     0.0000 </r>
       <r>    -8.8830     0.0000     0.0000 </r>
       <r>    -8.8478     0.0000     0.0000 </r>
       <r>    -8.8125     0.0000     0.0000 </r>
       <r>    -8.7773     0.0000     0.0000 </r>
       <r>    -8.7421     0.0000     0.0000 </r>
       <r>    -8.7068     0.0000     0.0000 </r>
       <r>    -8.6716     0.0000     0.0000 </r>
       <r>    -8.6363     0.0000     0.0000 </r>
       <r>    -8.6011     0.0000     0.0000 </r>
       <r>    -8.5659     0.0000     0.0000 </r>
       <r>    -8.5306     0.0000     0.0000 </r>
       <r>    -8.4954     0.0000     0.0000 </r>
       <r>    -8.4601     0.0000     0.0000 </r>
       <r>    -8.4249     0.0000     0.0000 </r>
       <r>    -8.3897     0.0000     0.0000 </r>
       <r>    -8.3544     0.0000     0.0000 </r>
       <r>    -8.3192     0.0000     0.0000 </r>
       <r>    -8.2840     0.0000     0.0000 </r>
       <r>    -8.2487     0.0000     0.0000 </r>
       <r>    -8.2135     0.0000     0.0000 </r>
       <r>    -8.1782     0.0000     0.0000 </r>
       <r>    -8.1430     0.0000     0.0000 </r>
       <r>    -8.1078     0.0000     0.0000 </r>
       <r>    -8.0725     0.0000     0.0000 </r>
       <r>    -8.0373     0.0000     0.0000 </r>
       <r>    -8.0021     0.0000     0.0000 </r>
       <r>    -7.9668     0.0000     0.0000 </r>
       <r>    -7.9316     0.0000     0.0000 </r>
       <r>    -7.8963     0.0000     0.0000 </r>
       <r>    -7.8611     0.0000     0.0000 </r>
       <r>    -7.8259     0.0021     0.0000 </r>
       <r>    -7.7906     0.0094     0.0002 </r>
       <r>    -7.7554     0.0218     0.0007 </r>
       <r>    -7.7201     0.0393     0.0018 </r>
       <r>    -7.6849     0.0620     0.0036 </r>
       <r>    -7.6497     0.0898     0.0062 </r>
       <r>    -7.6144     0.1228     0.0100 </r>
       <r>    -7.5792     0.1609     0.0149 </r>
       <r>    -7.5440     0.1665     0.0210 </r>
       <r>    -7.5087     0.1554     0.0266 </r>
       <r>    -7.4735     0.1556     0.0321 </r>
       <r>    -7.4382     0.1638     0.0377 </r>
       <r>    -7.4030     0.1725     0.0436 </r>
       <r>    -7.3678     0.1814     0.0498 </r>
       <r>    -7.3325     0.1905     0.0564 </r>
       <r>    -7.2973     0.1998     0.0633 </r>
       <r>    -7.2621     0.2093     0.0705 </r>
       <r>    -7.2268     0.2190     0.0780 </r>
       <r>    -7.1916     0.2289     0.0859 </r>
       <r>    -7.1563     0.2390     0.0942 </r>
       <r>    -7.1211     0.2493     0.1028 </r>
       <r>    -7.0859     0.2598     0.1117 </r>
       <r>    -7.0506     0.2700     0.1211 </r>
       <r>    -7.0154     0.2790     0.1307 </r>
       <r>    -6.9801     0.2868     0.1407 </r>
       <r>    -6.9449     0.2936     0.1509 </r>
       <r>    -6.9097     0.2992     0.1614 </r>
       <r>    -6.8744     0.3036     0.1720 </r>
       <r>    -6.8392     0.3070     0.1828 </r>
       <r>    -6.8040     0.3092     0.1936 </r>
       <r>    -6.7687     0.3125     0.2046 </r>
       <r>    -6.7335     0.3178     0.2157 </r>
       <r>    -6.6982     0.3245     0.2270 </r>
       <r>    -6.6630     0.3313     0.2386 </r>
       <r>    -6.6278     0.3382     0.2504 </r>
       <r>    -6.5925     0.3452     0.2624 </r>
       <r>    -6.5573     0.3522     0.2747 </r>
       <r>    -6.5220     0.3593     0.2872 </r>
       <r>    -6.4868     0.3666     0.3000 </r>
       <r>    -6.4516     0.3738     0.3130 </r>
       <r>    -6.4163     0.3812     0.3264 </r>
       <r>    -6.3811     0.3887     0.3399 </r>
       <r>    -6.3459     0.3962     0.3537 </r>
       <r>    -6.3106     0.4038     0.3678 </r>
       <r>    -6.2754     0.4115     0.3822 </r>
       <r>    -6.2401     0.4192     0.3968 </r>
       <r>    -6.2049     0.4271     0.4118 </r>
       <r>    -6.1697     0.4351     0.4269 </r>
       <r>    -6.1344     0.4432     0.4424 </r>
       <r>    -6.0992     0.4513     0.4582 </r>
       <r>    -6.0640     0.4578     0.4742 </r>
       <r>    -6.0287     0.4642     0.4904 </r>
       <r>    -5.9935     0.4716     0.5069 </r>
       <r>    -5.9582     0.4800     0.5237 </r>
       <r>    -5.9230     0.4890     0.5408 </r>
       <r>    -5.8878     0.4984     0.5582 </r>
       <r>    -5.8525     0.5082     0.5759 </r>
       <r>    -5.8173     0.5183     0.5940 </r>
       <r>    -5.7820     0.5288     0.6124 </r>
       <r>    -5.7468     0.5396     0.6313 </r>
       <r>    -5.7116     0.5508     0.6505 </r>
       <r>    -5.6763     0.5623     0.6701 </r>
       <r>    -5.6411     0.5759     0.6901 </r>
       <r>    -5.6059     0.5928     0.7107 </r>
       <r>    -5.5706     0.6131     0.7319 </r>
       <r>    -5.5354     0.6504     0.7542 </r>
       <r>    -5.5001     0.6854     0.7777 </r>
       <r>    -5.4649     0.7155     0.8024 </r>
       <r>    -5.4297     0.7410     0.8281 </r>
       <r>    -5.3944     0.7617     0.8546 </r>
       <r>    -5.3592     0.7776     0.8817 </r>
       <r>    -5.3240     0.7888     0.9093 </r>
       <r>    -5.2887     0.7953     0.9373 </r>
       <r>    -5.2535     0.7970     0.9653 </r>
       <r>    -5.2182     0.7939     0.9934 </r>
       <r>    -5.1830     0.7859     1.0212 </r>
       <r>    -5.1478     0.7730     1.0487 </r>
       <r>    -5.1125     0.7553     1.0756 </r>
       <r>    -5.0773     0.7327     1.1019 </r>
       <r>    -5.0420     0.7355     1.1275 </r>
       <r>    -5.0068     0.7714     1.1540 </r>
       <r>    -4.9716     0.8003     1.1818 </r>
       <r>    -4.9363     0.8156     1.2103 </r>
       <r>    -4.9011     0.8173     1.2391 </r>
       <r>    -4.8659     0.8054     1.2677 </r>
       <r>    -4.8306     0.7798     1.2957 </r>
       <r>    -4.7954     0.7475     1.3225 </r>
       <r>    -4.7601     0.7290     1.3486 </r>
       <r>    -4.7249     0.7116     1.3739 </r>
       <r>    -4.6897     0.6953     1.3987 </r>
       <r>    -4.6544     0.6800     1.4229 </r>
       <r>    -4.6192     0.6658     1.4467 </r>
       <r>    -4.5839     0.6527     1.4699 </r>
       <r>    -4.5487     0.6406     1.4927 </r>
       <r>    -4.5135     0.6296     1.5150 </r>
       <r>    -4.4782     0.6197     1.5371 </r>
       <r>    -4.4430     0.6108     1.5587 </r>
       <r>    -4.4078     0.6044     1.5801 </r>
       <r>    -4.3725     0.5996     1.6013 </r>
       <r>    -4.3373     0.5957     1.6224 </r>
       <r>    -4.3020     0.5925     1.6433 </r>
       <r>    -4.2668     0.5887     1.6642 </r>
       <r>    -4.2316     0.5812     1.6848 </r>
       <r>    -4.1963     0.5759     1.7051 </r>
       <r>    -4.1611     0.5879     1.7256 </r>
       <r>    -4.1259     0.5956     1.7465 </r>
       <r>    -4.0906     0.5988     1.7675 </r>
       <r>    -4.0554     0.5977     1.7886 </r>
       <r>    -4.0201     0.5922     1.8096 </r>
       <r>    -3.9849     0.5822     1.8303 </r>
       <r>    -3.9497     0.5679     1.8506 </r>
       <r>    -3.9144     0.5491     1.8703 </r>
       <r>    -3.8792     0.5260     1.8892 </r>
       <r>    -3.8439     0.4984     1.9073 </r>
       <r>    -3.8087     0.4665     1.9243 </r>
       <r>    -3.7735     0.4301     1.9401 </r>
       <r>    -3.7382     0.3894     1.9546 </r>
       <r>    -3.7030     0.3711     1.9715 </r>
       <r>    -3.6678     0.1743     1.9782 </r>
       <r>    -3.6325     0.1452     1.9838 </r>
       <r>    -3.5973     0.1183     1.9884 </r>
       <r>    -3.5620     0.0937     1.9921 </r>
       <r>    -3.5268     0.0714     1.9951 </r>
       <r>    -3.4916     0.0513     1.9972 </r>
       <r>    -3.4563     0.0334     1.9987 </r>
       <r>    -3.4211     0.0178     1.9996 </r>
       <r>    -3.3859     0.0044     2.0000 </r>
       <r>    -3.3506     0.0000     2.0000 </r>
       <r>    -3.3154     0.0000     2.0000 </r>
       <r>    -3.2801     0.0000     2.0000 </r>
       <r>    -3.2449     0.0000     2.0000 </r>
       <r>    -3.2097     0.0000     2.0000 </r>
       <r>    -3.1744     0.0000     2.0000 </r>
       <r>    -3.1392     0.0000     2.0000 </r>
       <r>    -3.1039     0.0000     2.0000 </r>
       <r>    -3.0687     0.0000     2.0000 </r>
       <r>    -3.0335     0.0041     2.0000 </r>
       <r>    -2.9982     0.0147     2.0004 </r>
       <r>    -2.9630     0.0264     2.0011 </r>
       <r>    -2.9278     0.0394     2.0022 </r>
       <r>    -2.8925     0.0537     2.0039 </r>
       <r>    -2.8573     0.0691     2.0060 </r>
       <r>    -2.8220     0.0858     2.0088 </r>
       <r>    -2.7868     0.1036     2.0121 </r>
       <r>    -2.7516     0.1227     2.0161 </r>
       <r>    -2.7163     0.1431     2.0208 </r>
       <r>    -2.6811     0.1646     2.0262 </r>
       <r>    -2.6458     0.1873     2.0324 </r>
       <r>    -2.6106     0.2113     2.0394 </r>
       <r>    -2.5754     0.2365     2.0473 </r>
       <r>    -2.5401     0.2629     2.0561 </r>
       <r>    -2.5049     0.6205     2.0734 </r>
       <r>    -2.4697     0.5023     2.0903 </r>
       <r>    -2.4344     0.5455     2.1087 </r>
       <r>    -2.3992     0.5847     2.1287 </r>
       <r>    -2.3639     0.6199     2.1499 </r>
       <r>    -2.3287     0.6511     2.1723 </r>
       <r>    -2.2935     0.6782     2.1957 </r>
       <r>    -2.2582     0.7012     2.2200 </r>
       <r>    -2.2230     0.7203     2.2451 </r>
       <r>    -2.1878     0.7353     2.2708 </r>
       <r>    -2.1525     0.7559     2.2969 </r>
       <r>    -2.1173     0.8537     2.3247 </r>
       <r>    -2.0820     1.0563     2.3585 </r>
       <r>    -2.0468     1.2158     2.3986 </r>
       <r>    -2.0116     1.3296     2.4436 </r>
       <r>    -1.9763     1.3908     2.4917 </r>
       <r>    -1.9411     1.4016     2.5411 </r>
       <r>    -1.9058     1.3601     2.5899 </r>
       <r>    -1.8706     1.2680     2.6363 </r>
       <r>    -1.8354     1.2131     2.6801 </r>
       <r>    -1.8001     1.1337     2.7215 </r>
       <r>    -1.7649     1.0297     2.7597 </r>
       <r>    -1.7297     0.9012     2.7938 </r>
       <r>    -1.6944     0.8005     2.8233 </r>
       <r>    -1.6592     0.7624     2.8509 </r>
       <r>    -1.6239     0.7270     2.8771 </r>
       <r>    -1.5887     0.6943     2.9021 </r>
       <r>    -1.5535     0.6642     2.9261 </r>
       <r>    -1.5182     0.6367     2.9490 </r>
       <r>    -1.4830     0.6119     2.9710 </r>
       <r>    -1.4478     0.5898     2.9921 </r>
       <r>    -1.4125     0.5703     3.0126 </r>
       <r>    -1.3773     0.5535     3.0324 </r>
       <r>    -1.3420     0.5394     3.0516 </r>
       <r>    -1.3068     0.5273     3.0704 </r>
       <r>    -1.2716     0.5159     3.0888 </r>
       <r>    -1.2363     0.5052     3.1068 </r>
       <r>    -1.2011     0.4951     3.1244 </r>
       <r>    -1.1658     0.4857     3.1417 </r>
       <r>    -1.1306     0.4768     3.1586 </r>
       <r>    -1.0954     0.4681     3.1753 </r>
       <r>    -1.0601     0.4595     3.1916 </r>
       <r>    -1.0249     0.4512     3.2077 </r>
       <r>    -0.9897     0.4430     3.2234 </r>
       <r>    -0.9544     0.4349     3.2389 </r>
       <r>    -0.9192     0.4270     3.2541 </r>
       <r>    -0.8839     0.4193     3.2690 </r>
       <r>    -0.8487     0.4117     3.2836 </r>
       <r>    -0.8135     0.4040     3.2980 </r>
       <r>    -0.7782     0.3965     3.3121 </r>
       <r>    -0.7430     0.3891     3.3259 </r>
       <r>    -0.7077     0.3819     3.3395 </r>
       <r>    -0.6725     0.3748     3.3529 </r>
       <r>    -0.6373     0.3679     3.3659 </r>
       <r>    -0.6020     0.3611     3.3788 </r>
       <r>    -0.5668     0.3545     3.3914 </r>
       <r>    -0.5316     0.3480     3.4038 </r>
       <r>    -0.4963     0.3417     3.4159 </r>
       <r>    -0.4611     0.3356     3.4279 </r>
       <r>    -0.4258     0.3296     3.4396 </r>
       <r>    -0.3906     0.3227     3.4511 </r>
       <r>    -0.3554     0.3096     3.4622 </r>
       <r>    -0.3201     0.2976     3.4729 </r>
       <r>    -0.2849     0.2865     3.4832 </r>
       <r>    -0.2497     0.2764     3.4931 </r>
       <r>    -0.2144     0.2674     3.5027 </r>
       <r>    -0.1792     0.2594     3.5120 </r>
       <r>    -0.1439     0.2523     3.5210 </r>
       <r>    -0.1087     0.2463     3.5298 </r>
       <r>    -0.0735     0.2413     3.5384 </r>
       <r>    -0.0382     0.2373     3.5468 </r>
       <r>    -0.0030     0.2343     3.5551 </r>
       <r>     0.0323     0.2321     3.5633 </r>
       <r>     0.0675     0.2298     3.5715 </r>
       <r>     0.1027     0.2277     3.5795 </r>
       <r>     0.1380     0.2255     3.5875 </r>
       <r>     0.1732     0.2233     3.5954 </r>
       <r>     0.2084     0.2212     3.6032 </r>
       <r>     0.2437     0.2191     3.6110 </r>
       <r>     0.2789     0.2171     3.6187 </r>
       <r>     0.3142     0.2150     3.6263 </r>
       <r>     0.3494     0.2130     3.6338 </r>
       <r>     0.3846     0.2110     3.6413 </r>
       <r>     0.4199     0.2091     3.6487 </r>
       <r>     0.4551     0.2071     3.6561 </r>
       <r>     0.4903     0.2051     3.6633 </r>
       <r>     0.5256     0.2032     3.6705 </r>
       <r>     0.5608     0.2012     3.6776 </r>
       <r>     0.5961     0.1992     3.6847 </r>
       <r>     0.6313     0.1972     3.6917 </r>
       <r>     0.6665     0.1952     3.6986 </r>
       <r>     0.7018     0.1932     3.7054 </r>
       <r>     0.7370     0.1912     3.7122 </r>
       <r>     0.7723     0.1891     3.7189 </r>
       <r>     0.8075     0.4817     3.7334 </r>
       <r>     0.8427     0.4497     3.7466 </r>
       <r>     0.8780     0.6860     3.7663 </r>
       <r>     0.9132     0.9695     3.7958 </r>
       <r>     0.9484     1.0459     3.8320 </r>
       <r>     0.9837     0.9713     3.8671 </r>
       <r>     1.0189     1.0228     3.9023 </r>
       <r>     1.0542     1.0646     3.9391 </r>
       <r>     1.0894     1.0968     3.9772 </r>
       <r>     1.1246     1.1193     4.0162 </r>
       <r>     1.1599     1.1321     4.0559 </r>
       <r>     1.1951     1.1352     4.0959 </r>
       <r>     1.2304     1.1286     4.1358 </r>
       <r>     1.2656     1.1124     4.1753 </r>
       <r>     1.3008     1.0869     4.2141 </r>
       <r>     1.3361     1.0529     4.2518 </r>
       <r>     1.3713     1.0097     4.2882 </r>
       <r>     1.4065     0.9641     4.3229 </r>
       <r>     1.4418     1.1836     4.3604 </r>
       <r>     1.4770     1.0826     4.4016 </r>
       <r>     1.5123     0.9057     4.4350 </r>
       <r>     1.5475     0.9036     4.4669 </r>
       <r>     1.5827     0.9010     4.4987 </r>
       <r>     1.6180     0.8981     4.5304 </r>
       <r>     1.6532     0.8946     4.5619 </r>
       <r>     1.6884     0.8907     4.5934 </r>
       <r>     1.7237     0.8864     4.6247 </r>
       <r>     1.7589     0.8817     4.6559 </r>
       <r>     1.7942     0.8765     4.6869 </r>
       <r>     1.8294     0.8708     4.7176 </r>
       <r>     1.8646     0.8647     4.7482 </r>
       <r>     1.8999     0.8582     4.7786 </r>
       <r>     1.9351     0.8513     4.8087 </r>
       <r>     1.9704     1.1198     4.8426 </r>
       <r>     2.0056     1.4569     4.8879 </r>
       <r>     2.0408     1.7339     4.9445 </r>
       <r>     2.0761     1.2995     4.9934 </r>
       <r>     2.1113     1.1561     5.0338 </r>
       <r>     2.1465     1.1835     5.0750 </r>
       <r>     2.1818     1.2163     5.1172 </r>
       <r>     2.2170     1.2543     5.1607 </r>
       <r>     2.2523     1.2976     5.2057 </r>
       <r>     2.2875     1.3463     5.2523 </r>
       <r>     2.3227     1.4002     5.3006 </r>
       <r>     2.3580     1.4595     5.3510 </r>
       <r>     2.3932     1.7359     5.4082 </r>
       <r>     2.4284     1.4063     5.4656 </r>
       <r>     2.4637     1.3802     5.5142 </r>
       <r>     2.4989     1.3825     5.5628 </r>
       <r>     2.5342     1.3849     5.6116 </r>
       <r>     2.5694     1.3825     5.6604 </r>
       <r>     2.6046     1.3783     5.7090 </r>
       <r>     2.6399     1.3739     5.7575 </r>
       <r>     2.6751     1.3694     5.8059 </r>
       <r>     2.7104     1.3647     5.8540 </r>
       <r>     2.7456     1.3598     5.9020 </r>
       <r>     2.7808     1.3539     5.9499 </r>
       <r>     2.8161     1.3426     5.9974 </r>
       <r>     2.8513     1.3387     6.0446 </r>
       <r>     2.8865     1.3424     6.0918 </r>
       <r>     2.9218     1.3540     6.1393 </r>
       <r>     2.9570     1.3562     6.1871 </r>
       <r>     2.9923     1.3532     6.2348 </r>
       <r>     3.0275     1.3503     6.2825 </r>
       <r>     3.0627     1.3476     6.3300 </r>
       <r>     3.0980     1.3447     6.3774 </r>
       <r>     3.1332     1.3411     6.4248 </r>
       <r>     3.1684     1.3368     6.4720 </r>
       <r>     3.2037     1.3317     6.5190 </r>
       <r>     3.2389     1.3258     6.5658 </r>
       <r>     3.2742     1.3192     6.6124 </r>
       <r>     3.3094     1.3118     6.6588 </r>
       <r>     3.3446     1.3023     6.7048 </r>
       <r>     3.3799     1.2909     6.7505 </r>
       <r>     3.4151     1.2798     6.7958 </r>
       <r>     3.4504     1.2690     6.8407 </r>
       <r>     3.4856     1.2584     6.8853 </r>
       <r>     3.5208     1.2465     6.9294 </r>
       <r>     3.5561     1.2334     6.9731 </r>
       <r>     3.5913     1.2251     7.0164 </r>
       <r>     3.6265     1.2233     7.0595 </r>
       <r>     3.6618     1.2279     7.1027 </r>
       <r>     3.6970     1.2386     7.1461 </r>
       <r>     3.7323     1.2554     7.1900 </r>
       <r>     3.7675     1.2576     7.2345 </r>
       <r>     3.8027     1.2331     7.2784 </r>
       <r>     3.8380     1.2037     7.3213 </r>
       <r>     3.8732     1.1695     7.3632 </r>
       <r>     3.9085     1.1304     7.4037 </r>
       <r>     3.9437     1.0865     7.4428 </r>
       <r>     3.9789     1.0378     7.4802 </r>
       <r>     4.0142     0.9842     7.5159 </r>
       <r>     4.0494     0.9258     7.5495 </r>
       <r>     4.0846     0.8626     7.5811 </r>
       <r>     4.1199     0.7945     7.6103 </r>
       <r>     4.1551     0.7555     7.6375 </r>
       <r>     4.1904     0.7184     7.6635 </r>
       <r>     4.2256     0.6782     7.6881 </r>
       <r>     4.2608     0.6350     7.7112 </r>
       <r>     4.2961     0.5888     7.7328 </r>
       <r>     4.3313     0.5401     7.7527 </r>
       <r>     4.3665     0.4967     7.7710 </r>
       <r>     4.4018     0.4615     7.7878 </r>
       <r>     4.4370     0.4346     7.8036 </r>
       <r>     4.4723     0.4145     7.8185 </r>
       <r>     4.5075     0.3959     7.8328 </r>
       <r>     4.5427     0.3783     7.8464 </r>
       <r>     4.5780     0.3617     7.8595 </r>
       <r>     4.6132     0.3460     7.8719 </r>
       <r>     4.6485     0.3313     7.8839 </r>
       <r>     4.6837     0.3175     7.8953 </r>
       <r>     4.7189     0.3046     7.9063 </r>
       <r>     4.7542     0.2927     7.9168 </r>
       <r>     4.7894     0.2817     7.9269 </r>
       <r>     4.8246     0.2717     7.9367 </r>
       <r>     4.8599     0.2627     7.9461 </r>
       <r>     4.8951     0.2546     7.9552 </r>
       <r>     4.9304     0.2474     7.9640 </r>
       <r>     4.9656     0.2402     7.9726 </r>
       <r>     5.0008     0.1862     7.9803 </r>
       <r>     5.0361     0.1241     7.9855 </r>
       <r>     5.0713     0.1004     7.9894 </r>
       <r>     5.1065     0.0793     7.9926 </r>
       <r>     5.1418     0.0606     7.9950 </r>
       <r>     5.1770     0.0444     7.9969 </r>
       <r>     5.2123     0.0308     7.9982 </r>
       <r>     5.2475     0.0196     7.9991 </r>
       <r>     5.2827     0.0110     7.9996 </r>
       <r>     5.3180     0.0048     7.9999 </r>
       <r>     5.3532     0.0012     8.0000 </r>
       <r>     5.3885     0.0000     8.0000 </r>
       <r>     5.4237     0.0000     8.0000 </r>
       <r>     5.4589     0.0000     8.0000 </r>
       <r>     5.4942     0.0000     8.0000 </r>
       <r>     5.5294     0.0000     8.0000 </r>
       <r>     5.5646     0.0000     8.0000 </r>
       <r>     5.5999     0.0000     8.0000 </r>
       <r>     5.6351     0.0000     8.0000 </r>
       <r>     5.6704     0.0000     8.0000 </r>
       <r>     5.7056     0.0000     8.0000 </r>
       <r>     5.7408     0.0000     8.0000 </r>
       <r>     5.7761     0.0000     8.0000 </r>
       <r>     5.8113     0.0000     8.0000 </r>
       <r>     5.8466     0.0000     8.0000 </r>
       <r>     5.8818     0.0000     8.0000 </r>
       <r>     5.9170     0.0000     8.0000 </r>
       <r>     5.9523     0.0000     8.0000 </r>
       <r>     5.9875     0.0000     8.0000 </r>
       <r>     6.0227     0.0000     8.0000 </r>
       <r>     6.0580     0.0000     8.0000 </r>
       <r>     6.0932     0.0000     8.0000 </r>
       <r>     6.1285     0.0000     8.0000 </r>
       <r>     6.1637     0.0000     8.0000 </r>
       <r>     6.1989     0.0000     8.0000 </r>
       <r>     6.2342     0.0000     8.0000 </r>
       <r>     6.2694     0.0000     8.0000 </r>
       <r>     6.3046     0.0000     8.0000 </r>
       <r>     6.3399     0.0000     8.0000 </r>
       <r>     6.3751     0.0000     8.0000 </r>
       <r>     6.4104     0.0000     8.0000 </r>
       <r>     6.4456     0.0000     8.0000 </r>
       <r>     6.4808     0.0000     8.0000 </r>
       <r>     6.5161     0.0000     8.0000 </r>
       <r>     6.5513     0.0000     8.0000 </r>
       <r>     6.5866     0.0191     8.0003 </r>
       <r>     6.6218     0.0397     8.0013 </r>
       <r>     6.6570     0.0584     8.0031 </r>
       <r>     6.6923     0.0750     8.0054 </r>
       <r>     6.7275     0.0896     8.0083 </r>
       <r>     6.7627     0.1022     8.0117 </r>
       <r>     6.7980     0.1128     8.0155 </r>
       <r>     6.8332     0.1214     8.0196 </r>
       <r>     6.8685     0.1280     8.0240 </r>
       <r>     6.9037     0.1419     8.0287 </r>
       <r>     6.9389     0.1623     8.0341 </r>
       <r>     6.9742     0.1825     8.0402 </r>
       <r>     7.0094     0.2011     8.0469 </r>
       <r>     7.0446     0.2179     8.0543 </r>
       <r>     7.0799     0.2330     8.0623 </r>
       <r>     7.1151     0.2466     8.0707 </r>
       <r>     7.1504     0.2605     8.0797 </r>
       <r>     7.1856     0.2727     8.0891 </r>
       <r>     7.2208     0.2834     8.0989 </r>
       <r>     7.2561     0.2977     8.1091 </r>
       <r>     7.2913     0.3161     8.1199 </r>
       <r>     7.3266     0.3345     8.1313 </r>
       <r>     7.3618     0.3529     8.1435 </r>
       <r>     7.3970     0.3712     8.1562 </r>
       <r>     7.4323     0.3895     8.1696 </r>
       <r>     7.4675     0.4078     8.1837 </r>
       <r>     7.5027     0.4260     8.1983 </r>
       <r>     7.5380     0.4443     8.2137 </r>
       <r>     7.5732     0.4634     8.2297 </r>
       <r>     7.6085     0.4833     8.2464 </r>
       <r>     7.6437     0.5040     8.2637 </r>
       <r>     7.6789     0.5309     8.2819 </r>
       <r>     7.7142     0.5658     8.3012 </r>
       <r>     7.7494     0.6041     8.3218 </r>
       <r>     7.7847     0.6457     8.3439 </r>
       <r>     7.8199     0.6906     8.3674 </r>
       <r>     7.8551     0.7388     8.3926 </r>
       <r>     7.8904     0.7902     8.4195 </r>
       <r>     7.9256     0.8450     8.4483 </r>
       <r>     7.9608     0.9032     8.4791 </r>
       <r>     7.9961     0.9651     8.5120 </r>
       <r>     8.0313     1.0352     8.5472 </r>
       <r>     8.0666     1.1235     8.5852 </r>
       <r>     8.1018     1.2310     8.6266 </r>
       <r>     8.1370     1.3576     8.6721 </r>
       <r>     8.1723     1.4945     8.7224 </r>
       <r>     8.2075     1.6052     8.7771 </r>
       <r>     8.2427     1.6889     8.8353 </r>
       <r>     8.2780     1.7464     8.8959 </r>
       <r>     8.3132     1.7819     8.9581 </r>
       <r>     8.3485     1.7955     9.0212 </r>
       <r>     8.3837     1.8181     9.0847 </r>
       <r>     8.4189     1.8472     9.1493 </r>
       <r>     8.4542     1.8725     9.2149 </r>
       <r>     8.4894     1.8941     9.2813 </r>
       <r>     8.5247     1.9119     9.3483 </r>
       <r>     8.5599     1.9260     9.4160 </r>
       <r>     8.5951     1.9205     9.4839 </r>
       <r>     8.6304     1.8697     9.5507 </r>
       <r>     8.6656     1.8297     9.6158 </r>
       <r>     8.7008     1.8047     9.6798 </r>
       <r>     8.7361     1.7830     9.7431 </r>
       <r>     8.7713     1.7491     9.8053 </r>
       <r>     8.8066     1.7030     9.8662 </r>
       <r>     8.8418     1.6194     9.9248 </r>
       <r>     8.8770     1.5628     9.9829 </r>
       <r>     8.9123     1.2951    10.0304 </r>
       <r>     8.9475     1.1932    10.0742 </r>
       <r>     8.9827     1.0918    10.1145 </r>
       <r>     9.0180     0.9907    10.1512 </r>
       <r>     9.0532     0.8900    10.1843 </r>
       <r>     9.0885     0.7896    10.2139 </r>
       <r>     9.1237     0.6897    10.2400 </r>
       <r>     9.1589     0.5901    10.2625 </r>
       <r>     9.1942     0.4910    10.2815 </r>
       <r>     9.2294     0.4439    10.2975 </r>
       <r>     9.2647     0.4644    10.3135 </r>
       <r>     9.2999     0.4987    10.3304 </r>
       <r>     9.3351     0.5403    10.3487 </r>
       <r>     9.3704     0.5836    10.3685 </r>
       <r>     9.4056     0.6284    10.3899 </r>
       <r>     9.4408     0.6749    10.4128 </r>
       <r>     9.4761     0.7229    10.4374 </r>
       <r>     9.5113     0.7726    10.4638 </r>
       <r>     9.5466     0.8238    10.4919 </r>
       <r>     9.5818     0.8767    10.5219 </r>
       <r>     9.6170     0.9719    10.5542 </r>
       <r>     9.6523     1.0975    10.5906 </r>
       <r>     9.6875     1.2975    10.6323 </r>
       <r>     9.7228     1.5585    10.6826 </r>
       <r>     9.7580     1.8411    10.7424 </r>
       <r>     9.7932     2.1369    10.8125 </r>
       <r>     9.8285     2.4337    10.8930 </r>
       <r>     9.8637     2.7313    10.9840 </r>
       <r>     9.8989     3.0297    11.0855 </r>
       <r>     9.9342     3.1745    11.1966 </r>
       <r>     9.9694     3.0517    11.3063 </r>
       <r>    10.0047     2.9392    11.4118 </r>
       <r>    10.0399     2.8420    11.5135 </r>
       <r>    10.0751     2.9357    11.6166 </r>
       <r>    10.1104     2.4691    11.7135 </r>
       <r>    10.1456     1.8167    11.7881 </r>
       <r>    10.1808     1.4896    11.8454 </r>
       <r>    10.2161     1.2853    11.8938 </r>
       <r>    10.2513     1.2737    11.9389 </r>
       <r>    10.2866     1.2646    11.9836 </r>
       <r>    10.3218     1.2580    12.0280 </r>
       <r>    10.3570     1.2540    12.0723 </r>
       <r>    10.3923     1.2524    12.1164 </r>
       <r>    10.4275     1.2471    12.1605 </r>
       <r>    10.4628     1.2354    12.2042 </r>
       <r>    10.4980     1.2178    12.2475 </r>
       <r>    10.5332     1.1943    12.2900 </r>
       <r>    10.5685     1.1649    12.3316 </r>
       <r>    10.6037     1.1295    12.3720 </r>
       <r>    10.6389     1.0884    12.4111 </r>
       <r>    10.6742     1.0413    12.4487 </r>
       <r>    10.7094     0.9883    12.4844 </r>
       <r>    10.7447     0.9304    12.5182 </r>
       <r>    10.7799     0.8720    12.5500 </r>
       <r>    10.8151     0.8427    12.5801 </r>
       <r>    10.8504     0.8346    12.6096 </r>
       <r>    10.8856     0.8299    12.6390 </r>
       <r>    10.9208     0.8282    12.6682 </r>
       <r>    10.9561     0.8298    12.6974 </r>
       <r>    10.9913     0.8345    12.7267 </r>
       <r>    11.0266     0.8423    12.7562 </r>
       <r>    11.0618     0.8517    12.7861 </r>
       <r>    11.0970     0.9881    12.8210 </r>
       <r>    11.1323     0.8317    12.8502 </r>
       <r>    11.1675     0.8488    12.8798 </r>
       <r>    11.2028     0.8675    12.9101 </r>
       <r>    11.2380     0.8511    12.9404 </r>
       <r>    11.2732     0.8342    12.9700 </r>
       <r>    11.3085     0.8167    12.9991 </r>
       <r>    11.3437     0.7983    13.0276 </r>
       <r>    11.3789     0.7734    13.0553 </r>
       <r>    11.4142     0.7506    13.0821 </r>
       <r>    11.4494     0.7299    13.1082 </r>
       <r>    11.4847     0.7115    13.1336 </r>
       <r>    11.5199     0.6951    13.1584 </r>
       <r>    11.5551     0.6809    13.1826 </r>
       <r>    11.5904     0.6688    13.2064 </r>
       <r>    11.6256     0.6589    13.2298 </r>
       <r>    11.6609     0.6511    13.2528 </r>
       <r>    11.6961     0.6454    13.2757 </r>
       <r>    11.7313     0.6419    13.2984 </r>
       <r>    11.7666     0.6406    13.3209 </r>
       <r>    11.8018     0.6414    13.3435 </r>
       <r>    11.8370     0.8039    13.3687 </r>
       <r>    11.8723     0.9574    13.3998 </r>
       <r>    11.9075     1.0737    13.4357 </r>
       <r>    11.9428     1.1523    13.4750 </r>
       <r>    11.9780     1.1931    13.5165 </r>
       <r>    12.0132     1.1958    13.5587 </r>
       <r>    12.0485     1.1600    13.6003 </r>
       <r>    12.0837     1.4127    13.6497 </r>
       <r>    12.1189     1.2006    13.6928 </r>
       <r>    12.1542     1.3449    13.7402 </r>
       <r>    12.1894     1.1494    13.7813 </r>
       <r>    12.2247     1.1246    13.8213 </r>
       <r>    12.2599     1.1049    13.8606 </r>
       <r>    12.2951     1.0904    13.8992 </r>
       <r>    12.3304     1.0811    13.9375 </r>
       <r>    12.3656     1.0769    13.9755 </r>
       <r>    12.4009     1.0779    14.0134 </r>
       <r>    12.4361     1.0841    14.0515 </r>
       <r>    12.4713     1.0955    14.0899 </r>
[...]
       </set>
       <set comment="band 12">
        <r>  0.0113  0.0010  0.0018  0.0009  0.0000  0.0000  0.0000  0.0000  0.0000 </r>
        <r>  0.0113  0.0010  0.0018  0.0009  0.0000  0.0000  0.0000  0.0000  0.0000 </r>
       </set>
       <set comment="band 13">
        <r>  0.0337  0.0118  0.0048  0.0012  0.0000  0.0000  0.0000  0.0000  0.0000 </r>
        <r>  0.0337  0.0118  0.0048  0.0012  0.0000  0.0000  0.0000  0.0000  0.0000 </r>
       </set>
       <set comment="band 14">
        <r>  0.0001  0.0023  0.0148  0.0520  0.0000  0.0000  0.0000  0.0000  0.0000 </r>
        <r>  0.0001  0.0023  0.0148  0.0520  0.0000  0.0000  0.0000  0.0000  0.0000 </r>
       </set>
       <set comment="band 15">
        <r>  0.0000  0.0270  0.0389  0.0120  0.0000  0.0000  0.0000  0.0000  0.0000 </r>
        <r>  0.0000  0.0270  0.0389  0.0120  0.0000  0.0000  0.0000  0.0000  0.0000 </r>
       </set>
       <set comment="band 16">
        <r>  0.0019  0.0217  0.0263  0.0119  0.0000  0.0000  0.0000  0.0000  0.0000 </r>
        <r>  0.0019  0.0217  0.0263  0.0119  0.0000  0.0000  0.0000  0.0000  0.0000 </r>
       </set>
       <set comment="band 17">
        <r>  0.0243  0.0232  0.0031  0.0200  0.0000  0.0000  0.0000  0.0000  0.0000 </r>
        <r>  0.0243  0.0232  0.0031  0.0200  0.0000  0.0000  0.0000  0.0000  0.0000 </r>
       </set>
       <set comment="band 18">
        <r>  0.0001  0.0078  0.0119  0.0258  0.0000  0.0000  0.0000  0.0000  0.0000 </r>
        <r>  0.0001  0.0078  0.0119  0.0258  0.0000  0.0000  0.0000  0.0000  0.0000 </r>
       </set>
       <set comment="band 19">
        <r>  0.0003  0.0702  0.0403  0.0027  0.0000  0.0000  0.0000  0.0000  0.0000 </r>
        <r>  0.0003  0.0702  0.0403  0.0027  0.0000  0.0000  0.0000  0.0000  0.0000 </r>
       </set>
       <set comment="band 20">
        <r>  0.0061  0.0087  0.0105  0.0096  0.0000  0.0000  0.0000  0.0000  0.0000 </r>
        <r>  0.0061  0.0087  0.0105  0.0096  0.0000  0.0000  0.0000  0.0000  0.0000 </r>
       </set>
       <set comment="band 21">
        <r>  0.0063  0.0083  0.0125  0.0042  0.0000  0.0000  0.0000  0.0000  0.0000 </r>
        <r>  0.0063  0.0083  0.0125  0.0042  0.0000  0.0000  0.0000  0.0000  0.0000 </r>
       </set>
       <set comment="band 22">
        <r>  0.0436  0.0075  0.0111  0.0209  0.0000  0.0000  0.0000  0.0000  0.0000 </r>
        <r>  0.0436  0.0075  0.0111  0.0209  0.0000  0.0000  0.0000  0.0000  0.0000 </r>
       </set>
       <set comment="band 23">
        <r>  0.0126  0.0018  0.0048  0.0300  0.0000  0.0000  0.0000  0.0000  0.0000 </r>
        <r>  0.0126  0.0018  0.0048  0.0300  0.0000  0.0000  0.0000  0.0000  0.0000 </r>
       </set>
       <set comment="band 24">
        <r>  0.0123  0.0087  0.0141  0.0051  0.0000  0.0000  0.0000  0.0000  0.0000 </r>
        <r>  0.0123  0.0091  0.0146  0.0052  0.0000  0.0000  0.0000  0.0000  0.0000 </r>
       </set>
      </set>
      <set comment="kpoint 18">
       <set comment="band 1">
        <r>  0.2168  0.0037  0.0023  0.0186  0.0000  0.0000  0.0000  0.0000  0.0000 </r>
        <r>  0.2168  0.0037  0.0023  0.0186  0.0000  0.0000  0.0000  0.0000  0.0000 </r>
       </set>
       <set comment="band 2">
        <r>  0.1545  0.0113  0.0036  0.0625  0.0000  0.0000  0.0000  0.0000  0.0000 </r>
        <r>  0.1545  0.0113  0.0036  0.0625  0.0000  0.0000  0.0000  0.0000  0.0000 </r>
       </set>
       <set comment="band 3">
        <r>  0.0263  0.0642  0.0540  0.0363  0.0000  0.0000  0.0000  0.0000  0.0000 </r>
        <r>  0.0263  0.0642  0.0540  0.0363  0.0000  0.0000  0.0000  0.0000  0.0000 </r>
       </set>
       <set comment="band 4">
        <r>  0.0021  0.0731  0.1065  0.0102  0.0000  0.0000  0.0000  0.0000  0.0000 </r>
        <r>  0.0021  0.0731  0.1065  0.0102  0.0000  0.0000  0.0000  0.0000  0.0000 </r>
       </set>
       <set comment="band 5">
        <r>  0.0323  0.0281  0.0409  0.0107  0.0000  0.0000  0.0000  0.0000  0.0000 </r>
        <r>  0.0323  0.0281  0.0409  0.0107  0.0000  0.0000  0.0000  0.0000  0.0000 </r>
       </set>
       <set comment="band 6">
        <r>  0.0466  0.0405  0.0384  0.0036  0.0000  0.0000  0.0000  0.0000  0.0000 </r>
        <r>  0.0466  0.0405  0.0384  0.0036  0.0000  0.0000  0.0000  0.0000  0.0000 </r>
       </set>
       <set comment="band 7">
        <r>  0.0332  0.0522  0.0003  0.0358  0.0000  0.0000  0.0000  0.0000  0.0000 </r>
        <r>  0.0332  0.0522  0.0003  0.0358  0.0000  0.0000  0.0000  0.0000  0.0000 </r>
       </set>
       <set comment="band 8">
        <r>  0.0189  0.0641  0.0539  0.0023  0.0000  0.0000  0.0000  0.0000  0.0000 </r>
        <r>  0.0189  0.0641  0.0539  0.0023  0.0000  0.0000  0.0000  0.0000  0.0000 </r>
       </set>
       <set comment="band 9">
        <r>  0.0153  0.0118  0.0359  0.0721  0.0000  0.0000  0.0000  0.0000  0.0000 </r>
        <r>  0.0153  0.0118  0.0359  0.0721  0.0000  0.0000  0.0000  0.0000  0.0000 </r>
       </set>
       <set comment="band 10">
        <r>  0.0169  0.0010  0.0193  0.0658  0.0000  0.0000  0.0000  0.0000  0.0000 </r>
        <r>  0.0169  0.0010  0.0193  0.0658  0.0000  0.0000  0.0000  0.0000  0.0000 </r>
       </set>
       <set comment="band 11">
        <r>  0.0228  0.0096  0.0089  0.0156  0.0000  0.0000  0.0000  0.0000  0.0000 </r>
        <r>  0.0228  0.0096  0.0089  0.0156  0.0000  0.0000  0.0000  0.0000  0.0000 </r>
       </set>
       <set comment="band 12">
        <r>  0.0177  0.0097  0.0358  0.0603  0.0000  0.0000  0.0000  0.0000  0.0000 </r>
        <r>  0.0177  0.0097  0.0358  0.0603  0.0000  0.0000  0.0000  0.0000  0.0000 </r>
       </set>
       <set comment="band 13">
        <r>  0.0200  0.0115  0.0309  0.0898  0.0000  0.0000  0.0000  0.0000  0.0000 </r>
        <r>  0.0200  0.0115  0.0309  0.0898  0.0000  0.0000  0.0000  0.0000  0.0000 </r>
       </set>
       <set comment="band 14">
        <r>  0.0161  0.0017  0.0049  0.0351  0.0000  0.0000  0.0000  0.0000  0.0000 </r>
        <r>  0.0161  0.0017  0.0049  0.0351  0.0000  0.0000  0.0000  0.0000  0.0000 </r>
       </set>
       <set comment="band 15">
        <r>  0.0035  0.1023  0.0073  0.0120  0.0000  0.0000  0.0000  0.0000  0.0000 </r>
        <r>  0.0035  0.1023  0.0073  0.0120  0.0000  0.0000  0.0000  0.0000  0.0000 </r>
       </set>
       <set comment="band 16">
        <r>  0.0158  0.0041  0.0055  0.0381  0.0000  0.0000  0.0000  0.0000  0.0000 </r>
        <r>  0.0158  0.0041  0.0055  0.0381  0.0000  0.0000  0.0000  0.0000  0.0000 </r>
       </set>
       <set comment="band 17">
        <r>  0.0185  0.0065  0.0168  0.0081  0.0000  0.0000  0.0000  0.0000  0.0000 </r>
        <r>  0.0185  0.0065  0.0168  0.0081  0.0000  0.0000  0.0000  0.0000  0.0000 </r>
       </set>
       <set comment="band 18">
        <r>  0.0091  0.0036  0.0019  0.0217  0.0000  0.0000  0.0000  0.0000  0.0000 </r>
        <r>  0.0091  0.0036  0.0019  0.0217  0.0000  0.0000  0.0000  0.0000  0.0000 </r>
       </set>
       <set comment="band 19">
        <r>  0.0006  0.0291  0.0624  0.0040  0.0000  0.0000  0.0000  0.0000  0.0000 </r>
        <r>  0.0006  0.0291  0.0624  0.0040  0.0000  0.0000  0.0000  0.0000  0.0000 </r>
       </set>
       <set comment="band 20">
        <r>  0.0015  0.0124  0.0096  0.0017  0.0000  0.0000  0.0000  0.0000  0.0000 </r>
        <r>  0.0015  0.0124  0.0096  0.0017  0.0000  0.0000  0.0000  0.0000  0.0000 </r>
       </set>
       <set comment="band 21">
        <r>  0.0097  0.0375  0.0060  0.0009  0.0000  0.0000  0.0000  0.0000  0.0000 </r>
        <r>  0.0097  0.0375  0.0060  0.0009  0.0000  0.0000  0.0000  0.0000  0.0000 </r>
       </set>
       <set comment="band 22">
        <r>  0.0183  0.0090  0.0025  0.0086  0.0000  0.0000  0.0000  0.0000  0.0000 </r>
        <r>  0.0183  0.0090  0.0025  0.0086  0.0000  0.0000  0.0000  0.0000  0.0000 </r>
       </set>
       <set comment="band 23">
        <r>  0.0303  0.0107  0.0208  0.0107  0.0000  0.0000  0.0000  0.0000  0.0000 </r>
        <r>  0.0303  0.0107  0.0208  0.0107  0.0000  0.0000  0.0000  0.0000  0.0000 </r>
       </set>
       <set comment="band 24">
        <r>  0.0003  0.0069  0.0112  0.0010  0.0000  0.0000  0.0000  0.0000  0.0000 </r>
        <r>  0.0003  0.0069  0.0112  0.0010  0.0000  0.0000  0.0000  0.0000  0.0000 </r>
       </set>
      </set>
      <set comment="kpoint 19">
       <set comment="band 1">
        <r>  0.2072  0.0081  0.0021  0.0239  0.0000  0.0000  0.0000  0.0000  0.0000 </r>
        <r>  0.2072  0.0081  0.0021  0.0239  0.0000  0.0000  0.0000  0.0000  0.0000 </r>
       </set>
       <set comment="band 2">
        <r>  0.1943  0.0155  0.0064  0.0359  0.0000  0.0000  0.0000  0.0000  0.0000 </r>
        <r>  0.1943  0.0155  0.0064  0.0359  0.0000  0.0000  0.0000  0.0000  0.0000 </r>
       </set>
       <set comment="band 3">
        <r>  0.0060  0.0331  0.0756  0.0598  0.0000  0.0000  0.0000  0.0000  0.0000 </r>
        <r>  0.0060  0.0331  0.0756  0.0598  0.0000  0.0000  0.0000  0.0000  0.0000 </r>
       </set>
       <set comment="band 4">
        <r>  0.0000  0.0917  0.0756  0.0105  0.0000  0.0000  0.0000  0.0000  0.0000 </r>
        <r>  0.0000  0.0917  0.0756  0.0105  0.0000  0.0000  0.0000  0.0000  0.0000 </r>
       </set>
       <set comment="band 5">
        <r>  0.0376  0.0442  0.0237  0.0081  0.0000  0.0000  0.0000  0.0000  0.0000 </r>
        <r>  0.0376  0.0442  0.0237  0.0081  0.0000  0.0000  0.0000  0.0000  0.0000 </r>
       </set>
       <set comment="band 6">
        <r>  0.0363  0.0043  0.0200  0.0341  0.0000  0.0000  0.0000  0.0000  0.0000 </r>
        <r>  0.0363  0.0043  0.0200  0.0341  0.0000  0.0000  0.0000  0.0000  0.0000 </r>
       </set>
       <set comment="band 7">
        <r>  0.0342  0.0605  0.0424  0.0073  0.0000  0.0000  0.0000  0.0000  0.0000 </r>
        <r>  0.0342  0.0605  0.0424  0.0073  0.0000  0.0000  0.0000  0.0000  0.0000 </r>
       </set>
       <set comment="band 8">
        <r>  0.0177  0.0161  0.0535  0.0694  0.0000  0.0000  0.0000  0.0000  0.0000 </r>
        <r>  0.0177  0.0161  0.0535  0.0694  0.0000  0.0000  0.0000  0.0000  0.0000 </r>
       </set>
       <set comment="band 9">
        <r>  0.0001  0.0562  0.0477  0.0146  0.0000  0.0000  0.0000  0.0000  0.0000 </r>
        <r>  0.0001  0.0562  0.0477  0.0146  0.0000  0.0000  0.0000  0.0000  0.0000 </r>
       </set>
       <set comment="band 10">
        <r>  0.0304  0.0104  0.0058  0.0731  0.0000  0.0000  0.0000  0.0000  0.0000 </r>
        <r>  0.0304  0.0104  0.0058  0.0731  0.0000  0.0000  0.0000  0.0000  0.0000 </r>
       </set>
       <set comment="band 11">
        <r>  0.0074  0.0401  0.0546  0.0155  0.0000  0.0000  0.0000  0.0000  0.0000 </r>
        <r>  0.0074  0.0401  0.0546  0.0155  0.0000  0.0000  0.0000  0.0000  0.0000 </r>
       </set>
       <set comment="band 12">
        <r>  0.0047  0.0490  0.0051  0.0685  0.0000  0.0000  0.0000  0.0000  0.0000 </r>
        <r>  0.0047  0.0490  0.0051  0.0685  0.0000  0.0000  0.0000  0.0000  0.0000 </r>
       </set>
       <set comment="band 13">
        <r>  0.0292  0.0095  0.0251  0.0832  0.0000  0.0000  0.0000  0.0000  0.0000 </r>
        <r>  0.0292  0.0095  0.0251  0.0832  0.0000  0.0000  0.0000  0.0000  0.0000 </r>
       </set>
       <set comment="band 14">
        <r>  0.0014  0.0050  0.0077  0.0156  0.0000  0.0000  0.0000  0.0000  0.0000 </r>
        <r>  0.0014  0.0050  0.0077  0.0156  0.0000  0.0000  0.0000  0.0000  0.0000 </r>
       </set>
       <set comment="band 15">
        <r>  0.0283  0.0125  0.0068  0.0009  0.0000  0.0000  0.0000  0.0000  0.0000 </r>
        <r>  0.0283  0.0125  0.0068  0.0009  0.0000  0.0000  0.0000  0.0000  0.0000 </r>
       </set>
       <set comment="band 16">
        <r>  0.0179  0.0228  0.0069  0.0299  0.0000  0.0000  0.0000  0.0000  0.0000 </r>
        <r>  0.0179  0.0228  0.0069  0.0299  0.0000  0.0000  0.0000  0.0000  0.0000 </r>
       </set>
       <set comment="band 17">
        <r>  0.0014  0.0259  0.0127  0.0045  0.0000  0.0000  0.0000  0.0000  0.0000 </r>
        <r>  0.0014  0.0259  0.0127  0.0045  0.0000  0.0000  0.0000  0.0000  0.0000 </r>
       </set>
       <set comment="band 18">
        <r>  0.0104  0.0067  0.0120  0.0076  0.0000  0.0000  0.0000  0.0000  0.0000 </r>
        <r>  0.0104  0.0067  0.0120  0.0076  0.0000  0.0000  0.0000  0.0000  0.0000 </r>
       </set>
       <set comment="band 19">
        <r>  0.0176  0.0296  0.0425  0.0129  0.0000  0.0000  0.0000  0.0000  0.0000 </r>
        <r>  0.0176  0.0296  0.0425  0.0129  0.0000  0.0000  0.0000  0.0000  0.0000 </r>
       </set>
       <set comment="band 20">
        <r>  0.0208  0.0097  0.0164  0.0279  0.0000  0.0000  0.0000  0.0000  0.0000 </r>
        <r>  0.0208  0.0097  0.0164  0.0279  0.0000  0.0000  0.0000  0.0000  0.0000 </r>
       </set>
       <set comment="band 21">
        <r>  0.0001  0.0038  0.0064  0.0028  0.0000  0.0000  0.0000  0.0000  0.0000 </r>
        <r>  0.0001  0.0038  0.0064  0.0028  0.0000  0.0000  0.0000  0.0000  0.0000 </r>
       </set>
       <set comment="band 22">
        <r>  0.0297  0.0125  0.0163  0.0072  0.0000  0.0000  0.0000  0.0000  0.0000 </r>
        <r>  0.0297  0.0125  0.0163  0.0072  0.0000  0.0000  0.0000  0.0000  0.0000 </r>
       </set>
       <set comment="band 23">
        <r>  0.0094  0.0420  0.0267  0.0001  0.0000  0.0000  0.0000  0.0000  0.0000 </r>
        <r>  0.0094  0.0420  0.0267  0.0001  0.0000  0.0000  0.0000  0.0000  0.0000 </r>
       </set>
       <set comment="band 24">
        <r>  0.0000  0.0005  0.0029  0.0045  0.0000  0.0000  0.0000  0.0000  0.0000 </r>
        <r>  0.0000  0.0005  0.0029  0.0045  0.0000  0.0000  0.0000  0.0000  0.0000 </r>
       </set>
      </set>
      <set comment="kpoint 20">
       <set comment="band 1">
        <r>  0.2154  0.0148  0.0034  0.0163  0.0000  0.0000  0.0000  0.0000  0.0000 </r>
        <r>  0.2154  0.0148  0.0034  0.0163  0.0000  0.0000  0.0000  0.0000  0.0000 </r>
       </set>
       <set comment="band 2">
        <r>  0.1930  0.0223  0.0030  0.0293  0.0000  0.0000  0.0000  0.0000  0.0000 </r>
        <r>  0.1930  0.0223  0.0030  0.0293  0.0000  0.0000  0.0000  0.0000  0.0000 </r>
       </set>
       <set comment="band 3">
        <r>  0.0008  0.0878  0.0006  0.0700  0.0000  0.0000  0.0000  0.0000  0.0000 </r>
        <r>  0.0008  0.0878  0.0006  0.0700  0.0000  0.0000  0.0000  0.0000  0.0000 </r>
       </set>
       <set comment="band 4">
        <r>  0.0025  0.0072  0.1553  0.0142  0.0000  0.0000  0.0000  0.0000  0.0000 </r>
        <r>  0.0025  0.0072  0.1553  0.0142  0.0000  0.0000  0.0000  0.0000  0.0000 </r>
       </set>
       <set comment="band 5">
        <r>  0.0352  0.0107  0.0434  0.0174  0.0000  0.0000  0.0000  0.0000  0.0000 </r>
        <r>  0.0352  0.0107  0.0434  0.0174  0.0000  0.0000  0.0000  0.0000  0.0000 </r>
       </set>
       <set comment="band 6">
        <r>  0.0025  0.0394  0.0228  0.0198  0.0000  0.0000  0.0000  0.0000  0.0000 </r>
        <r>  0.0025  0.0394  0.0228  0.0198  0.0000  0.0000  0.0000  0.0000  0.0000 </r>
       </set>
       <set comment="band 7">
        <r>  0.0483  0.0272  0.0522  0.0387  0.0000  0.0000  0.0000  0.0000  0.0000 </r>
        <r>  0.0483  0.0272  0.0522  0.0387  0.0000  0.0000  0.0000  0.0000  0.0000 </r>
       </set>
       <set comment="band 8">
        <r>  0.0405  0.0493  0.0009  0.0399  0.0000  0.0000  0.0000  0.0000  0.0000 </r>
        <r>  0.0405  0.0493  0.0009  0.0399  0.0000  0.0000  0.0000  0.0000  0.0000 </r>
       </set>
       <set comment="band 9">
        <r>  0.0071  0.0229  0.0718  0.0456  0.0000  0.0000  0.0000  0.0000  0.0000 </r>
        <r>  0.0071  0.0229  0.0718  0.0456  0.0000  0.0000  0.0000  0.0000  0.0000 </r>
       </set>
       <set comment="band 10">
        <r>  0.0206  0.0578  0.0110  0.0301  0.0000  0.0000  0.0000  0.0000  0.0000 </r>
        <r>  0.0206  0.0578  0.0110  0.0301  0.0000  0.0000  0.0000  0.0000  0.0000 </r>
       </set>
       <set comment="band 11">
        <r>  0.0109  0.0446  0.0059  0.0750  0.0000  0.0000  0.0000  0.0000  0.0000 </r>
        <r>  0.0109  0.0446  0.0059  0.0750  0.0000  0.0000  0.0000  0.0000  0.0000 </r>
       </set>
       <set comment="band 12">
        <r>  0.0066  0.0316  0.0594  0.0327  0.0000  0.0000  0.0000  0.0000  0.0000 </r>
        <r>  0.0066  0.0316  0.0594  0.0327  0.0000  0.0000  0.0000  0.0000  0.0000 </r>
       </set>
       <set comment="band 13">
        <r>  0.0082  0.0146  0.0011  0.0118  0.0000  0.0000  0.0000  0.0000  0.0000 </r>
        <r>  0.0082  0.0146  0.0011  0.0118  0.0000  0.0000  0.0000  0.0000  0.0000 </r>
       </set>
       <set comment="band 14">
        <r>  0.0293  0.0023  0.0015  0.0012  0.0000  0.0000  0.0000  0.0000  0.0000 </r>
        <r>  0.0293  0.0023  0.0015  0.0012  0.0000  0.0000  0.0000  0.0000  0.0000 </r>
       </set>
       <set comment="band 15">
        <r>  0.0034  0.0643  0.0000  0.0670  0.0000  0.0000  0.0000  0.0000  0.0000 </r>
        <r>  0.0034  0.0643  0.0000  0.0670  0.0000  0.0000  0.0000  0.0000  0.0000 </r>
       </set>
       <set comment="band 16">
        <r>  0.0005  0.0217  0.0206  0.0419  0.0000  0.0000  0.0000  0.0000  0.0000 </r>
        <r>  0.0005  0.0217  0.0206  0.0419  0.0000  0.0000  0.0000  0.0000  0.0000 </r>
       </set>
       <set comment="band 17">
        <r>  0.0131  0.0376  0.0017  0.0193  0.0000  0.0000  0.0000  0.0000  0.0000 </r>
        <r>  0.0131  0.0376  0.0017  0.0193  0.0000  0.0000  0.0000  0.0000  0.0000 </r>
       </set>
       <set comment="band 18">
        <r>  0.0314  0.0132  0.0218  0.0143  0.0000  0.0000  0.0000  0.0000  0.0000 </r>
        <r>  0.0314  0.0132  0.0218  0.0143  0.0000  0.0000  0.0000  0.0000  0.0000 </r>
       </set>
       <set comment="band 19">
        <r>  0.0296  0.0032  0.0126  0.0044  0.0000  0.0000  0.0000  0.0000  0.0000 </r>
        <r>  0.0296  0.0032  0.0126  0.0044  0.0000  0.0000  0.0000  0.0000  0.0000 </r>
       </set>
       <set comment="band 20">
        <r>  0.0003  0.0173  0.0255  0.0104  0.0000  0.0000  0.0000  0.0000  0.0000 </r>
        <r>  0.0003  0.0173  0.0255  0.0104  0.0000  0.0000  0.0000  0.0000  0.0000 </r>
       </set>
       <set comment="band 21">
        <r>  0.0005  0.0123  0.0338  0.0080  0.0000  0.0000  0.0000  0.0000  0.0000 </r>
        <r>  0.0005  0.0123  0.0338  0.0080  0.0000  0.0000  0.0000  0.0000  0.0000 </r>
       </set>
       <set comment="band 22">
        <r>  0.0159  0.0158  0.0322  0.0102  0.0000  0.0000  0.0000  0.0000  0.0000 </r>
        <r>  0.0159  0.0158  0.0322  0.0102  0.0000  0.0000  0.0000  0.0000  0.0000 </r>
       </set>
       <set comment="band 23">
        <r>  0.0003  0.0006  0.0005  0.0010  0.0000  0.0000  0.0000  0.0000  0.0000 </r>
        <r>  0.0003  0.0006  0.0005  0.0010  0.0000  0.0000  0.0000  0.0000  0.0000 </r>
       </set>
       <set comment="band 24">
        <r>  0.0012  0.0150  0.0062  0.0085  0.0000  0.0000  0.0000  0.0000  0.0000 </r>
        <r>  0.0012  0.0150  0.0062  0.0085  0.0000  0.0000  0.0000  0.0000  0.0000 </r>
       </set>
      </set>
     </set>
    </set>
   </array>
  </projected>
 </calculation>
 <structure name="finalpos" >
  <crystal>
   <varray name="basis" >
    <v>       3.33357300       0.00000000       1.92463900 </v>
    <v>       1.11119100       3.14292400       1.92463900 </v>
    <v>       0.00000000       0.00000000       3.84927800 </v>
   </varray>
   <i name="volume">     40.32952680 </i>
   <varray name="rec_basis" >
    <v>       0.29997843      -0.10605835       0.00000000 </v>
    <v>       0.00000000       0.31817505       0.00000000 </v>
    <v>      -0.14998922      -0.10605835       0.25978898 </v>
   </varray>
  </crystal>
  <varray name="positions" >
   <v>       0.87500000       0.87500000       0.87500000 </v>
   <v>       0.12500000       0.12500000       0.12500000 </v>
  </varray>
 </structure>
</modeling>
