 vasp.6.4.2 20Jul23 (build Mar 15 2024 16:31:38) complex                        
  
 executed on             LinuxIFC date 2025.03.25  11:33:37
 running  120 mpi-ranks, on    3 nodes
 distrk:  each k-point on  120 cores,    1 groups
 distr:  one band on NCORE=  10 cores,   12 groups


--------------------------------------------------------------------------------------------------------


 INCAR:
   ALGO = Normal
   CSHIFT = 1e-05
   EDIFF = 1e-05
   ENAUG = 1360
   ENCUT = 680
   GGA = Pe
   HFSCREEN = 0.2
   ISMEAR = -5
   ISPIN = 1
   LAECHG = True
   LASPH = True
   LCHARG = False
   LDAU = False
   LELF = False
   LHFCALC = True
   LMAXMIX = 4
   LMIXTAU = True
   LOPTICS = True
   LORBIT = 11
   LREAL = False
   LVTOT = True
   LWAVE = False
   NBANDS = 72
   NCORE = 10
   NEDOS = 1725
   NELM = 200
   NELMIN = 5
   NSW = 0
   PREC = Accurate
   PRECFOCK = Fast
   SIGMA = 0.05

 POTCAR:    PAW_PBE Sn_d 06Sep2000                
 POTCAR:    PAW_PBE S 06Sep2000                   
 WARNING: For LVTOT=.TRUE., VASP.5.x writes the TOTAL local potential to the
     file LOCPOT. If you want only the Hartree contributions, use LVHAR=.TRUE.
     instead. 

 POTCAR:    PAW_PBE Sn_d 06Sep2000                
   VRHFIN =Sn: s2p2                                                                                 
   LEXCH  = PE                                                                                      
   EATOM  =  1893.1092 eV,  139.1396 Ry                                                             
                                                                                                    
   TITEL  = PAW_PBE Sn_d 06Sep2000                                                                  
   LULTRA =        F    use ultrasoft PP ?                                                          
   IUNSCR =        1    unscreen: 0-lin 1-nonlin 2-no                                               
   RPACOR =    2.300    partial core radius                                                         
   POMASS =  118.710; ZVAL   =   14.000    mass and valenz                                          
   RCORE  =    2.500    outmost cutoff radius                                                       
   RWIGS  =    2.960; RWIGS  =    1.566    wigner-seitz radius (au A)                               
   ENMAX  =  241.083; ENMIN  =  180.812 eV                                                          
   ICORE  =        3    local potential                                                             
   LCOR   =        T    correct aug charges                                                         
   LPAW   =        T    paw PP                                                                      
   EAUG   =  439.825                                                                                
   DEXC   =    0.000                                                                                
   RMAX   =    2.560    core radius for proj-oper                                                   
   RAUG   =    1.300    factor for augmentation sphere                                              
   RDEP   =    2.659    radius for radial grids                                                     
   RDEPT  =    2.046    core radius for aug-charge                                                  
                                                                                                    
   Atomic configuration                                                                             
   12 entries                                                                                       
     n  l   j            E        occ.                                                              
     1  0  0.50    -29007.2859   2.0000                                                             
     2  0  0.50     -4378.8056   2.0000                                                             
     2  1  1.50     -3930.4293   6.0000                                                             
     3  0  0.50      -845.0264   2.0000                                                             
     3  1  1.50      -698.5725   6.0000                                                             
     3  2  2.50      -473.2839  10.0000                                                             
     4  0  0.50      -133.9036   2.0000                                                             
     4  1  1.50       -89.6752   6.0000                                                             
     4  2  2.50       -25.8375  10.0000                                                             
     5  0  0.50       -10.5484   2.0000                                                             
     5  1  0.50        -3.6940   2.0000                                                             
     4  3  2.50        -2.7416   0.0000                                                             
   Description                                                                                      
     l       E           TYP  RCUT    TYP  RCUT                                                     
     2    -25.8374624     23  2.500                                                                 
     2     -5.4423304     23  2.500                                                                 
     0    -10.5483727     23  2.500                                                                 
     0     13.6058260     23  2.500                                                                 
     1     -3.6939829     23  2.500                                                                 
     1      1.9821976     23  2.500                                                                 
     3     -1.3605826      7  2.500                                                                 
  local pseudopotential read in
  partial core-charges read in
  partial kinetic energy density read in
  atomic valenz-charges read in
  non local Contribution for L=           2  read in
    real space projection operators read in
  non local Contribution for L=           2  read in
    real space projection operators read in
  non local Contribution for L=           0  read in
    real space projection operators read in
  non local Contribution for L=           0  read in
    real space projection operators read in
  non local Contribution for L=           1  read in
    real space projection operators read in
  non local Contribution for L=           1  read in
    real space projection operators read in
    PAW grid and wavefunctions read in
 
   number of l-projection  operators is LMAX  =           6
   number of lm-projection operators is LMMAX =          18
 
 POTCAR:    PAW_PBE S 06Sep2000                   
   VRHFIN =S : s2p4                                                                                 
   LEXCH  = PE                                                                                      
   EATOM  =   276.8230 eV,   20.3459 Ry                                                             
                                                                                                    
   TITEL  = PAW_PBE S 06Sep2000                                                                     
   LULTRA =        F    use ultrasoft PP ?                                                          
   IUNSCR =        1    unscreen: 0-lin 1-nonlin 2-no                                               
   RPACOR =    1.500    partial core radius                                                         
   POMASS =   32.066; ZVAL   =    6.000    mass and valenz                                          
   RCORE  =    1.900    outmost cutoff radius                                                       
   RWIGS  =    2.200; RWIGS  =    1.164    wigner-seitz radius (au A)                               
   ENMAX  =  258.689; ENMIN  =  194.016 eV                                                          
   ICORE  =        2    local potential                                                             
   LCOR   =        T    correct aug charges                                                         
   LPAW   =        T    paw PP                                                                      
   EAUG   =  335.092                                                                                
   DEXC   =    0.000                                                                                
   RMAX   =    1.942    core radius for proj-oper                                                   
   RAUG   =    1.300    factor for augmentation sphere                                              
   RDEP   =    1.954    radius for radial grids                                                     
   RDEPT  =    1.744    core radius for aug-charge                                                  
                                                                                                    
   Atomic configuration                                                                             
    6 entries                                                                                       
     n  l   j            E        occ.                                                              
     1  0  0.50     -2405.8406   2.0000                                                             
     2  0  0.50      -211.7007   2.0000                                                             
     2  1  1.50      -156.4958   6.0000                                                             
     3  0  0.50       -17.2562   2.0000                                                             
     3  1  0.50        -7.0085   4.0000                                                             
     3  2  1.50        -6.8029   0.0000                                                             
   Description                                                                                      
     l       E           TYP  RCUT    TYP  RCUT                                                     
     0    -17.2561641     23  1.900                                                                 
     0    -15.8743224     23  1.900                                                                 
     1     -7.0085400     23  1.900                                                                 
     1     -2.7779785     23  1.900                                                                 
     2     -6.8029130     23  1.900                                                                 
  local pseudopotential read in
  partial core-charges read in
  partial kinetic energy density read in
  atomic valenz-charges read in
  non local Contribution for L=           0  read in
    real space projection operators read in
  non local Contribution for L=           0  read in
    real space projection operators read in
  non local Contribution for L=           1  read in
    real space projection operators read in
  non local Contribution for L=           1  read in
    real space projection operators read in
    PAW grid and wavefunctions read in
 
   number of l-projection  operators is LMAX  =           4
   number of lm-projection operators is LMMAX =           8
 
  PAW_PBE Sn_d 06Sep2000                :
 energy of atom  1       EATOM=-1893.1092
 kinetic energy error for atom=    0.0008 (will be added to EATOM!!)
  PAW_PBE S 06Sep2000                   :
 energy of atom  2       EATOM= -276.8230
 kinetic energy error for atom=    0.0008 (will be added to EATOM!!)
 
 
 POSCAR: Sn4 S4
  positions in direct lattice
  No initial velocities read in
 exchange correlation table for  LEXCH =        8
   RHO(1)=    0.500       N(1)  =     2000
   RHO(2)=  100.500       N(2)  =     4000
 


--------------------------------------------------------------------------------------------------------


 ion  position               nearest neighbor table
   1  0.250  0.370  0.622-   8 2.63   6 2.65   6 2.65   2 3.60   2 3.60
   2  0.750  0.630  0.378-   7 2.63   5 2.65   5 2.65   1 3.60   1 3.60
   3  0.750  0.870  0.878-   6 2.63   8 2.65   8 2.65   4 3.60   4 3.60
   4  0.250  0.130  0.122-   5 2.63   7 2.65   7 2.65   3 3.60   3 3.60
   5  0.250  0.011  0.347-   4 2.63   2 2.65   2 2.65
   6  0.750  0.989  0.653-   3 2.63   1 2.65   1 2.65
   7  0.750  0.511  0.153-   2 2.63   4 2.65   4 2.65
   8  0.250  0.489  0.847-   1 2.63   3 2.65   3 2.65
 
  LATTYP: Found a simple orthorhombic cell.
 ALAT       =     3.9568552100
 B/A-ratio  =     1.1455588970
 C/A-ratio  =     2.8790587235
  
  Lattice vectors:
  
 A1 = (   3.9568552100,   0.0000000000,   0.0000000000)
 A2 = (  -0.0000000000,   4.5328106900,   0.0000000000)
 A3 = (   0.0000000000,   0.0000000000,  11.3920185100)


Analysis of symmetry for initial positions (statically):
=====================================================================
 Subroutine PRICEL returns:
 Original cell was already a primitive cell.
 

 Routine SETGRP: Setting up the symmetry group for a 
 simple orthorhombic supercell.


 Subroutine GETGRP returns: Found  8 space group operations
 (whereof  2 operations were pure point group operations)
 out of a pool of  8 trial point group operations.


The static configuration has the point symmetry S_2 .
 The point group associated with its full space group is D_2h.


Analysis of symmetry for dynamics (positions and initial velocities):
=====================================================================
 Subroutine PRICEL returns:
 Original cell was already a primitive cell.
 

 Routine SETGRP: Setting up the symmetry group for a 
 simple orthorhombic supercell.


 Subroutine GETGRP returns: Found  8 space group operations
 (whereof  2 operations were pure point group operations)
 out of a pool of  8 trial point group operations.


The dynamic configuration has the point symmetry S_2 .
 The point group associated with its full space group is D_2h.


 Subroutine INISYM returns: Found  8 space group operations
 (whereof  2 operations are pure point group operations),
 and found     1 'primitive' translations


----------------------------------------------------------------------------------------

                                     Primitive cell                                     

  volume of cell :     204.3235

  direct lattice vectors                    reciprocal lattice vectors
     3.956855210  0.000000000  0.000000000     0.252725952  0.000000000  0.000000000
    -0.000000000  4.532810690  0.000000000     0.000000000  0.220613670  0.000000000
     0.000000000  0.000000000 11.392018510    -0.000000000 -0.000000000  0.087780756

  length of vectors
     3.956855210  4.532810690 11.392018510     0.252725952  0.220613670  0.087780756

  position of ions in fractional coordinates (direct lattice)
     0.250000000  0.369539840  0.621632750
     0.750000000  0.630460160  0.378367250
     0.750000000  0.869539840  0.878367250
     0.250000000  0.130460160  0.121632750
     0.250000000  0.010596800  0.347497460
     0.750000000  0.989403200  0.652502540
     0.750000000  0.510596800  0.152502540
     0.250000000  0.489403200  0.847497460

  ion indices of the primitive-cell ions
   primitive index   ion index
                 1           1
                 2           2
                 3           3
                 4           4
                 5           5
                 6           6
                 7           7
                 8           8

----------------------------------------------------------------------------------------

 
 
 KPOINTS: pymatgen with grid density = 622 / numbe

Automatic generation of k-mesh.
 Grid dimensions read from file:
 generate k-points for:    6    5    2

 Generating k-lattice:

  Cartesian coordinates                     Fractional coordinates (reciprocal lattice)
     0.042120992  0.000000000  0.000000000     0.166666667 -0.000000000  0.000000000
     0.000000000  0.044122734  0.000000000     0.000000000  0.200000000  0.000000000
    -0.000000000 -0.000000000  0.043890378     0.000000000 -0.000000000  0.500000000

  Length of vectors
     0.042120992  0.044122734  0.043890378

  Shift w.r.t. Gamma in fractional coordinates (k-lattice)
     0.000000000  0.000000000  0.000000000

 TETIRR: Found    180 inequivalent tetrahedra from      360
 
 Subroutine IBZKPT returns following result:
 ===========================================
 
 Found     24 irreducible k-points:
 
 Following reciprocal coordinates:
            Coordinates               Weight
  0.000000  0.000000  0.000000      1.000000
  0.166667 -0.000000  0.000000      2.000000
  0.333333 -0.000000  0.000000      2.000000
  0.500000 -0.000000  0.000000      1.000000
  0.000000  0.200000  0.000000      2.000000
  0.166667  0.200000  0.000000      4.000000
  0.333333  0.200000  0.000000      4.000000
  0.500000  0.200000  0.000000      2.000000
  0.000000  0.400000  0.000000      2.000000
  0.166667  0.400000  0.000000      4.000000
  0.333333  0.400000  0.000000      4.000000
  0.500000  0.400000  0.000000      2.000000
 -0.000000  0.000000  0.500000      1.000000
  0.166667 -0.000000  0.500000      2.000000
  0.333333 -0.000000  0.500000      2.000000
  0.500000 -0.000000  0.500000      1.000000
 -0.000000  0.200000  0.500000      2.000000
  0.166667  0.200000  0.500000      4.000000
  0.333333  0.200000  0.500000      4.000000
  0.500000  0.200000  0.500000      2.000000
 -0.000000  0.400000  0.500000      2.000000
  0.166667  0.400000  0.500000      4.000000
  0.333333  0.400000  0.500000      4.000000
  0.500000  0.400000  0.500000      2.000000
 
 Following cartesian coordinates:
            Coordinates               Weight
  0.000000  0.000000  0.000000      1.000000
  0.042121  0.000000  0.000000      2.000000
  0.084242  0.000000  0.000000      2.000000
  0.126363  0.000000  0.000000      1.000000
  0.000000  0.044123  0.000000      2.000000
  0.042121  0.044123  0.000000      4.000000
  0.084242  0.044123  0.000000      4.000000
  0.126363  0.044123  0.000000      2.000000
  0.000000  0.088245  0.000000      2.000000
  0.042121  0.088245  0.000000      4.000000
  0.084242  0.088245  0.000000      4.000000
  0.126363  0.088245  0.000000      2.000000
 -0.000000 -0.000000  0.043890      1.000000
  0.042121 -0.000000  0.043890      2.000000
  0.084242  0.000000  0.043890      2.000000
  0.126363  0.000000  0.043890      1.000000
 -0.000000  0.044123  0.043890      2.000000
  0.042121  0.044123  0.043890      4.000000
  0.084242  0.044123  0.043890      4.000000
  0.126363  0.044123  0.043890      2.000000
 -0.000000  0.088245  0.043890      2.000000
  0.042121  0.088245  0.043890      4.000000
  0.084242  0.088245  0.043890      4.000000
  0.126363  0.088245  0.043890      2.000000
 
 
 Subroutine IBZKPT_HF returns following result:
 ==============================================
 
 Found     60 k-points in 1st BZ
 the following     60 k-points will be used (e.g. in the exchange kernel)
 Following reciprocal coordinates:   # in IRBZ
  0.000000  0.000000  0.000000    0.01666667   1 t-inv F
  0.166667 -0.000000  0.000000    0.01666667   2 t-inv F
  0.333333 -0.000000  0.000000    0.01666667   3 t-inv F
  0.500000 -0.000000  0.000000    0.01666667   4 t-inv F
  0.000000  0.200000  0.000000    0.01666667   5 t-inv F
  0.166667  0.200000  0.000000    0.01666667   6 t-inv F
  0.333333  0.200000  0.000000    0.01666667   7 t-inv F
  0.500000  0.200000  0.000000    0.01666667   8 t-inv F
  0.000000  0.400000  0.000000    0.01666667   9 t-inv F
  0.166667  0.400000  0.000000    0.01666667  10 t-inv F
  0.333333  0.400000  0.000000    0.01666667  11 t-inv F
  0.500000  0.400000  0.000000    0.01666667  12 t-inv F
 -0.000000  0.000000  0.500000    0.01666667  13 t-inv F
  0.166667 -0.000000  0.500000    0.01666667  14 t-inv F
  0.333333 -0.000000  0.500000    0.01666667  15 t-inv F
  0.500000 -0.000000  0.500000    0.01666667  16 t-inv F
 -0.000000  0.200000  0.500000    0.01666667  17 t-inv F
  0.166667  0.200000  0.500000    0.01666667  18 t-inv F
  0.333333  0.200000  0.500000    0.01666667  19 t-inv F
  0.500000  0.200000  0.500000    0.01666667  20 t-inv F
 -0.000000  0.400000  0.500000    0.01666667  21 t-inv F
  0.166667  0.400000  0.500000    0.01666667  22 t-inv F
  0.333333  0.400000  0.500000    0.01666667  23 t-inv F
  0.500000  0.400000  0.500000    0.01666667  24 t-inv F
 -0.166667  0.000000  0.000000    0.01666667   2 t-inv F
 -0.333333  0.000000  0.000000    0.01666667   3 t-inv F
  0.000000 -0.200000  0.000000    0.01666667   5 t-inv F
 -0.166667 -0.200000  0.000000    0.01666667   6 t-inv F
 -0.166667  0.200000  0.000000    0.01666667   6 t-inv F
  0.166667 -0.200000  0.000000    0.01666667   6 t-inv F
 -0.333333 -0.200000  0.000000    0.01666667   7 t-inv F
 -0.333333  0.200000  0.000000    0.01666667   7 t-inv F
  0.333333 -0.200000  0.000000    0.01666667   7 t-inv F
 -0.500000 -0.200000  0.000000    0.01666667   8 t-inv F
  0.000000 -0.400000  0.000000    0.01666667   9 t-inv F
 -0.166667 -0.400000  0.000000    0.01666667  10 t-inv F
 -0.166667  0.400000  0.000000    0.01666667  10 t-inv F
  0.166667 -0.400000  0.000000    0.01666667  10 t-inv F
 -0.333333 -0.400000  0.000000    0.01666667  11 t-inv F
 -0.333333  0.400000  0.000000    0.01666667  11 t-inv F
  0.333333 -0.400000  0.000000    0.01666667  11 t-inv F
 -0.500000 -0.400000  0.000000    0.01666667  12 t-inv F
 -0.166667  0.000000 -0.500000    0.01666667  14 t-inv F
 -0.333333  0.000000 -0.500000    0.01666667  15 t-inv F
  0.000000 -0.200000 -0.500000    0.01666667  17 t-inv F
 -0.166667 -0.200000 -0.500000    0.01666667  18 t-inv F
 -0.166667  0.200000 -0.500000    0.01666667  18 t-inv F
  0.166667 -0.200000  0.500000    0.01666667  18 t-inv F
 -0.333333 -0.200000 -0.500000    0.01666667  19 t-inv F
 -0.333333  0.200000 -0.500000    0.01666667  19 t-inv F
  0.333333 -0.200000  0.500000    0.01666667  19 t-inv F
 -0.500000 -0.200000 -0.500000    0.01666667  20 t-inv F
  0.000000 -0.400000 -0.500000    0.01666667  21 t-inv F
 -0.166667 -0.400000 -0.500000    0.01666667  22 t-inv F
 -0.166667  0.400000 -0.500000    0.01666667  22 t-inv F
  0.166667 -0.400000  0.500000    0.01666667  22 t-inv F
 -0.333333 -0.400000 -0.500000    0.01666667  23 t-inv F
 -0.333333  0.400000 -0.500000    0.01666667  23 t-inv F
  0.333333 -0.400000  0.500000    0.01666667  23 t-inv F
 -0.500000 -0.400000 -0.500000    0.01666667  24 t-inv F


--------------------------------------------------------------------------------------------------------




 Dimension of arrays:
   k-points           NKPTS =     24   k-points in BZ     NKDIM =     60   number of bands    NBANDS=     72
   number of dos      NEDOS =   1725   number of ions     NIONS =      8
   non local maximal  LDIM  =      6   non local SUM 2l+1 LMDIM =     18
   total plane-waves  NPLWV = 141120
   max r-space proj   IRMAX =      1   max aug-charges    IRDMAX=  31040
   dimension x,y,z NGX =    36 NGY =   40 NGZ =   98
   dimension x,y,z NGXF=    72 NGYF=   80 NGZF=  196
   support grid    NGXF=    72 NGYF=   80 NGZF=  196
   ions per type =               4   4
   NGX,Y,Z   is equivalent  to a cutoff of  15.13, 14.67, 14.30 a.u.
   NGXF,Y,Z  is equivalent  to a cutoff of  30.25, 29.34, 28.60 a.u.

 SYSTEM =  unknown system                          
 POSCAR =  Sn4 S4                                  

 Startparameter for this run:
   NWRITE =      2    write-flag & timer
   PREC   = accura    normal or accurate (medium, high low for compatibility)
   ISTART =      0    job   : 0-new  1-cont  2-samecut
   ICHARG =      2    charge: 1-file 2-atom 10-const
   ISPIN  =      1    spin polarized calculation?
   LNONCOLLINEAR =      F non collinear calculations
   LSORBIT =      F    spin-orbit coupling
   INIWAV =      1    electr: 0-lowe 1-rand  2-diag
   LASPH  =      T    aspherical Exc in radial PAW
 Electronic Relaxation 1
   ENCUT  =  680.0 eV  49.98 Ry    7.07 a.u.   8.41  9.64 24.22*2*pi/ulx,y,z
   ENINI  =  680.0     initial cutoff
   ENAUG  = 1360.0 eV  augmentation charge cutoff
   NELM   =    200;   NELMIN=  5; NELMDL= -5     # of ELM steps 
   EDIFF  = 0.1E-04   stopping-criterion for ELM
   LREAL  =      F    real-space projection
   NLSPLINE    = F    spline interpolate recip. space projectors
   LCOMPAT=      F    compatible to vasp.4.4
   GGA_COMPAT  = T    GGA compatible to vasp.4.4-vasp.4.6
   LMAXPAW     = -100 max onsite density
   LMAXMIX     =    4 max onsite mixed and CHGCAR
   VOSKOWN=      0    Vosko Wilk Nusair interpolation
   ROPT   =    0.00000   0.00000
 Ionic relaxation
   EDIFFG = 0.1E-03   stopping-criterion for IOM
   NSW    =      0    number of steps for IOM
   NBLOCK =      1;   KBLOCK =      1    inner block; outer block 
   IBRION =     -1    ionic relax: 0-MD 1-quasi-New 2-CG
   NFREE  =      0    steps in history (QN), initial steepest desc. (CG)
   ISIF   =      0    stress and relaxation
   IWAVPR =     10    prediction:  0-non 1-charg 2-wave 3-comb
   ISYM   =      3    0-nonsym 1-usesym 2-fastsym
   LCORR  =      T    Harris-Foulkes like correction to forces

   POTIM  = 0.5000    time-step for ionic-motion
   TEIN   =    0.0    initial temperature
   TEBEG  =    0.0;   TEEND  =   0.0 temperature during run
   SMASS  =  -3.00    Nose mass-parameter (am)
   estimated Nose-frequenzy (Omega)   =  0.10E-29 period in steps = 0.13E+47 mass=  -0.358E-27a.u.
   SCALEE = 1.0000    scale energy and forces
   NPACO  =    256;   APACO  = 10.0  distance and # of slots for P.C.
   PSTRESS=    0.0 pullay stress

  Mass of Ions in am
   POMASS = 118.71 32.07
  Ionic Valenz
   ZVAL   =  14.00  6.00
  Atomic Wigner-Seitz radii
   RWIGS  =  -1.00 -1.00
  virtual crystal weights 
   VCA    =   1.00  1.00
   NELECT =      80.0000    total number of electrons
   NUPDOWN=      -1.0000    fix difference up-down

 DOS related values:
   EMIN   =  10.00;   EMAX   =-10.00  energy-range for DOS
   EFERMI =   0.00;   METHOD = LEGACY      
   ISMEAR =    -5;   SIGMA  =   0.05  broadening in eV -4-tet -1-fermi 0-gaus

 Electronic relaxation 2 (details)
   IALGO  =     38    algorithm
   LDIAG  =      T    sub-space diagonalisation (order eigenvalues)
   LSUBROT=      F    optimize rotation matrix (better conditioning)
   TURBO    =      0    0=normal 1=particle mesh
   IRESTART =      0    0=no restart 2=restart with 2 vectors
   NREBOOT  =      0    no. of reboots
   NMIN     =      0    reboot dimension
   EREF     =   0.00    reference energy to select bands
   IMIX   =      1    mixing-type and parameters
     AMIX     =   0.40;   BMIX     =  1.00
     AMIX_MAG =   1.60;   BMIX_MAG =  1.00
     AMIN     =   0.10
     WC   =   100.;   INIMIX=   1;  MIXPRE=   1;  MAXMIX= -45

 Intra band minimization:
   WEIMIN = 0.0000     energy-eigenvalue tresh-hold
   EBREAK =  0.35E-07  absolut break condition
   DEPER  =   0.30     relativ break condition  

   TIME   =   0.40     timestep for ELM

  volume/ion in A,a.u.               =      25.54       172.36
  Fermi-wavevector in a.u.,A,eV,Ry     =   1.197656  2.263241 19.515916  1.434379
  Thomas-Fermi vector in A             =   2.333565
 
 Write flags
   LWAVE        =      F    write WAVECAR
   LDOWNSAMPLE  =      F    k-point downsampling of WAVECAR
   LCHARG       =      F    write CHGCAR
   LVTOT        =      T    write LOCPOT, total local potential
   LVHAR        =      F    write LOCPOT, Hartree potential only
   LELF         =      F    write electronic localiz. function (ELF)
   LORBIT       =     11    0 simple, 1 ext, 2 COOP (PROOUT), +10 PAW based schemes


 Dipole corrections
   LMONO  =      F    monopole corrections only (constant potential shift)
   LDIPOL =      F    correct potential (dipole corrections)
   IDIPOL =      0    1-x, 2-y, 3-z, 4-all directions 
   EPSILON=  1.0000000 bulk dielectric constant

 Exchange correlation treatment:
   GGA     =    PE    GGA type
   LEXCH   =     8    internal setting for exchange type
   LIBXC   =     F    Libxc                    
   VOSKOWN =     0    Vosko Wilk Nusair interpolation
   EXXOEP  =     0    0=HF, 1=EXX-LHF (local Hartree Fock) 2=EXX OEP
   LHFCALC =     T    Hartree Fock is set to
   LSYMGRAD=     F    symmetrize gradient (conserves proper symmetry)
   PRECFOCK=fast      Normal, Fast or Accurate (Low or Medium for compatibility)
   LRHFCALC=     F    long range Hartree Fock
   LRSCOR  =     F    long range correlation only (use DFT for short range part)
   LTHOMAS =     F    Thomas Fermi screening in HF
   LMODELHF=     F    short range full HF, long range fraction AEXX
   FOCKCORR=     1    mode to apply convergence corrections
   LFOCKACE=     T    use Adeptively-Compressed-Exchange operator
   ENCUT4O =  -1.0   cutoff for four orbital integrals eV
   LMAXFOCK=     4    L truncation for augmentation on plane wave grid
   LMAXFOCKAE=  -1    L truncation for all-electron charge restoration on plane wave grid
   NMAXFOCKAE=   1    number of basis functions for all-electron charge restoration
   LFOCKAEDFT=     F  apply the AE augmentation even for DFT
   NKREDX  =     1    reduce k-point grid by
   NKREDY  =     1    reduce k-point grid by
   NKREDZ  =     1    reduce k-point grid by
   SHIFTRED=     F    shift reduced grid of Gamma
   HFKIDENT=     F    idential grid for each k-point
   ODDONLY =     F    use only odd q-grid points
   EVENONLY=     F    use only even q-grid points
   HFALPHA =   -1.0000 decay constant for conv. correction
   MCALPHA =    0.0000 extent of test-charge in conv. correction in multipole expansion
   AEXX    =    0.2500 exact exchange contribution
   HFSCREEN=    0.2000 screening length (either q_TF or 0.3 A-1)
   HFSCREENC=   0.2000 screening length for correlation (either q_TF or 0.3 A-1)
   HFRCUT  =    0.0000 spherical cutoff for potential kernel
   ALDAX   =    0.7500 LDA exchange part
   AGGAX   =    0.7500 GGA exchange part
   ALDAC   =    1.0000 LDA correlation
   AGGAC   =    1.0000 GGA correlation
   ENCUTFOCK=  -1.0 apply spherical cutoff to Coloumb kernel
   NBANDSGWLOW=     1    first orbital included in HF term
   NBLOCK_FOCK=    64    blocking factor in FOCK_ACC

 Linear response parameters
   LEPSILON=     F    determine dielectric tensor
   LRPA    =     F    only Hartree local field effects (RPA)
   LNABLA  =     F    use nabla operator in PAW spheres
   LVEL    =     F    velocity operator in full k-point grid
   CSHIFT  =0.0000    complex shift for real part using Kramers Kronig
   OMEGAMAX=  -1.0    maximum frequency
   DEG_THRESHOLD= 0.2000000E-02 threshold for treating states as degnerate
   RTIME   =   -0.100 relaxation time in fs
  (WPLASMAI=    0.000 imaginary part of plasma frequency in eV, 0.658/RTIME)
   DFIELD  = 0.0000000 0.0000000 0.0000000 field for delta impulse in time
 
  Optional k-point grid parameters
   LKPOINTS_OPT  =     F    use optional k-point grid
   KPOINTS_OPT_MODE=     1    mode for optional k-point grid
 
 Orbital magnetization related:
   ORBITALMAG=     F  switch on orbital magnetization
   LCHIMAG   =     F  perturbation theory with respect to B field
   DQ        =  0.001000  dq finite difference perturbation B field
   LLRAUG    =     F  two centre corrections for induced B field
   LBONE     =     F  B-component reconstruction in AE one-centre
   LVGVCALC  =     T  calculate vGv susceptibility
   LVGVAPPL  =     F  apply vGv susceptibility instead of pGv for G=0

 Random number generation:
   RANDOM_GENERATOR = DEFAULT
   PCG_SEED         = not used


--------------------------------------------------------------------------------------------------------


 Static calculation
 charge density and potential will be updated during run
 non-spin polarized calculation
 Variant of blocked Davidson
 Davidson routine will perform the subspace rotation
 perform sub-space diagonalisation
    after iterative eigenvector-optimisation
 Kerker-like  mixing scheme
 using additional bands           32
 reciprocal scheme for non local part
 use partial core corrections
 calculate Harris-corrections to forces 
   (improved forces if not selfconsistent)
 use gradient corrections 
 use of overlap-Matrix (Vanderbilt PP)
 Fermi weights with tetrahedron method with Bloechl corrections


--------------------------------------------------------------------------------------------------------


  energy-cutoff  :      680.00
  volume of cell :      204.32
      direct lattice vectors                 reciprocal lattice vectors
     3.956855210  0.000000000  0.000000000     0.252725952  0.000000000  0.000000000
    -0.000000000  4.532810690  0.000000000     0.000000000  0.220613670  0.000000000
     0.000000000  0.000000000 11.392018510    -0.000000000 -0.000000000  0.087780756

  length of vectors
     3.956855210  4.532810690 11.392018510     0.252725952  0.220613670  0.087780756


 
 k-points in units of 2pi/SCALE and weight: pymatgen with grid density = 622 / numbe
   0.00000000  0.00000000  0.00000000       0.017
   0.04212099  0.00000000  0.00000000       0.033
   0.08424198  0.00000000  0.00000000       0.033
   0.12636298  0.00000000  0.00000000       0.017
   0.00000000  0.04412273  0.00000000       0.033
   0.04212099  0.04412273  0.00000000       0.067
   0.08424198  0.04412273  0.00000000       0.067
   0.12636298  0.04412273  0.00000000       0.033
   0.00000000  0.08824547  0.00000000       0.033
   0.04212099  0.08824547  0.00000000       0.067
   0.08424198  0.08824547  0.00000000       0.067
   0.12636298  0.08824547  0.00000000       0.033
  -0.00000000 -0.00000000  0.04389038       0.017
   0.04212099 -0.00000000  0.04389038       0.033
   0.08424198  0.00000000  0.04389038       0.033
   0.12636298  0.00000000  0.04389038       0.017
  -0.00000000  0.04412273  0.04389038       0.033
   0.04212099  0.04412273  0.04389038       0.067
   0.08424198  0.04412273  0.04389038       0.067
   0.12636298  0.04412273  0.04389038       0.033
  -0.00000000  0.08824547  0.04389038       0.033
   0.04212099  0.08824547  0.04389038       0.067
   0.08424198  0.08824547  0.04389038       0.067
   0.12636298  0.08824547  0.04389038       0.033
 
 k-points in reciprocal lattice and weights: pymatgen with grid density = 622 / numbe
   0.00000000  0.00000000  0.00000000       0.017
   0.16666667 -0.00000000  0.00000000       0.033
   0.33333333 -0.00000000  0.00000000       0.033
   0.50000000 -0.00000000  0.00000000       0.017
   0.00000000  0.20000000  0.00000000       0.033
   0.16666667  0.20000000  0.00000000       0.067
   0.33333333  0.20000000  0.00000000       0.067
   0.50000000  0.20000000  0.00000000       0.033
   0.00000000  0.40000000  0.00000000       0.033
   0.16666667  0.40000000  0.00000000       0.067
   0.33333333  0.40000000  0.00000000       0.067
   0.50000000  0.40000000  0.00000000       0.033
  -0.00000000  0.00000000  0.50000000       0.017
   0.16666667 -0.00000000  0.50000000       0.033
   0.33333333 -0.00000000  0.50000000       0.033
   0.50000000 -0.00000000  0.50000000       0.017
  -0.00000000  0.20000000  0.50000000       0.033
   0.16666667  0.20000000  0.50000000       0.067
   0.33333333  0.20000000  0.50000000       0.067
   0.50000000  0.20000000  0.50000000       0.033
  -0.00000000  0.40000000  0.50000000       0.033
   0.16666667  0.40000000  0.50000000       0.067
   0.33333333  0.40000000  0.50000000       0.067
   0.50000000  0.40000000  0.50000000       0.033
 
 position of ions in fractional coordinates (direct lattice) 
   0.25000000  0.36953984  0.62163275
   0.75000000  0.63046016  0.37836725
   0.75000000  0.86953984  0.87836725
   0.25000000  0.13046016  0.12163275
   0.25000000  0.01059680  0.34749746
   0.75000000  0.98940320  0.65250254
   0.75000000  0.51059680  0.15250254
   0.25000000  0.48940320  0.84749746
 
 position of ions in cartesian coordinates  (Angst):
   0.98921380  1.67505414  7.08165179
   2.96764141  2.85775655  4.31036672
   2.96764141  3.94145948 10.00637597
   0.98921380  0.59135121  1.38564254
   0.98921380  0.04803329  3.95869750
   2.96764141  4.48477740  7.43332101
   2.96764141  2.31443863  1.73731176
   0.98921380  2.21837206  9.65470675
 


--------------------------------------------------------------------------------------------------------


 k-point   1 :   0.0000 0.0000 0.0000  plane waves:    8239
 k-point   2 :   0.1667-0.0000 0.0000  plane waves:    8229
 k-point   3 :   0.3333-0.0000 0.0000  plane waves:    8217
 k-point   4 :   0.5000-0.0000 0.0000  plane waves:    8228
 k-point   5 :   0.0000 0.2000 0.0000  plane waves:    8257
 k-point   6 :   0.1667 0.2000 0.0000  plane waves:    8238
 k-point   7 :   0.3333 0.2000 0.0000  plane waves:    8215
 k-point   8 :   0.5000 0.2000 0.0000  plane waves:    8200
 k-point   9 :   0.0000 0.4000 0.0000  plane waves:    8226
 k-point  10 :   0.1667 0.4000 0.0000  plane waves:    8214
 k-point  11 :   0.3333 0.4000 0.0000  plane waves:    8207
 k-point  12 :   0.5000 0.4000 0.0000  plane waves:    8218
 k-point  13 :  -0.0000 0.0000 0.5000  plane waves:    8220
 k-point  14 :   0.1667-0.0000 0.5000  plane waves:    8234
 k-point  15 :   0.3333-0.0000 0.5000  plane waves:    8252
 k-point  16 :   0.5000-0.0000 0.5000  plane waves:    8252
 k-point  17 :  -0.0000 0.2000 0.5000  plane waves:    8228
 k-point  18 :   0.1667 0.2000 0.5000  plane waves:    8246
 k-point  19 :   0.3333 0.2000 0.5000  plane waves:    8232
 k-point  20 :   0.5000 0.2000 0.5000  plane waves:    8220
 k-point  21 :  -0.0000 0.4000 0.5000  plane waves:    8218
 k-point  22 :   0.1667 0.4000 0.5000  plane waves:    8232
 k-point  23 :   0.3333 0.4000 0.5000  plane waves:    8208
 k-point  24 :   0.5000 0.4000 0.5000  plane waves:    8180

 maximum and minimum number of plane-waves per node :       848      796

 maximum number of plane-waves:      8257
 maximum index in each direction: 
   IXMAX=    8   IYMAX=    9   IZMAX=   24
   IXMIN=   -8   IYMIN=  -10   IZMIN=  -24


 parallel 3D FFT for wavefunctions:
    minimum data exchange during FFTs selected (reduces bandwidth)
 parallel 3D FFT for charge:
    minimum data exchange during FFTs selected (reduces bandwidth)


 FFT grid for exact exchange (Hartree Fock) 
  NGX = 20; NGY = 24; NGZ = 56

 
 Radii for the augmentation spheres in the non-local exchange
 for species   1 augmentation radius   1.471 (default was   1.089)
       energy cutoff for augmentation   2720.0
 for species   2 augmentation radius   1.309 (default was   0.970)
       energy cutoff for augmentation   2720.0

 real space projection operators:
  total allocation   :       1721.25 KBytes
  max/ min on nodes  :        184.75        163.03

 Maximum index for augmentation-charges in exchange          194
  SETUP_FOCK is finished

 total amount of memory used by VASP MPI-rank0    41336. kBytes
=======================================================================

   base      :      30000. kBytes
   nonl-proj :       6082. kBytes
   fftplans  :       1142. kBytes
   grid      :       1514. kBytes
   one-center:         15. kBytes
   HF        :         64. kBytes
   nonlr-proj:        474. kBytes
   wavefun   :       2045. kBytes
 
     INWAV:  cpu time      0.0001: real time      0.0006
 initial charge density was supplied:
 charge density of overlapping atoms calculated
 number of electron      80.0000000 magnetization 
 keeping initial charge density in first step


--------------------------------------------------------------------------------------------------------


 Maximum index for augmentation-charges          196 (set IRDMAX)


--------------------------------------------------------------------------------------------------------


 First call to EWALD:  gamma=   0.301
 Maximum number of real-space cells 4x 3x 2
 Maximum number of reciprocal cells 2x 2x 5

    FEWALD:  cpu time      0.0036: real time      0.0038


--------------------------------------- Ionic step        1  -------------------------------------------




--------------------------------------- Iteration      1(   1)  ---------------------------------------


    POTLOK:  cpu time      0.0228: real time      0.0251
    SETDIJ:  cpu time      0.1273: real time      0.1277
     EDDAV:  cpu time      1.0636: real time      1.0726
 BZINTS: Fermi energy:   20.189890;   80.000000 electrons
         Band energy: 0.228638E+03;  BLOECHL correction:   -0.328878
       DOS:  cpu time      0.0314: real time      0.0318
    --------------------------------------------
      LOOP:  cpu time      1.2451: real time      1.2572

 eigenvalue-minimisations  :  4116
 total energy-change (2. order) :-0.3814297E+04  (-0.4193804E+04)
 number of electron      80.0000000 magnetization 
 augmentation part       80.0000000 magnetization 

 Free energy of the ion-electron system (eV)
  ---------------------------------------------------
  alpha Z        PSCENC =       164.67690988
  Ewald energy   TEWEN  =     -6009.93810534
  -Hartree energ DENC   =     -2402.51146919
  -exchange      EXHF   =         0.00000000
  -V(xc)+E(xc)   XCENC  =       275.67654792
  PAW double counting   =      7145.46468626   -11885.85280239
  entropy T*S    EENTRO =         0.00000000
  eigenvalues    EBANDS =       228.63847732
  atomic energy  EATOM  =      8669.54861131
  Solvation  Ediel_sol  =         0.00000000
  ---------------------------------------------------
  free energy    TOTEN  =     -3814.29714424 eV

  energy without entropy =    -3814.29714424  energy(sigma->0) =    -3814.29714424
  exchange ACFDT corr.  =         0.00000000  see jH, gK, PRB 81, 115126


--------------------------------------------------------------------------------------------------------




--------------------------------------- Iteration      1(   2)  ---------------------------------------


     EDDAV:  cpu time      0.7605: real time      0.7670
 BZINTS: Fermi energy:    7.935647;   80.000000 electrons
         Band energy:-0.633012E+03;  BLOECHL correction:    0.000000
       DOS:  cpu time      0.0201: real time      0.0202
    --------------------------------------------
      LOOP:  cpu time      0.7806: real time      0.7871

 eigenvalue-minimisations  :  3456
 total energy-change (2. order) :-0.8616505E+03  (-0.8038260E+03)
 number of electron      80.0000000 magnetization 
 augmentation part       80.0000000 magnetization 

 Free energy of the ion-electron system (eV)
  ---------------------------------------------------
  alpha Z        PSCENC =       164.67690988
  Ewald energy   TEWEN  =     -6009.93810534
  -Hartree energ DENC   =     -2402.51146919
  -exchange      EXHF   =         0.00000000
  -V(xc)+E(xc)   XCENC  =       275.67654792
  PAW double counting   =      7145.46468626   -11885.85280239
  entropy T*S    EENTRO =         0.00000000
  eigenvalues    EBANDS =      -633.01199510
  atomic energy  EATOM  =      8669.54861131
  Solvation  Ediel_sol  =         0.00000000
  ---------------------------------------------------
  free energy    TOTEN  =     -4675.94761666 eV

  energy without entropy =    -4675.94761666  energy(sigma->0) =    -4675.94761666
  exchange ACFDT corr.  =         0.00000000  see jH, gK, PRB 81, 115126


--------------------------------------------------------------------------------------------------------




--------------------------------------- Iteration      1(   3)  ---------------------------------------


     EDDAV:  cpu time      0.7526: real time      0.7700
 BZINTS: Fermi energy:    4.543339;   80.000000 electrons
         Band energy:-0.795840E+03;  BLOECHL correction:    0.000000
       DOS:  cpu time      0.0183: real time      0.0183
    --------------------------------------------
      LOOP:  cpu time      0.7709: real time      0.7884

 eigenvalue-minimisations  :  3900
 total energy-change (2. order) :-0.1628284E+03  (-0.1588597E+03)
 number of electron      80.0000000 magnetization 
 augmentation part       80.0000000 magnetization 

 Free energy of the ion-electron system (eV)
  ---------------------------------------------------
  alpha Z        PSCENC =       164.67690988
  Ewald energy   TEWEN  =     -6009.93810534
  -Hartree energ DENC   =     -2402.51146919
  -exchange      EXHF   =         0.00000000
  -V(xc)+E(xc)   XCENC  =       275.67654792
  PAW double counting   =      7145.46468626   -11885.85280239
  entropy T*S    EENTRO =         0.00000000
  eigenvalues    EBANDS =      -795.84035649
  atomic energy  EATOM  =      8669.54861131
  Solvation  Ediel_sol  =         0.00000000
  ---------------------------------------------------
  free energy    TOTEN  =     -4838.77597805 eV

  energy without entropy =    -4838.77597805  energy(sigma->0) =    -4838.77597805
  exchange ACFDT corr.  =         0.00000000  see jH, gK, PRB 81, 115126


--------------------------------------------------------------------------------------------------------




--------------------------------------- Iteration      1(   4)  ---------------------------------------


     EDDAV:  cpu time      0.8269: real time      0.8466
 BZINTS: Fermi energy:    4.336575;   80.000000 electrons
         Band energy:-0.805498E+03;  BLOECHL correction:    0.000000
       DOS:  cpu time      0.0182: real time      0.0182
    --------------------------------------------
      LOOP:  cpu time      0.8451: real time      0.8648

 eigenvalue-minimisations  :  4200
 total energy-change (2. order) :-0.9657520E+01  (-0.9614466E+01)
 number of electron      80.0000000 magnetization 
 augmentation part       80.0000000 magnetization 

 Free energy of the ion-electron system (eV)
  ---------------------------------------------------
  alpha Z        PSCENC =       164.67690988
  Ewald energy   TEWEN  =     -6009.93810534
  -Hartree energ DENC   =     -2402.51146919
  -exchange      EXHF   =         0.00000000
  -V(xc)+E(xc)   XCENC  =       275.67654792
  PAW double counting   =      7145.46468626   -11885.85280239
  entropy T*S    EENTRO =         0.00000000
  eigenvalues    EBANDS =      -805.49787681
  atomic energy  EATOM  =      8669.54861131
  Solvation  Ediel_sol  =         0.00000000
  ---------------------------------------------------
  free energy    TOTEN  =     -4848.43349836 eV

  energy without entropy =    -4848.43349836  energy(sigma->0) =    -4848.43349836
  exchange ACFDT corr.  =         0.00000000  see jH, gK, PRB 81, 115126


--------------------------------------------------------------------------------------------------------




--------------------------------------- Iteration      1(   5)  ---------------------------------------


    POTLOK:  cpu time      0.0292: real time      0.0489
    SETDIJ:  cpu time      0.3467: real time      0.3475
     EDDAV:  cpu time     82.9842: real time     83.1914
 BZINTS: Fermi energy:    4.810132;   80.000000 electrons
         Band energy:-0.751925E+03;  BLOECHL correction:    0.000000
       DOS:  cpu time      0.0187: real time      0.0188
    CHARGE:  cpu time      0.0579: real time      0.0585
    MIXING:  cpu time      0.0010: real time      0.0010
    --------------------------------------------
      LOOP:  cpu time     83.4376: real time     83.6661

 eigenvalue-minimisations  :  4764
 total energy-change (2. order) : 0.4804376E+04  (-0.2832886E+01)
 number of electron      79.9999995 magnetization 
 augmentation part       26.0569473 magnetization 

 Free energy of the ion-electron system (eV)
  ---------------------------------------------------
  alpha Z        PSCENC =       164.67690988
  Ewald energy   TEWEN  =     -6009.93810534
  -Hartree energ DENC   =     -2402.51146919
  -exchange      EXHF   =       181.63121822
  -V(xc)+E(xc)   XCENC  =       209.95629067
  PAW double counting   =      7208.76304409    -7314.25851501
  entropy T*S    EENTRO =         0.00000000
  eigenvalues    EBANDS =      -751.92537161
  atomic energy  EATOM  =      8669.54861131
  Solvation  Ediel_sol  =         0.00000000
  ---------------------------------------------------
  free energy    TOTEN  =       -44.05738696 eV

  energy without entropy =      -44.05738696  energy(sigma->0) =      -44.05738696
  exchange ACFDT corr.  =         0.00000000  see jH, gK, PRB 81, 115126


--------------------------------------------------------------------------------------------------------




--------------------------------------- Iteration      1(   6)  ---------------------------------------


    POTLOK:  cpu time      0.0242: real time      0.0401
    SETDIJ:  cpu time      0.3347: real time      0.3356
     EDDAV:  cpu time     82.4335: real time     82.6387
 BZINTS: Fermi energy:    5.097969;   80.000000 electrons
         Band energy:-0.748615E+03;  BLOECHL correction:    0.000000
       DOS:  cpu time      0.0186: real time      0.0187
    CHARGE:  cpu time      0.0560: real time      0.0561
    MIXING:  cpu time      0.0001: real time      0.0001
    --------------------------------------------
      LOOP:  cpu time     82.8672: real time     83.0894

 eigenvalue-minimisations  :  4272
 total energy-change (2. order) : 0.1708225E+01  (-0.3554299E+00)
 number of electron      79.9999992 magnetization 
 augmentation part       26.1741987 magnetization 

 Free energy of the ion-electron system (eV)
  ---------------------------------------------------
  alpha Z        PSCENC =       164.67690988
  Ewald energy   TEWEN  =     -6009.93810534
  -Hartree energ DENC   =     -2404.87836880
  -exchange      EXHF   =       179.02328295
  -V(xc)+E(xc)   XCENC  =       210.84776725
  PAW double counting   =      7975.08283638    -8078.09718918
  entropy T*S    EENTRO =         0.00000000
  eigenvalues    EBANDS =      -748.61490624
  atomic energy  EATOM  =      8669.54861131
  Solvation  Ediel_sol  =         0.00000000
  ---------------------------------------------------
  free energy    TOTEN  =       -42.34916179 eV

  energy without entropy =      -42.34916179  energy(sigma->0) =      -42.34916179
  exchange ACFDT corr.  =         0.00000000  see jH, gK, PRB 81, 115126


--------------------------------------------------------------------------------------------------------




--------------------------------------- Iteration      1(   7)  ---------------------------------------


    POTLOK:  cpu time      0.0250: real time      0.0405
    SETDIJ:  cpu time      0.3327: real time      0.3335
     EDDAV:  cpu time     82.2278: real time     82.4323
 BZINTS: Fermi energy:    5.237924;   80.000000 electrons
         Band energy:-0.749762E+03;  BLOECHL correction:    0.000000
       DOS:  cpu time      0.0187: real time      0.0189
    CHARGE:  cpu time      0.0650: real time      0.0651
    MIXING:  cpu time      0.0002: real time      0.0002
    --------------------------------------------
      LOOP:  cpu time     82.6693: real time     82.8904

 eigenvalue-minimisations  :  4308
 total energy-change (2. order) :-0.1973698E+00  (-0.1457571E+00)
 number of electron      79.9999990 magnetization 
 augmentation part       26.2255869 magnetization 

 Free energy of the ion-electron system (eV)
  ---------------------------------------------------
  alpha Z        PSCENC =       164.67690988
  Ewald energy   TEWEN  =     -6009.93810534
  -Hartree energ DENC   =     -2402.36033363
  -exchange      EXHF   =       177.00197611
  -V(xc)+E(xc)   XCENC  =       211.02973025
  PAW double counting   =      8728.53319102    -8831.27609257
  entropy T*S    EENTRO =         0.00000000
  eigenvalues    EBANDS =      -749.76241861
  atomic energy  EATOM  =      8669.54861131
  Solvation  Ediel_sol  =         0.00000000
  ---------------------------------------------------
  free energy    TOTEN  =       -42.54653158 eV

  energy without entropy =      -42.54653158  energy(sigma->0) =      -42.54653158
  exchange ACFDT corr.  =         0.00000000  see jH, gK, PRB 81, 115126


--------------------------------------------------------------------------------------------------------




--------------------------------------- Iteration      1(   8)  ---------------------------------------


    POTLOK:  cpu time      0.0283: real time      0.0446
    SETDIJ:  cpu time      0.3319: real time      0.3327
     EDDAV:  cpu time     82.3084: real time     82.5411
 BZINTS: Fermi energy:    5.247062;   80.000000 electrons
         Band energy:-0.750046E+03;  BLOECHL correction:    0.000000
       DOS:  cpu time      0.0186: real time      0.0188
    CHARGE:  cpu time      0.0558: real time      0.0560
    MIXING:  cpu time      0.0002: real time      0.0002
    --------------------------------------------
      LOOP:  cpu time     82.7432: real time     82.9933

 eigenvalue-minimisations  :  4332
 total energy-change (2. order) : 0.8142354E-02  (-0.7154348E-02)
 number of electron      79.9999989 magnetization 
 augmentation part       26.1997945 magnetization 

 Free energy of the ion-electron system (eV)
  ---------------------------------------------------
  alpha Z        PSCENC =       164.67690988
  Ewald energy   TEWEN  =     -6009.93810534
  -Hartree energ DENC   =     -2400.08591840
  -exchange      EXHF   =       176.09558690
  -V(xc)+E(xc)   XCENC  =       210.97561302
  PAW double counting   =      9322.13039927    -9425.89539131
  entropy T*S    EENTRO =         0.00000000
  eigenvalues    EBANDS =      -750.04609456
  atomic energy  EATOM  =      8669.54861131
  Solvation  Ediel_sol  =         0.00000000
  ---------------------------------------------------
  free energy    TOTEN  =       -42.53838923 eV

  energy without entropy =      -42.53838923  energy(sigma->0) =      -42.53838923
  exchange ACFDT corr.  =         0.00000000  see jH, gK, PRB 81, 115126


--------------------------------------------------------------------------------------------------------




--------------------------------------- Iteration      1(   9)  ---------------------------------------


    POTLOK:  cpu time      0.0263: real time      0.0427
    SETDIJ:  cpu time      0.3308: real time      0.3316
     EDDAV:  cpu time     82.8251: real time     83.0310
 BZINTS: Fermi energy:    5.225694;   80.000000 electrons
         Band energy:-0.750453E+03;  BLOECHL correction:    0.000000
       DOS:  cpu time      0.0186: real time      0.0188
    CHARGE:  cpu time      0.0557: real time      0.0559
    MIXING:  cpu time      0.0001: real time      0.0001
    --------------------------------------------
      LOOP:  cpu time     83.2567: real time     83.4800

 eigenvalue-minimisations  :  4440
 total energy-change (2. order) : 0.1856687E-01  (-0.2737573E-02)
 number of electron      79.9999988 magnetization 
 augmentation part       26.1821497 magnetization 

 Free energy of the ion-electron system (eV)
  ---------------------------------------------------
  alpha Z        PSCENC =       164.67690988
  Ewald energy   TEWEN  =     -6009.93810534
  -Hartree energ DENC   =     -2398.90604952
  -exchange      EXHF   =       176.09264549
  -V(xc)+E(xc)   XCENC  =       210.94573856
  PAW double counting   =      9686.69404784    -9791.18013063
  entropy T*S    EENTRO =         0.00000000
  eigenvalues    EBANDS =      -750.45348995
  atomic energy  EATOM  =      8669.54861131
  Solvation  Ediel_sol  =         0.00000000
  ---------------------------------------------------
  free energy    TOTEN  =       -42.51982236 eV

  energy without entropy =      -42.51982236  energy(sigma->0) =      -42.51982236
  exchange ACFDT corr.  =         0.00000000  see jH, gK, PRB 81, 115126


--------------------------------------------------------------------------------------------------------




--------------------------------------- Iteration      1(  10)  ---------------------------------------


    POTLOK:  cpu time      0.0411: real time      0.0418
    SETDIJ:  cpu time      0.3327: real time      0.3335
     EDDAV:  cpu time     82.1671: real time     82.3709
 BZINTS: Fermi energy:    5.216047;   80.000000 electrons
         Band energy:-0.750815E+03;  BLOECHL correction:    0.000000
       DOS:  cpu time      0.0186: real time      0.0187
    CHARGE:  cpu time      0.0556: real time      0.0557
    MIXING:  cpu time      0.0002: real time      0.0002
    --------------------------------------------
      LOOP:  cpu time     82.6153: real time     82.8208

 eigenvalue-minimisations  :  4128
 total energy-change (2. order) : 0.6416812E-03  (-0.1090861E-02)
 number of electron      79.9999988 magnetization 
 augmentation part       26.1769751 magnetization 

 Free energy of the ion-electron system (eV)
  ---------------------------------------------------
  alpha Z        PSCENC =       164.67690988
  Ewald energy   TEWEN  =     -6009.93810534
  -Hartree energ DENC   =     -2398.35686506
  -exchange      EXHF   =       176.22655804
  -V(xc)+E(xc)   XCENC  =       210.95323102
  PAW double counting   =      9875.09351407    -9979.90758250
  entropy T*S    EENTRO =         0.00000000
  eigenvalues    EBANDS =      -750.81545210
  atomic energy  EATOM  =      8669.54861131
  Solvation  Ediel_sol  =         0.00000000
  ---------------------------------------------------
  free energy    TOTEN  =       -42.51918068 eV

  energy without entropy =      -42.51918068  energy(sigma->0) =      -42.51918068
  exchange ACFDT corr.  =         0.00000000  see jH, gK, PRB 81, 115126


--------------------------------------------------------------------------------------------------------




--------------------------------------- Iteration      1(  11)  ---------------------------------------


    POTLOK:  cpu time      0.0249: real time      0.0414
    SETDIJ:  cpu time      0.3322: real time      0.3330
     EDDAV:  cpu time     82.3299: real time     82.5345
 BZINTS: Fermi energy:    5.216363;   80.000000 electrons
         Band energy:-0.751025E+03;  BLOECHL correction:    0.000000
       DOS:  cpu time      0.0186: real time      0.0187
    CHARGE:  cpu time      0.0557: real time      0.0559
    MIXING:  cpu time      0.0002: real time      0.0002
    --------------------------------------------
      LOOP:  cpu time     82.7615: real time     82.9837

 eigenvalue-minimisations  :  4668
 total energy-change (2. order) : 0.7293624E-03  (-0.7772460E-04)
 number of electron      79.9999987 magnetization 
 augmentation part       26.1763645 magnetization 

 Free energy of the ion-electron system (eV)
  ---------------------------------------------------
  alpha Z        PSCENC =       164.67690988
  Ewald energy   TEWEN  =     -6009.93810534
  -Hartree energ DENC   =     -2398.07449959
  -exchange      EXHF   =       176.28539407
  -V(xc)+E(xc)   XCENC  =       210.96839401
  PAW double counting   =      9970.57101738   -10075.53099974
  entropy T*S    EENTRO =         0.00000000
  eigenvalues    EBANDS =      -751.02517330
  atomic energy  EATOM  =      8669.54861131
  Solvation  Ediel_sol  =         0.00000000
  ---------------------------------------------------
  free energy    TOTEN  =       -42.51845132 eV

  energy without entropy =      -42.51845132  energy(sigma->0) =      -42.51845132
  exchange ACFDT corr.  =         0.00000000  see jH, gK, PRB 81, 115126


--------------------------------------------------------------------------------------------------------




--------------------------------------- Iteration      1(  12)  ---------------------------------------


    POTLOK:  cpu time      0.0261: real time      0.0429
    SETDIJ:  cpu time      0.3320: real time      0.3328
     EDDAV:  cpu time     82.4458: real time     82.6800
 BZINTS: Fermi energy:    5.226782;   80.000000 electrons
         Band energy:-0.751061E+03;  BLOECHL correction:    0.000000
       DOS:  cpu time      0.0186: real time      0.0187
    CHARGE:  cpu time      0.0557: real time      0.0559
    MIXING:  cpu time      0.0001: real time      0.0001
    --------------------------------------------
      LOOP:  cpu time     82.8784: real time     83.1304

 eigenvalue-minimisations  :  4584
 total energy-change (2. order) : 0.2332804E-03  (-0.3644042E-04)
 number of electron      79.9999987 magnetization 
 augmentation part       26.1759261 magnetization 

 Free energy of the ion-electron system (eV)
  ---------------------------------------------------
  alpha Z        PSCENC =       164.67690988
  Ewald energy   TEWEN  =     -6009.93810534
  -Hartree energ DENC   =     -2397.93793671
  -exchange      EXHF   =       176.28370115
  -V(xc)+E(xc)   XCENC  =       210.97819347
  PAW double counting   =     10023.59391245   -10128.66252862
  entropy T*S    EENTRO =         0.00000000
  eigenvalues    EBANDS =      -751.06097563
  atomic energy  EATOM  =      8669.54861131
  Solvation  Ediel_sol  =         0.00000000
  ---------------------------------------------------
  free energy    TOTEN  =       -42.51821804 eV

  energy without entropy =      -42.51821804  energy(sigma->0) =      -42.51821804
  exchange ACFDT corr.  =         0.00000000  see jH, gK, PRB 81, 115126


--------------------------------------------------------------------------------------------------------




--------------------------------------- Iteration      1(  13)  ---------------------------------------


    POTLOK:  cpu time      0.0253: real time      0.0410
    SETDIJ:  cpu time      0.3336: real time      0.3344
     EDDAV:  cpu time     82.3605: real time     82.5653
 BZINTS: Fermi energy:    5.219371;   80.000000 electrons
         Band energy:-0.751039E+03;  BLOECHL correction:    0.000000
       DOS:  cpu time      0.0187: real time      0.0188
    CHARGE:  cpu time      0.0555: real time      0.0557
    MIXING:  cpu time      0.0002: real time      0.0002
    --------------------------------------------
      LOOP:  cpu time     82.7937: real time     83.0153

 eigenvalue-minimisations  :  3936
 total energy-change (2. order) : 0.1107308E-05  (-0.1342160E-04)
 number of electron      79.9999987 magnetization 
 augmentation part       26.1752085 magnetization 

 Free energy of the ion-electron system (eV)
  ---------------------------------------------------
  alpha Z        PSCENC =       164.67690988
  Ewald energy   TEWEN  =     -6009.93810534
  -Hartree energ DENC   =     -2397.86343306
  -exchange      EXHF   =       176.27189164
  -V(xc)+E(xc)   XCENC  =       210.98233101
  PAW double counting   =     10054.32550829   -10159.48267419
  entropy T*S    EENTRO =         0.00000000
  eigenvalues    EBANDS =      -751.03925648
  atomic energy  EATOM  =      8669.54861131
  Solvation  Ediel_sol  =         0.00000000
  ---------------------------------------------------
  free energy    TOTEN  =       -42.51821693 eV

  energy without entropy =      -42.51821693  energy(sigma->0) =      -42.51821693
  exchange ACFDT corr.  =         0.00000000  see jH, gK, PRB 81, 115126


--------------------------------------------------------------------------------------------------------




--------------------------------------- Iteration      1(  14)  ---------------------------------------


    POTLOK:  cpu time      0.0255: real time      0.0412
    SETDIJ:  cpu time      0.3320: real time      0.3328
     EDDAV:  cpu time     82.1529: real time     82.3571
 BZINTS: Fermi energy:    5.215729;   80.000000 electrons
         Band energy:-0.751017E+03;  BLOECHL correction:    0.000000
       DOS:  cpu time      0.0187: real time      0.0188
    CHARGE:  cpu time      0.0618: real time      0.0620
    MIXING:  cpu time      0.0001: real time      0.0001
    --------------------------------------------
      LOOP:  cpu time     82.5909: real time     82.8119

 eigenvalue-minimisations  :  3732
 total energy-change (2. order) :-0.1025388E-04  (-0.2288775E-05)
 number of electron      79.9999987 magnetization 
 augmentation part       26.1746857 magnetization 

 Free energy of the ion-electron system (eV)
  ---------------------------------------------------
  alpha Z        PSCENC =       164.67690988
  Ewald energy   TEWEN  =     -6009.93810534
  -Hartree energ DENC   =     -2397.81804815
  -exchange      EXHF   =       176.26603369
  -V(xc)+E(xc)   XCENC  =       210.98381340
  PAW double counting   =     10071.69417111   -10176.91491133
  entropy T*S    EENTRO =         0.00000000
  eigenvalues    EBANDS =      -751.01670175
  atomic energy  EATOM  =      8669.54861131
  Solvation  Ediel_sol  =         0.00000000
  ---------------------------------------------------
  free energy    TOTEN  =       -42.51822718 eV

  energy without entropy =      -42.51822718  energy(sigma->0) =      -42.51822718
  exchange ACFDT corr.  =         0.00000000  see jH, gK, PRB 81, 115126


--------------------------------------------------------------------------------------------------------




--------------------------------------- Iteration      1(  15)  ---------------------------------------


    POTLOK:  cpu time      0.0253: real time      0.0411
    SETDIJ:  cpu time      0.3315: real time      0.3323
     EDDAV:  cpu time     82.1791: real time     82.3831
 BZINTS: Fermi energy:    5.238500;   80.000000 electrons
         Band energy:-0.751004E+03;  BLOECHL correction:    0.000000
       DOS:  cpu time      0.0186: real time      0.0187
    --------------------------------------------
      LOOP:  cpu time     82.5546: real time     82.7753

 eigenvalue-minimisations  :  3036
 total energy-change (2. order) :-0.9131147E-05  (-0.1040989E-05)
 number of electron      79.9999987 magnetization 
 augmentation part       26.1746857 magnetization 

 Free energy of the ion-electron system (eV)
  ---------------------------------------------------
  alpha Z        PSCENC =       164.67690988
  Ewald energy   TEWEN  =     -6009.93810534
  -Hartree energ DENC   =     -2397.79146550
  -exchange      EXHF   =       176.26573233
  -V(xc)+E(xc)   XCENC  =       210.98467181
  PAW double counting   =     10081.06658066   -10186.32711846
  entropy T*S    EENTRO =         0.00000000
  eigenvalues    EBANDS =      -751.00405301
  atomic energy  EATOM  =      8669.54861131
  Solvation  Ediel_sol  =         0.00000000
  ---------------------------------------------------
  free energy    TOTEN  =       -42.51823632 eV

  energy without entropy =      -42.51823632  energy(sigma->0) =      -42.51823632
  exchange ACFDT corr.  =         0.00000000  see jH, gK, PRB 81, 115126


--------------------------------------------------------------------------------------------------------




 average (electrostatic) potential at core
  the test charge radii are     1.0894  0.9698
  (the norm of the test charge is              1.0000)
       1 -95.1957       2 -95.1957       3 -95.1957       4 -95.1957       5 -82.1412
       6 -82.1412       7 -82.1412       8 -82.1412
 
 
 
 E-fermi :   5.2385     XC(G=0):  -7.9426     alpha+bet :-11.0823

 Fermi energy:         5.2384997583

 k-point     1 :       0.0000    0.0000    0.0000
  band No.  band energies     occupation 
      1     -18.1268      2.00000
      2     -18.1138      2.00000
      3     -18.1031      2.00000
      4     -18.0954      2.00000
      5     -18.0936      2.00000
      6     -18.0901      2.00000
      7     -18.0876      2.00000
      8     -18.0838      2.00000
      9     -18.0650      2.00000
     10     -18.0639      2.00000
     11     -18.0522      2.00000
     12     -18.0477      2.00000
     13     -18.0459      2.00000
     14     -18.0411      2.00000
     15     -18.0168      2.00000
     16     -18.0134      2.00000
     17     -18.0099      2.00000
     18     -18.0059      2.00000
     19     -18.0018      2.00000
     20     -17.9988      2.00000
     21      -9.9872      2.00000
     22      -9.7157      2.00000
     23      -8.6485      2.00000
     24      -8.2424      2.00000
     25      -2.6905      2.00000
     26      -1.7090      2.00000
     27      -0.6233      2.00000
     28       0.0831      2.00000
     29       0.2058      2.00000
     30       1.1242      2.00000
     31       1.5353      2.00000
     32       1.5539      2.00000
     33       1.5583      2.00000
     34       1.8763      2.00000
     35       2.7332      2.00000
     36       2.8273      2.00000
     37       3.1405      2.00000
     38       4.0846      2.00000
     39       4.2290      2.00000
     40       4.8829      2.00000
     41       6.9288      0.00000
     42       8.5700      0.00000
     43       8.7264      0.00000
     44       8.8276      0.00000
     45       9.1412      0.00000
     46       9.6785      0.00000
     47       9.7836      0.00000
     48      10.9316      0.00000
     49      11.1690      0.00000
     50      11.5558      0.00000
     51      11.6027      0.00000
     52      12.0921      0.00000
     53      12.5377      0.00000
     54      13.0174      0.00000
     55      13.3302      0.00000
     56      13.5653      0.00000
     57      13.7199      0.00000
     58      14.5035      0.00000
     59      14.6750      0.00000
     60      14.7841      0.00000
     61      15.0018      0.00000
     62      15.2443      0.00000
     63      15.3411      0.00000
     64      15.4279      0.00000
     65      16.1519      0.00000
     66      16.3306      0.00000
     67      16.5161      0.00000
     68      17.0517      0.00000
     69      17.1718      0.00000
     70      17.5878      0.00000
     71      17.7112      0.00000
     72      18.1410      0.00000

 k-point     2 :       0.1667   -0.0000    0.0000
  band No.  band energies     occupation 
      1     -18.1196      2.00000
      2     -18.1107      2.00000
      3     -18.0986      2.00000
      4     -18.0968      2.00000
      5     -18.0944      2.00000
      6     -18.0893      2.00000
      7     -18.0890      2.00000
      8     -18.0875      2.00000
      9     -18.0633      2.00000
     10     -18.0620      2.00000
     11     -18.0524      2.00000
     12     -18.0506      2.00000
     13     -18.0469      2.00000
     14     -18.0408      2.00000
     15     -18.0219      2.00000
     16     -18.0136      2.00000
     17     -18.0102      2.00000
     18     -18.0057      2.00000
     19     -18.0003      2.00000
     20     -17.9966      2.00000
     21      -9.8005      2.00000
     22      -9.5454      2.00000
     23      -8.5648      2.00000
     24      -8.2151      2.00000
     25      -2.8606      2.00000
     26      -2.0072      2.00000
     27      -0.7049      2.00000
     28      -0.5899      2.00000
     29      -0.0206      2.00000
     30       1.2482      2.00000
     31       1.3417      2.00000
     32       1.6714      2.00000
     33       1.6813      2.00000
     34       1.9020      2.00000
     35       2.7758      2.00000
     36       2.8419      2.00000
     37       3.0690      2.00000
     38       4.2292      2.00000
     39       4.5863      2.00000
     40       4.7594      2.00000
     41       7.1634      0.00000
     42       7.9021      0.00000
     43       8.8805      0.00000
     44       8.9169      0.00000
     45       9.3064      0.00000
     46       9.3338      0.00000
     47       9.9615      0.00000
     48      10.0339      0.00000
     49      10.1681      0.00000
     50      11.6581      0.00000
     51      11.7147      0.00000
     52      11.7941      0.00000
     53      12.0927      0.00000
     54      12.4557      0.00000
     55      12.6931      0.00000
     56      12.8372      0.00000
     57      12.9612      0.00000
     58      14.3997      0.00000
     59      15.0703      0.00000
     60      15.2414      0.00000
     61      15.4183      0.00000
     62      15.4555      0.00000
     63      15.9912      0.00000
     64      16.4660      0.00000
     65      16.5600      0.00000
     66      17.2116      0.00000
     67      17.3848      0.00000
     68      17.5689      0.00000
     69      18.2015      0.00000
     70      18.4448      0.00000
     71      18.5183      0.00000
     72      18.6196      0.00000

 k-point     3 :       0.3333   -0.0000    0.0000
  band No.  band energies     occupation 
      1     -18.1131      2.00000
      2     -18.1112      2.00000
      3     -18.1077      2.00000
      4     -18.1076      2.00000
      5     -18.0884      2.00000
      6     -18.0825      2.00000
      7     -18.0813      2.00000
      8     -18.0792      2.00000
      9     -18.0613      2.00000
     10     -18.0599      2.00000
     11     -18.0564      2.00000
     12     -18.0504      2.00000
     13     -18.0472      2.00000
     14     -18.0387      2.00000
     15     -18.0301      2.00000
     16     -18.0277      2.00000
     17     -18.0032      2.00000
     18     -17.9985      2.00000
     19     -17.9970      2.00000
     20     -17.9947      2.00000
     21      -9.2963      2.00000
     22      -9.1024      2.00000
     23      -8.4512      2.00000
     24      -8.2770      2.00000
     25      -3.1878      2.00000
     26      -2.5197      2.00000
     27      -2.0054      2.00000
     28      -1.5783      2.00000
     29       0.4732      2.00000
     30       1.3567      2.00000
     31       1.6387      2.00000
     32       1.9915      2.00000
     33       2.0211      2.00000
     34       2.1257      2.00000
     35       2.6850      2.00000
     36       2.9189      2.00000
     37       3.4329      2.00000
     38       4.1446      2.00000
     39       4.3346      2.00000
     40       4.9055      2.00000
     41       6.6249      0.00000
     42       7.7033      0.00000
     43       7.7495      0.00000
     44       7.8738      0.00000
     45       8.4153      0.00000
     46       8.7733      0.00000
     47       9.1898      0.00000
     48       9.6716      0.00000
     49      10.1246      0.00000
     50      10.4548      0.00000
     51      10.8106      0.00000
     52      11.2849      0.00000
     53      12.5788      0.00000
     54      13.4875      0.00000
     55      13.5170      0.00000
     56      13.6920      0.00000
     57      14.1078      0.00000
     58      14.5881      0.00000
     59      14.6308      0.00000
     60      14.9262      0.00000
     61      15.6671      0.00000
     62      15.9361      0.00000
     63      15.9458      0.00000
     64      16.6902      0.00000
     65      18.2200      0.00000
     66      18.2373      0.00000
     67      18.2902      0.00000
     68      18.6223      0.00000
     69      18.8193      0.00000
     70      19.2856      0.00000
     71      19.4094      0.00000
     72      19.5193      0.00000

 k-point     4 :       0.5000   -0.0000    0.0000
  band No.  band energies     occupation 
      1     -18.1150      2.00000
      2     -18.1150      2.00000
      3     -18.1123      2.00000
      4     -18.1123      2.00000
      5     -18.0794      2.00000
      6     -18.0794      2.00000
      7     -18.0760      2.00000
      8     -18.0760      2.00000
      9     -18.0598      2.00000
     10     -18.0598      2.00000
     11     -18.0560      2.00000
     12     -18.0560      2.00000
     13     -18.0388      2.00000
     14     -18.0388      2.00000
     15     -18.0357      2.00000
     16     -18.0357      2.00000
     17     -17.9966      2.00000
     18     -17.9966      2.00000
     19     -17.9950      2.00000
     20     -17.9950      2.00000
     21      -8.6757      2.00000
     22      -8.6757      2.00000
     23      -8.6250      2.00000
     24      -8.6250      2.00000
     25      -3.0131      2.00000
     26      -3.0131      2.00000
     27      -2.4184      2.00000
     28      -2.4184      2.00000
     29       1.2373      2.00000
     30       1.2373      2.00000
     31       1.9919      2.00000
     32       1.9919      2.00000
     33       2.2975      2.00000
     34       2.2975      2.00000
     35       2.7859      2.00000
     36       2.7859      2.00000
     37       3.9761      2.00000
     38       3.9761      2.00000
     39       4.1414      2.00000
     40       4.1414      2.00000
     41       7.1614      0.00000
     42       7.1614      0.00000
     43       7.3202      0.00000
     44       7.3202      0.00000
     45       8.2601      0.00000
     46       8.2601      0.00000
     47       8.9560      0.00000
     48       8.9560      0.00000
     49       9.6431      0.00000
     50       9.6431      0.00000
     51      10.8691      0.00000
     52      10.8691      0.00000
     53      13.4226      0.00000
     54      13.4226      0.00000
     55      13.6125      0.00000
     56      13.6125      0.00000
     57      15.2677      0.00000
     58      15.2677      0.00000
     59      15.7910      0.00000
     60      15.7910      0.00000
     61      17.0780      0.00000
     62      17.0780      0.00000
     63      17.1659      0.00000
     64      17.1659      0.00000
     65      17.5321      0.00000
     66      17.5321      0.00000
     67      18.3015      0.00000
     68      18.3015      0.00000
     69      18.3793      0.00000
     70      18.3793      0.00000
     71      18.6417      0.00000
     72      18.6417      0.00000

 k-point     5 :       0.0000    0.2000    0.0000
  band No.  band energies     occupation 
      1     -18.1239      2.00000
      2     -18.1121      2.00000
      3     -18.1046      2.00000
      4     -18.0969      2.00000
      5     -18.0948      2.00000
      6     -18.0903      2.00000
      7     -18.0902      2.00000
      8     -18.0851      2.00000
      9     -18.0614      2.00000
     10     -18.0597      2.00000
     11     -18.0510      2.00000
     12     -18.0475      2.00000
     13     -18.0453      2.00000
     14     -18.0420      2.00000
     15     -18.0163      2.00000
     16     -18.0126      2.00000
     17     -18.0088      2.00000
     18     -18.0070      2.00000
     19     -18.0038      2.00000
     20     -17.9998      2.00000
     21      -9.8158      2.00000
     22      -9.5543      2.00000
     23      -8.6835      2.00000
     24      -8.3340      2.00000
     25      -3.1430      2.00000
     26      -1.9742      2.00000
     27      -1.4435      2.00000
     28      -0.6675      2.00000
     29       0.0628      2.00000
     30       1.5860      2.00000
     31       1.7616      2.00000
     32       2.0613      2.00000
     33       2.2112      2.00000
     34       2.4228      2.00000
     35       2.7786      2.00000
     36       3.1284      2.00000
     37       3.5370      2.00000
     38       3.7410      2.00000
     39       4.7420      2.00000
     40       4.8350      2.00000
     41       7.2484      0.00000
     42       7.6698      0.00000
     43       8.6866      0.00000
     44       8.7242      0.00000
     45       8.9007      0.00000
     46       9.0916      0.00000
     47      10.1493      0.00000
     48      10.3193      0.00000
     49      10.3720      0.00000
     50      11.2005      0.00000
     51      11.5755      0.00000
     52      11.6229      0.00000
     53      12.3999      0.00000
     54      12.9549      0.00000
     55      13.0868      0.00000
     56      13.4354      0.00000
     57      13.7322      0.00000
     58      14.0461      0.00000
     59      14.8989      0.00000
     60      15.2618      0.00000
     61      15.4042      0.00000
     62      15.9667      0.00000
     63      16.1957      0.00000
     64      16.8359      0.00000
     65      16.8830      0.00000
     66      16.8928      0.00000
     67      17.3466      0.00000
     68      17.3669      0.00000
     69      17.4995      0.00000
     70      18.1581      0.00000
     71      18.5170      0.00000
     72      19.0962      0.00000

 k-point     6 :       0.1667    0.2000    0.0000
  band No.  band energies     occupation 
      1     -18.1178      2.00000
      2     -18.1099      2.00000
      3     -18.1013      2.00000
      4     -18.0985      2.00000
      5     -18.0952      2.00000
      6     -18.0907      2.00000
      7     -18.0894      2.00000
      8     -18.0891      2.00000
      9     -18.0604      2.00000
[...]
   40.792056    0.793360    0.791901    0.790537    0.000000   -0.000000   -0.000000
   40.818981    0.793764    0.792321    0.790948    0.000000   -0.000000   -0.000000
   40.845907    0.794165    0.792738    0.791357    0.000000   -0.000000   -0.000000
   40.872832    0.794565    0.793152    0.791764    0.000000   -0.000000   -0.000000
   40.899758    0.794962    0.793564    0.792168    0.000000   -0.000000   -0.000000
   40.926683    0.795357    0.793974    0.792570    0.000000   -0.000000   -0.000000
   40.953608    0.795750    0.794382    0.792970    0.000000   -0.000000   -0.000000
   40.980534    0.796141    0.794787    0.793369    0.000000   -0.000000   -0.000000
   41.007459    0.796530    0.795190    0.793765    0.000000   -0.000000   -0.000000
   41.034385    0.796917    0.795592    0.794159    0.000000   -0.000000   -0.000000
   41.061310    0.797302    0.795990    0.794551    0.000000   -0.000000   -0.000000
   41.088236    0.797685    0.796387    0.794941    0.000000   -0.000000   -0.000000
   41.115161    0.798067    0.796782    0.795329    0.000000   -0.000000   -0.000000
   41.142087    0.798446    0.797174    0.795715    0.000000   -0.000000   -0.000000
   41.169012    0.798824    0.797565    0.796099    0.000000   -0.000000   -0.000000
   41.195937    0.799199    0.797953    0.796481    0.000000   -0.000000   -0.000000
   41.222863    0.799573    0.798340    0.796861    0.000000   -0.000000   -0.000000
   41.249788    0.799945    0.798725    0.797240    0.000000   -0.000000   -0.000000
   41.276714    0.800315    0.799107    0.797617    0.000000   -0.000000   -0.000000
   41.303639    0.800684    0.799488    0.797992    0.000000   -0.000000   -0.000000
   41.330565    0.801051    0.799867    0.798365    0.000000   -0.000000   -0.000000
   41.357490    0.801416    0.800244    0.798736    0.000000   -0.000000   -0.000000
   41.384416    0.801779    0.800619    0.799106    0.000000   -0.000000   -0.000000
   41.411341    0.802141    0.800993    0.799474    0.000000   -0.000000   -0.000000
   41.438266    0.802501    0.801364    0.799840    0.000000   -0.000000   -0.000000
   41.465192    0.802860    0.801734    0.800205    0.000000   -0.000000   -0.000000
   41.492117    0.803217    0.802102    0.800568    0.000000   -0.000000   -0.000000
   41.519043    0.803572    0.802468    0.800929    0.000000   -0.000000   -0.000000
   41.545968    0.803926    0.802833    0.801289    0.000000   -0.000000   -0.000000
   41.572894    0.804278    0.803196    0.801647    0.000000   -0.000000   -0.000000
   41.599819    0.804628    0.803557    0.802003    0.000000   -0.000000   -0.000000
   41.626745    0.804977    0.803917    0.802358    0.000000   -0.000000   -0.000000
   41.653670    0.805325    0.804274    0.802712    0.000000   -0.000000   -0.000000
   41.680596    0.805671    0.804631    0.803063    0.000000   -0.000000   -0.000000
   41.707521    0.806016    0.804985    0.803414    0.000000   -0.000000   -0.000000
   41.734446    0.806359    0.805339    0.803763    0.000000   -0.000000   -0.000000
   41.761372    0.806700    0.805690    0.804110    0.000000   -0.000000   -0.000000
   41.788297    0.807041    0.806040    0.804456    0.000000   -0.000000   -0.000000
   41.815223    0.807379    0.806389    0.804800    0.000000   -0.000000   -0.000000
   41.842148    0.807717    0.806736    0.805143    0.000000   -0.000000   -0.000000
   41.869074    0.808053    0.807081    0.805485    0.000000   -0.000000   -0.000000
   41.895999    0.808388    0.807425    0.805825    0.000000   -0.000000   -0.000000
   41.922925    0.808721    0.807768    0.806164    0.000000   -0.000000   -0.000000
   41.949850    0.809053    0.808109    0.806501    0.000000   -0.000000   -0.000000
   41.976775    0.809383    0.808448    0.806837    0.000000   -0.000000   -0.000000
   42.003701    0.809713    0.808787    0.807172    0.000000   -0.000000   -0.000000
   42.030626    0.810041    0.809123    0.807505    0.000000   -0.000000   -0.000000
   42.057552    0.810367    0.809459    0.807837    0.000000   -0.000000   -0.000000
   42.084477    0.810693    0.809793    0.808167    0.000000   -0.000000   -0.000000
   42.111403    0.811017    0.810125    0.808497    0.000000   -0.000000   -0.000000
   42.138328    0.811340    0.810457    0.808825    0.000000   -0.000000   -0.000000
   42.165254    0.811661    0.810787    0.809152    0.000000   -0.000000   -0.000000
   42.192179    0.811982    0.811115    0.809477    0.000000   -0.000000   -0.000000
   42.219105    0.812301    0.811443    0.809801    0.000000   -0.000000   -0.000000
   42.246030    0.812619    0.811769    0.810124    0.000000   -0.000000   -0.000000
   42.272955    0.812935    0.812093    0.810446    0.000000   -0.000000   -0.000000
   42.299881    0.813251    0.812417    0.810767    0.000000   -0.000000   -0.000000
   42.326806    0.813565    0.812739    0.811086    0.000000   -0.000000   -0.000000
   42.353732    0.813878    0.813060    0.811404    0.000000   -0.000000   -0.000000
   42.380657    0.814190    0.813379    0.811721    0.000000   -0.000000   -0.000000
   42.407583    0.814501    0.813698    0.812037    0.000000   -0.000000   -0.000000
   42.434508    0.814811    0.814015    0.812351    0.000000   -0.000000   -0.000000
   42.461434    0.815119    0.814331    0.812664    0.000000   -0.000000   -0.000000
   42.488359    0.815427    0.814645    0.812977    0.000000   -0.000000   -0.000000
   42.515284    0.815733    0.814959    0.813288    0.000000   -0.000000   -0.000000
   42.542210    0.816038    0.815271    0.813598    0.000000   -0.000000   -0.000000
   42.569135    0.816342    0.815583    0.813906    0.000000   -0.000000   -0.000000
   42.596061    0.816645    0.815893    0.814214    0.000000   -0.000000   -0.000000
   42.622986    0.816947    0.816202    0.814521    0.000000   -0.000000   -0.000000
   42.649912    0.817248    0.816509    0.814826    0.000000   -0.000000   -0.000000
   42.676837    0.817548    0.816816    0.815131    0.000000   -0.000000   -0.000000
   42.703763    0.817847    0.817121    0.815434    0.000000   -0.000000   -0.000000
   42.730688    0.818144    0.817426    0.815736    0.000000   -0.000000   -0.000000
   42.757614    0.818441    0.817729    0.816037    0.000000   -0.000000   -0.000000
   42.784539    0.818737    0.818031    0.816338    0.000000   -0.000000   -0.000000
   42.811464    0.819031    0.818332    0.816637    0.000000   -0.000000   -0.000000
   42.838390    0.819325    0.818632    0.816935    0.000000   -0.000000   -0.000000
   42.865315    0.819617    0.818931    0.817232    0.000000   -0.000000   -0.000000
   42.892241    0.819909    0.819229    0.817528    0.000000   -0.000000   -0.000000
   42.919166    0.820199    0.819526    0.817823    0.000000   -0.000000   -0.000000
   42.946092    0.820489    0.819822    0.818117    0.000000   -0.000000   -0.000000
   42.973017    0.820777    0.820116    0.818410    0.000000   -0.000000   -0.000000
   42.999943    0.821065    0.820410    0.818702    0.000000   -0.000000   -0.000000
   43.026868    0.821352    0.820703    0.818993    0.000000   -0.000000   -0.000000
   43.053793    0.821637    0.820994    0.819283    0.000000   -0.000000   -0.000000
   43.080719    0.821922    0.821285    0.819572    0.000000   -0.000000   -0.000000
   43.107644    0.822206    0.821575    0.819860    0.000000   -0.000000   -0.000000
   43.134570    0.822489    0.821863    0.820147    0.000000   -0.000000   -0.000000
   43.161495    0.822771    0.822151    0.820433    0.000000   -0.000000   -0.000000
   43.188421    0.823052    0.822438    0.820718    0.000000   -0.000000   -0.000000
   43.215346    0.823332    0.822723    0.821003    0.000000   -0.000000   -0.000000
   43.242272    0.823611    0.823008    0.821286    0.000000   -0.000000   -0.000000
   43.269197    0.823889    0.823292    0.821568    0.000000   -0.000000   -0.000000
   43.296123    0.824167    0.823575    0.821850    0.000000   -0.000000   -0.000000
   43.323048    0.824443    0.823857    0.822131    0.000000   -0.000000   -0.000000
   43.349973    0.824719    0.824138    0.822410    0.000000   -0.000000   -0.000000
   43.376899    0.824994    0.824418    0.822689    0.000000   -0.000000   -0.000000
   43.403824    0.825267    0.824697    0.822967    0.000000   -0.000000   -0.000000
   43.430750    0.825540    0.824975    0.823244    0.000000   -0.000000   -0.000000
   43.457675    0.825813    0.825252    0.823520    0.000000   -0.000000   -0.000000
   43.484601    0.826084    0.825529    0.823796    0.000000   -0.000000   -0.000000
   43.511526    0.826354    0.825804    0.824070    0.000000   -0.000000   -0.000000
   43.538452    0.826624    0.826079    0.824344    0.000000   -0.000000   -0.000000
   43.565377    0.826893    0.826352    0.824616    0.000000   -0.000000   -0.000000
   43.592302    0.827160    0.826625    0.824888    0.000000   -0.000000   -0.000000
   43.619228    0.827427    0.826897    0.825159    0.000000   -0.000000   -0.000000
   43.646153    0.827694    0.827168    0.825429    0.000000   -0.000000   -0.000000
   43.673079    0.827959    0.827439    0.825699    0.000000   -0.000000   -0.000000
   43.700004    0.828224    0.827708    0.825967    0.000000   -0.000000   -0.000000
   43.726930    0.828488    0.827977    0.826235    0.000000   -0.000000   -0.000000
   43.753855    0.828751    0.828244    0.826502    0.000000   -0.000000   -0.000000
   43.780781    0.829013    0.828511    0.826768    0.000000   -0.000000   -0.000000
   43.807706    0.829274    0.828777    0.827033    0.000000   -0.000000   -0.000000
   43.834631    0.829535    0.829042    0.827297    0.000000   -0.000000   -0.000000
   43.861557    0.829795    0.829307    0.827561    0.000000   -0.000000   -0.000000
   43.888482    0.830054    0.829570    0.827824    0.000000   -0.000000   -0.000000
   43.915408    0.830312    0.829833    0.828086    0.000000   -0.000000   -0.000000
   43.942333    0.830569    0.830095    0.828347    0.000000   -0.000000   -0.000000
   43.969259    0.830826    0.830356    0.828607    0.000000   -0.000000   -0.000000
   43.996184    0.831082    0.830616    0.828867    0.000000   -0.000000   -0.000000
   44.023110    0.831337    0.830876    0.829126    0.000000   -0.000000   -0.000000
   44.050035    0.831592    0.831135    0.829384    0.000000   -0.000000   -0.000000
   44.076961    0.831846    0.831393    0.829642    0.000000   -0.000000   -0.000000
   44.103886    0.832099    0.831650    0.829898    0.000000   -0.000000   -0.000000
   44.130811    0.832351    0.831906    0.830154    0.000000   -0.000000   -0.000000
   44.157737    0.832602    0.832162    0.830409    0.000000   -0.000000   -0.000000
   44.184662    0.832853    0.832417    0.830664    0.000000   -0.000000   -0.000000
   44.211588    0.833103    0.832671    0.830917    0.000000   -0.000000   -0.000000
   44.238513    0.833353    0.832924    0.831170    0.000000   -0.000000   -0.000000
   44.265439    0.833601    0.833177    0.831422    0.000000   -0.000000   -0.000000
   44.292364    0.833849    0.833429    0.831674    0.000000   -0.000000   -0.000000
   44.319290    0.834096    0.833680    0.831925    0.000000   -0.000000   -0.000000
   44.346215    0.834343    0.833930    0.832175    0.000000   -0.000000   -0.000000
   44.373140    0.834589    0.834180    0.832424    0.000000   -0.000000   -0.000000
   44.400066    0.834834    0.834429    0.832673    0.000000   -0.000000   -0.000000
   44.426991    0.835078    0.834677    0.832921    0.000000   -0.000000   -0.000000
   44.453917    0.835322    0.834925    0.833168    0.000000   -0.000000   -0.000000
   44.480842    0.835565    0.835172    0.833414    0.000000   -0.000000   -0.000000
   44.507768    0.835807    0.835418    0.833660    0.000000   -0.000000   -0.000000
   44.534693    0.836049    0.835663    0.833905    0.000000   -0.000000   -0.000000
   44.561619    0.836290    0.835908    0.834150    0.000000   -0.000000   -0.000000
   44.588544    0.836530    0.836152    0.834393    0.000000   -0.000000   -0.000000
   44.615470    0.836770    0.836395    0.834636    0.000000   -0.000000   -0.000000
   44.642395    0.837009    0.836637    0.834879    0.000000   -0.000000   -0.000000
   44.669320    0.837247    0.836879    0.835120    0.000000   -0.000000   -0.000000
   44.696246    0.837485    0.837121    0.835362    0.000000   -0.000000   -0.000000
   44.723171    0.837722    0.837361    0.835602    0.000000   -0.000000   -0.000000
   44.750097    0.837958    0.837601    0.835842    0.000000   -0.000000   -0.000000
   44.777022    0.838194    0.837840    0.836081    0.000000   -0.000000   -0.000000
   44.803948    0.838429    0.838079    0.836319    0.000000   -0.000000   -0.000000
   44.830873    0.838664    0.838316    0.836557    0.000000   -0.000000   -0.000000
   44.857799    0.838897    0.838554    0.836794    0.000000   -0.000000   -0.000000
   44.884724    0.839131    0.838790    0.837030    0.000000   -0.000000   -0.000000
   44.911649    0.839363    0.839026    0.837266    0.000000   -0.000000   -0.000000
   44.938575    0.839595    0.839261    0.837501    0.000000   -0.000000   -0.000000
   44.965500    0.839826    0.839496    0.837736    0.000000   -0.000000   -0.000000
   44.992426    0.840057    0.839730    0.837970    0.000000   -0.000000   -0.000000
   45.019351    0.840287    0.839963    0.838203    0.000000   -0.000000   -0.000000
   45.046277    0.840517    0.840196    0.838436    0.000000   -0.000000   -0.000000
   45.073202    0.840746    0.840428    0.838668    0.000000   -0.000000   -0.000000
   45.100128    0.840974    0.840659    0.838899    0.000000   -0.000000   -0.000000
   45.127053    0.841201    0.840890    0.839130    0.000000   -0.000000   -0.000000
   45.153979    0.841428    0.841120    0.839360    0.000000   -0.000000   -0.000000
   45.180904    0.841655    0.841349    0.839590    0.000000   -0.000000   -0.000000
   45.207829    0.841881    0.841578    0.839819    0.000000   -0.000000   -0.000000
   45.234755    0.842106    0.841806    0.840047    0.000000   -0.000000   -0.000000
   45.261680    0.842331    0.842034    0.840275    0.000000   -0.000000   -0.000000
   45.288606    0.842555    0.842261    0.840502    0.000000   -0.000000   -0.000000
   45.315531    0.842778    0.842488    0.840729    0.000000   -0.000000   -0.000000
   45.342457    0.843001    0.842713    0.840955    0.000000   -0.000000   -0.000000
   45.369382    0.843223    0.842939    0.841180    0.000000   -0.000000   -0.000000
   45.396308    0.843445    0.843163    0.841405    0.000000   -0.000000   -0.000000
   45.423233    0.843666    0.843387    0.841630    0.000000   -0.000000   -0.000000
   45.450158    0.843887    0.843611    0.841853    0.000000   -0.000000   -0.000000
   45.477084    0.844107    0.843834    0.842076    0.000000   -0.000000   -0.000000
   45.504009    0.844326    0.844056    0.842299    0.000000   -0.000000   -0.000000
   45.530935    0.844545    0.844278    0.842521    0.000000   -0.000000   -0.000000
   45.557860    0.844764    0.844499    0.842742    0.000000   -0.000000   -0.000000
   45.584786    0.844981    0.844719    0.842963    0.000000   -0.000000   -0.000000
   45.611711    0.845199    0.844939    0.843183    0.000000   -0.000000   -0.000000
   45.638637    0.845415    0.845159    0.843403    0.000000   -0.000000   -0.000000
   45.665562    0.845632    0.845377    0.843622    0.000000   -0.000000   -0.000000
   45.692487    0.845847    0.845596    0.843841    0.000000   -0.000000   -0.000000
   45.719413    0.846062    0.845813    0.844059    0.000000   -0.000000   -0.000000
   45.746338    0.846277    0.846030    0.844276    0.000000   -0.000000   -0.000000
   45.773264    0.846491    0.846247    0.844493    0.000000   -0.000000   -0.000000
   45.800189    0.846704    0.846463    0.844709    0.000000   -0.000000   -0.000000
   45.827115    0.846917    0.846678    0.844925    0.000000   -0.000000   -0.000000
   45.854040    0.847129    0.846893    0.845140    0.000000   -0.000000   -0.000000
   45.880966    0.847341    0.847108    0.845355    0.000000   -0.000000   -0.000000
   45.907891    0.847552    0.847322    0.845569    0.000000   -0.000000   -0.000000
   45.934817    0.847763    0.847535    0.845783    0.000000   -0.000000   -0.000000
   45.961742    0.847973    0.847748    0.845996    0.000000   -0.000000   -0.000000
   45.988667    0.848183    0.847960    0.846209    0.000000   -0.000000   -0.000000
   46.015593    0.848392    0.848171    0.846421    0.000000   -0.000000   -0.000000
   46.042518    0.848601    0.848383    0.846633    0.000000   -0.000000   -0.000000
   46.069444    0.848809    0.848593    0.846844    0.000000   -0.000000   -0.000000
   46.096369    0.849017    0.848803    0.847054    0.000000   -0.000000   -0.000000
   46.123295    0.849224    0.849013    0.847264    0.000000   -0.000000   -0.000000
   46.150220    0.849431    0.849222    0.847474    0.000000   -0.000000   -0.000000
   46.177146    0.849637    0.849430    0.847683    0.000000   -0.000000   -0.000000
   46.204071    0.849843    0.849638    0.847891    0.000000   -0.000000   -0.000000
   46.230996    0.850048    0.849846    0.848099    0.000000   -0.000000   -0.000000
   46.257922    0.850253    0.850053    0.848307    0.000000   -0.000000   -0.000000
   46.284847    0.850457    0.850259    0.848513    0.000000   -0.000000   -0.000000
   46.311773    0.850660    0.850465    0.848720    0.000000   -0.000000   -0.000000
   46.338698    0.850864    0.850671    0.848926    0.000000   -0.000000   -0.000000
   46.365624    0.851066    0.850875    0.849131    0.000000   -0.000000   -0.000000
   46.392549    0.851268    0.851080    0.849336    0.000000   -0.000000   -0.000000
   46.419475    0.851470    0.851284    0.849541    0.000000   -0.000000   -0.000000
 
 The outermost node in the dielectric function lies at epsilon=  19.1


--------------------------------------------------------------------------------------------------------


    OPTICS:  cpu time     20.3605: real time     20.4132
    4ORBIT:  cpu time      0.0000: real time      0.0000



 total charge

# of ion       s       p       d       tot
------------------------------------------
    1        1.372   0.742  10.009  12.124
    2        1.372   0.742  10.009  12.124
    3        1.372   0.742  10.009  12.124
    4        1.372   0.742  10.009  12.124
    5        1.343   2.367   0.000   3.710
    6        1.343   2.367   0.000   3.710
    7        1.343   2.367   0.000   3.710
    8        1.343   2.367   0.000   3.710
--------------------------------------------------
tot         10.861  12.438  40.037  63.335
 
 BZINTS: Fermi energy:    5.238500;   80.000000 electrons
         Band energy:-0.751004E+03;  BLOECHL correction:    0.000000

 total amount of memory used by VASP MPI-rank0    49401. kBytes
=======================================================================

   base      :      30000. kBytes
   nonl-proj :       6082. kBytes
   fftplans  :       1142. kBytes
   grid      :       1514. kBytes
   one-center:         15. kBytes
   HF        :         64. kBytes
   nonlr-proj:       1215. kBytes
   wavefun   :       2045. kBytes
   fock_wrk  :       7324. kBytes
 
  
  
 General timing and accounting informations for this job:
 ========================================================
  
                  Total CPU time used (sec):     1439.235
                            User time (sec):     1436.926
                          System time (sec):        2.308
                         Elapsed time (sec):     1443.815
  
                   Maximum memory used (kb):      349132.
                   Average memory used (kb):          N/A
  
                          Minor page faults:       150775
                          Major page faults:            0
                 Voluntary context switches:        16003
