<?xml version="1.0" encoding="ISO-8859-1"?>
<modeling>
 <generator>
  <i name="program" type="string">vasp </i>
  <i name="version" type="string">6.4.2  </i>
  <i name="subversion" type="string">20Jul23 (build Mar 15 2024 16:31:38) complex                          parallel </i>
  <i name="platform" type="string">LinuxIFC </i>
  <i name="date" type="string">2025 03 25 </i>
  <i name="time" type="string">11:33:37 </i>
 </generator>
 <incar>
  <i type="string" name="PREC">Accurate</i>
  <i type="string" name="ALGO">Normal</i>
  <i type="int" name="ISPIN">     1</i>
  <i type="int" name="NELM">   200</i>
  <i type="int" name="NELMIN">     5</i>
  <i name="EDIFF">      0.00001000</i>
  <i type="int" name="NSW">     0</i>
  <i name="ENCUT">    680.00000000</i>
  <i name="ENAUG">   1360.00000000</i>
  <i type="int" name="NBANDS">    72</i>
  <i type="int" name="NEDOS">  1725</i>
  <i type="logical" name="LREAL"> F  </i>
  <i type="int" name="ISMEAR">    -5</i>
  <i name="SIGMA">      0.05000000</i>
  <i type="int" name="LMAXMIX">     4</i>
  <i type="logical" name="LWAVE"> F  </i>
  <i type="logical" name="LCHARG"> F  </i>
  <i type="logical" name="LVTOT"> T  </i>
  <i type="int" name="LORBIT">    11</i>
  <i type="logical" name="LELF"> F  </i>
  <i type="logical" name="LOPTICS"> T  </i>
  <i type="logical" name="LASPH"> T  </i>
  <i type="logical" name="LAECHG"> T  </i>
  <i name="CSHIFT">      0.00001000</i>
  <i name="HFSCREEN">      0.20000000</i>
  <i type="logical" name="LHFCALC"> T  </i>
  <i type="string" name="GGA">Pe</i>
  <i type="string" name="PRECFOCK">Fast</i>
  <i type="logical" name="LDAU"> F  </i>
  <i type="logical" name="LMIXTAU"> T  </i>
 </incar>
 <primitive_cell>
  <structure name="primitive_cell" >
   <crystal>
    <varray name="basis" >
     <v>       3.95685521       0.00000000       0.00000000 </v>
     <v>      -0.00000000       4.53281069       0.00000000 </v>
     <v>       0.00000000       0.00000000      11.39201851 </v>
    </varray>
    <i name="volume">    204.32354836 </i>
    <varray name="rec_basis" >
     <v>       0.25272595       0.00000000       0.00000000 </v>
     <v>       0.00000000       0.22061367       0.00000000 </v>
     <v>      -0.00000000      -0.00000000       0.08778076 </v>
    </varray>
   </crystal>
   <varray name="positions" >
    <v>       0.25000000       0.36953984       0.62163275 </v>
    <v>       0.75000000       0.63046016       0.37836725 </v>
    <v>       0.75000000       0.86953984       0.87836725 </v>
    <v>       0.25000000       0.13046016       0.12163275 </v>
    <v>       0.25000000       0.01059680       0.34749746 </v>
    <v>       0.75000000       0.98940320       0.65250254 </v>
    <v>       0.75000000       0.51059680       0.15250254 </v>
    <v>       0.25000000       0.48940320       0.84749746 </v>
   </varray>
  </structure>
  <varray name="primitive_index" >
   <v type="int" >        1 </v>
   <v type="int" >        2 </v>
   <v type="int" >        3 </v>
   <v type="int" >        4 </v>
   <v type="int" >        5 </v>
   <v type="int" >        6 </v>
   <v type="int" >        7 </v>
   <v type="int" >        8 </v>
  </varray>
 </primitive_cell>
 <kpoints>
  <generation param="Gamma">
   <v type="int" name="divisions">       6        5        2 </v>
   <v name="usershift">      0.00000000       0.00000000       0.00000000 </v>
   <v name="genvec1">      0.16666667      -0.00000000       0.00000000 </v>
   <v name="genvec2">      0.00000000       0.20000000       0.00000000 </v>
   <v name="genvec3">      0.00000000      -0.00000000       0.50000000 </v>
   <v name="shift">      0.00000000       0.00000000       0.00000000 </v>
  </generation>
  <varray name="kpointlist" >
   <v>       0.00000000       0.00000000       0.00000000 </v>
   <v>       0.16666667      -0.00000000       0.00000000 </v>
   <v>       0.33333333      -0.00000000       0.00000000 </v>
   <v>       0.50000000      -0.00000000       0.00000000 </v>
   <v>       0.00000000       0.20000000       0.00000000 </v>
   <v>       0.16666667       0.20000000       0.00000000 </v>
   <v>       0.33333333       0.20000000       0.00000000 </v>
   <v>       0.50000000       0.20000000       0.00000000 </v>
   <v>       0.00000000       0.40000000       0.00000000 </v>
   <v>       0.16666667       0.40000000       0.00000000 </v>
   <v>       0.33333333       0.40000000       0.00000000 </v>
   <v>       0.50000000       0.40000000       0.00000000 </v>
   <v>      -0.00000000       0.00000000       0.50000000 </v>
   <v>       0.16666667      -0.00000000       0.50000000 </v>
   <v>       0.33333333      -0.00000000       0.50000000 </v>
   <v>       0.50000000      -0.00000000       0.50000000 </v>
   <v>      -0.00000000       0.20000000       0.50000000 </v>
   <v>       0.16666667       0.20000000       0.50000000 </v>
   <v>       0.33333333       0.20000000       0.50000000 </v>
   <v>       0.50000000       0.20000000       0.50000000 </v>
   <v>      -0.00000000       0.40000000       0.50000000 </v>
   <v>       0.16666667       0.40000000       0.50000000 </v>
   <v>       0.33333333       0.40000000       0.50000000 </v>
   <v>       0.50000000       0.40000000       0.50000000 </v>
  </varray>
  <varray name="weights" >
   <v>       0.01666667 </v>
   <v>       0.03333333 </v>
   <v>       0.03333333 </v>
   <v>       0.01666667 </v>
   <v>       0.03333333 </v>
   <v>       0.06666667 </v>
   <v>       0.06666667 </v>
   <v>       0.03333333 </v>
   <v>       0.03333333 </v>
   <v>       0.06666667 </v>
   <v>       0.06666667 </v>
   <v>       0.03333333 </v>
   <v>       0.01666667 </v>
   <v>       0.03333333 </v>
   <v>       0.03333333 </v>
   <v>       0.01666667 </v>
   <v>       0.03333333 </v>
   <v>       0.06666667 </v>
   <v>       0.06666667 </v>
   <v>       0.03333333 </v>
   <v>       0.03333333 </v>
   <v>       0.06666667 </v>
   <v>       0.06666667 </v>
   <v>       0.03333333 </v>
  </varray>
  <varray name="tetrahedronlist"  type="int" >
   <v type="int" >        2        3        6        7       18 </v>
   <v type="int" >        2        2        3        6       18 </v>
   <v type="int" >        2        2        3       14       18 </v>
   <v type="int" >        2        3        7       18       19 </v>
   <v type="int" >        2        3       15       18       19 </v>
   <v type="int" >        2        3       14       15       18 </v>
   <v type="int" >        2        6       15       18       19 </v>
   <v type="int" >        2        6       14       15       18 </v>
   <v type="int" >        2        2        6       14       15 </v>
   <v type="int" >        2        6        7       15       19 </v>
   <v type="int" >        2        3        6        7       15 </v>
   <v type="int" >        2        2        3        6       15 </v>
   <v type="int" >        2       11       20       23       24 </v>
   <v type="int" >        2       11       19       20       23 </v>
   <v type="int" >        2        7       11       19       20 </v>
   <v type="int" >        2       11       12       20       24 </v>
   <v type="int" >        2        8       11       12       20 </v>
   <v type="int" >        2        7        8       11       20 </v>
   <v type="int" >        2        8       11       12       23 </v>
   <v type="int" >        2        7        8       11       23 </v>
   <v type="int" >        2        7        8       19       23 </v>
   <v type="int" >        2        8       12       23       24 </v>
   <v type="int" >        2        8       20       23       24 </v>
   <v type="int" >        2        8       19       20       23 </v>
   <v type="int" >        2       11       11       12       24 </v>
   <v type="int" >        2       11       12       12       24 </v>
   <v type="int" >        2       11       12       24       24 </v>
   <v type="int" >        2       11       11       23       24 </v>
   <v type="int" >        2       11       23       23       24 </v>
   <v type="int" >        2       11       23       24       24 </v>
   <v type="int" >        2       12       23       23       24 </v>
   <v type="int" >        2       12       23       24       24 </v>
   <v type="int" >        2       12       12       23       24 </v>
   <v type="int" >        2       11       12       23       23 </v>
   <v type="int" >        2       11       11       12       23 </v>
   <v type="int" >        2       11       12       12       23 </v>
   <v type="int" >        2        7       18       19       22 </v>
   <v type="int" >        2        7       19       22       23 </v>
   <v type="int" >        2        7       11       22       23 </v>
   <v type="int" >        2        6        7       18       22 </v>
   <v type="int" >        2        6        7       10       22 </v>
   <v type="int" >        2        7       10       11       22 </v>
   <v type="int" >        2        6        7       10       19 </v>
   <v type="int" >        2        7       10       11       19 </v>
   <v type="int" >        2       10       11       19       23 </v>
   <v type="int" >        2        6       10       18       19 </v>
   <v type="int" >        2       10       18       19       22 </v>
   <v type="int" >        2       10       19       22       23 </v>
   <v type="int" >        2        1        2        5       14 </v>
   <v type="int" >        2        2        5        6       14 </v>
   <v type="int" >        2        5        6       14       18 </v>
   <v type="int" >        2        1        5       13       14 </v>
   <v type="int" >        2        5       13       14       17 </v>
   <v type="int" >        2        5       14       17       18 </v>
   <v type="int" >        2        2       13       14       17 </v>
   <v type="int" >        2        2       14       17       18 </v>
   <v type="int" >        2        2        6       17       18 </v>
   <v type="int" >        2        1        2       13       17 </v>
   <v type="int" >        2        1        2        5       17 </v>
   <v type="int" >        2        2        5        6       17 </v>
   <v type="int" >        2        1        5        6       18 </v>
   <v type="int" >        2        1        2        6       18 </v>
   <v type="int" >        2        1        2       14       18 </v>
   <v type="int" >        2        1        5       17       18 </v>
   <v type="int" >        2        1       13       17       18 </v>
   <v type="int" >        2        1       13       14       18 </v>
   <v type="int" >        2        6       13       17       18 </v>
   <v type="int" >        2        6       13       14       18 </v>
   <v type="int" >        2        2        6       13       14 </v>
   <v type="int" >        2        5        6       13       17 </v>
   <v type="int" >        2        1        5        6       13 </v>
   <v type="int" >        2        1        2        6       13 </v>
   <v type="int" >        2        9       18       21       22 </v>
   <v type="int" >        2        9       17       18       21 </v>
   <v type="int" >        2        5        9       17       18 </v>
   <v type="int" >        2        9       10       18       22 </v>
   <v type="int" >        2        6        9       10       18 </v>
   <v type="int" >        2        5        6        9       18 </v>
   <v type="int" >        2        6        9       10       21 </v>
   <v type="int" >        2        5        6        9       21 </v>
   <v type="int" >        2        5        6       17       21 </v>
   <v type="int" >        2        6       10       21       22 </v>
   <v type="int" >        2        6       18       21       22 </v>
   <v type="int" >        2        6       17       18       21 </v>
   <v type="int" >        2       10       11       11       22 </v>
   <v type="int" >        2       10       10       11       22 </v>
   <v type="int" >        2       10       11       22       22 </v>
   <v type="int" >        2       11       11       22       23 </v>
   <v type="int" >        2       11       22       23       23 </v>
   <v type="int" >        2       11       22       22       23 </v>
   <v type="int" >        2       10       22       23       23 </v>
   <v type="int" >        2       10       22       22       23 </v>
   <v type="int" >        2       10       10       22       23 </v>
   <v type="int" >        2       10       11       23       23 </v>
   <v type="int" >        2       10       11       11       23 </v>
   <v type="int" >        2       10       10       11       23 </v>
   <v type="int" >        2        7       19       20       24 </v>
   <v type="int" >        2        7       19       23       24 </v>
   <v type="int" >        2        7       11       23       24 </v>
   <v type="int" >        2        7        8       20       24 </v>
   <v type="int" >        2        7        8       12       24 </v>
   <v type="int" >        2        7       11       12       24 </v>
   <v type="int" >        2        7        8       12       19 </v>
   <v type="int" >        2        7       11       12       19 </v>
   <v type="int" >        2       11       12       19       23 </v>
   <v type="int" >        2        8       12       19       20 </v>
   <v type="int" >        2       12       19       20       24 </v>
   <v type="int" >        2       12       19       23       24 </v>
   <v type="int" >        2        3        4        7       16 </v>
   <v type="int" >        2        4        7        8       16 </v>
   <v type="int" >        2        7        8       16       20 </v>
   <v type="int" >        2        3        7       15       16 </v>
   <v type="int" >        2        7       15       16       19 </v>
   <v type="int" >        2        7       16       19       20 </v>
   <v type="int" >        2        4       15       16       19 </v>
   <v type="int" >        2        4       16       19       20 </v>
   <v type="int" >        2        4        8       19       20 </v>
   <v type="int" >        2        3        4       15       19 </v>
   <v type="int" >        2        3        4        7       19 </v>
   <v type="int" >        2        4        7        8       19 </v>
   <v type="int" >        2        7       14       18       19 </v>
   <v type="int" >        2        7       14       15       19 </v>
   <v type="int" >        2        3        7       14       15 </v>
   <v type="int" >        2        6        7       14       18 </v>
   <v type="int" >        2        2        6        7       14 </v>
   <v type="int" >        2        2        3        7       14 </v>
   <v type="int" >        2        2        6        7       19 </v>
   <v type="int" >        2        2        3        7       19 </v>
   <v type="int" >        2        2        3       15       19 </v>
   <v type="int" >        2        2        6       18       19 </v>
   <v type="int" >        2        2       14       18       19 </v>
   <v type="int" >        2        2       14       15       19 </v>
   <v type="int" >        2        5        9       10       22 </v>
   <v type="int" >        2        5        6       10       22 </v>
   <v type="int" >        2        5        6       18       22 </v>
   <v type="int" >        2        5        9       21       22 </v>
   <v type="int" >        2        5       17       21       22 </v>
   <v type="int" >        2        5       17       18       22 </v>
   <v type="int" >        2       10       17       21       22 </v>
   <v type="int" >        2       10       17       18       22 </v>
   <v type="int" >        2        6       10       17       18 </v>
   <v type="int" >        2        9       10       17       21 </v>
   <v type="int" >        2        5        9       10       17 </v>
   <v type="int" >        2        5        6       10       17 </v>
   <v type="int" >        2        9       21       22       22 </v>
   <v type="int" >        2        9       21       21       22 </v>
   <v type="int" >        2        9        9       21       22 </v>
   <v type="int" >        2        9       10       22       22 </v>
   <v type="int" >        2        9       10       10       22 </v>
   <v type="int" >        2        9        9       10       22 </v>
   <v type="int" >        2        9       10       10       21 </v>
   <v type="int" >        2        9        9       10       21 </v>
   <v type="int" >        2        9       10       21       21 </v>
   <v type="int" >        2       10       10       21       22 </v>
   <v type="int" >        2       10       21       22       22 </v>
   <v type="int" >        2       10       21       21       22 </v>
   <v type="int" >        2        6        7       11       18 </v>
   <v type="int" >        2        6       10       11       18 </v>
   <v type="int" >        2       10       11       18       22 </v>
   <v type="int" >        2        7       11       18       19 </v>
   <v type="int" >        2       11       18       19       23 </v>
   <v type="int" >        2       11       18       22       23 </v>
   <v type="int" >        2        6       18       19       23 </v>
   <v type="int" >        2        6       18       22       23 </v>
   <v type="int" >        2        6       10       22       23 </v>
   <v type="int" >        2        6        7       19       23 </v>
   <v type="int" >        2        6        7       11       23 </v>
   <v type="int" >        2        6       10       11       23 </v>
   <v type="int" >        2        3       15       16       20 </v>
   <v type="int" >        2        3       15       19       20 </v>
   <v type="int" >        2        3        7       19       20 </v>
   <v type="int" >        2        3        4       16       20 </v>
   <v type="int" >        2        3        4        8       20 </v>
   <v type="int" >        2        3        7        8       20 </v>
   <v type="int" >        2        3        4        8       15 </v>
   <v type="int" >        2        3        7        8       15 </v>
   <v type="int" >        2        7        8       15       19 </v>
   <v type="int" >        2        4        8       15       16 </v>
   <v type="int" >        2        8       15       16       20 </v>
   <v type="int" >        2        8       15       19       20 </v>
  </varray>
  <i name="volumeweight">      0.00277778 </i>
 </kpoints>
 <parameters>
  <separator name="general" >
   <i type="string" name="SYSTEM">unknown system</i>
   <i type="logical" name="LCOMPAT"> F  </i>
  </separator>
  <separator name="electronic" >
   <i type="string" name="PREC">accura</i>
   <i name="ENMAX">    680.00000000</i>
   <i name="ENAUG">   1360.00000000</i>
   <i name="EDIFF">      0.00001000</i>
   <i type="int" name="IALGO">    38</i>
   <i type="int" name="IWAVPR">    10</i>
   <i type="int" name="NBANDS">    72</i>
   <i type="int" name="NBANDSLOW">    -1</i>
   <i type="int" name="NBANDSHIGH">    -1</i>
   <i name="NELECT">     80.00000000</i>
   <i type="int" name="TURBO">     0</i>
   <i type="int" name="IRESTART">     0</i>
   <i type="int" name="NREBOOT">     0</i>
   <i type="int" name="NMIN">     0</i>
   <i name="EREF">      0.00000000</i>
   <separator name="electronic smearing" >
    <i type="int" name="ISMEAR">    -5</i>
    <i name="SIGMA">      0.05000000</i>
    <i name="KSPACING">      0.50000000</i>
    <i type="logical" name="KGAMMA"> T  </i>
    <i type="logical" name="KBLOWUP"> T  </i>
   </separator>
   <separator name="electronic projectors" >
    <i type="logical" name="LREAL"> F  </i>
    <v name="ROPT">      0.00000000      0.00000000</v>
    <i type="int" name="LMAXPAW">  -100</i>
    <i type="int" name="LMAXMIX">     4</i>
    <i type="logical" name="NLSPLINE"> F  </i>
   </separator>
   <separator name="electronic startup" >
    <i type="int" name="ISTART">     0</i>
    <i type="int" name="ICHARG">     2</i>
    <i type="int" name="INIWAV">     1</i>
   </separator>
   <separator name="electronic spin" >
    <i type="int" name="ISPIN">     1</i>
    <i type="logical" name="LNONCOLLINEAR"> F  </i>
    <v name="MAGMOM">      1.00000000      1.00000000      1.00000000      1.00000000      1.00000000      1.00000000      1.00000000      1.00000000</v>
    <i name="NUPDOWN">     -1.00000000</i>
    <i type="logical" name="LSORBIT"> F  </i>
    <v name="SAXIS">      0.00000000      0.00000000      1.00000000</v>
    <i type="logical" name="LSPIRAL"> F  </i>
    <v name="QSPIRAL">      0.00000000      0.00000000      0.00000000</v>
    <i type="logical" name="LZEROZ"> F  </i>
   </separator>
   <separator name="electronic exchange-correlation" >
    <i type="logical" name="LASPH"> T  </i>
    <i type="logical" name="LMETAGGA"> F  </i>
   </separator>
   <separator name="electronic convergence" >
    <i type="int" name="NELM">   200</i>
    <i type="int" name="NELMDL">    -5</i>
    <i type="int" name="NELMIN">     5</i>
    <i name="ENINI">    680.00000000</i>
    <separator name="electronic convergence detail" >
     <i type="logical" name="LDIAG"> T  </i>
     <i type="logical" name="LSUBROT"> F  </i>
     <i name="WEIMIN">      0.00000000</i>
     <i name="EBREAK">      0.00000003</i>
     <i name="DEPER">      0.30000000</i>
     <i type="int" name="NRMM">     4</i>
     <i name="TIME">      0.40000000</i>
    </separator>
   </separator>
   <separator name="electronic mixer" >
    <i name="AMIX">      0.40000000</i>
    <i name="BMIX">      1.00000000</i>
    <i name="AMIN">      0.10000000</i>
    <i name="AMIX_MAG">      1.60000000</i>
    <i name="BMIX_MAG">      1.00000000</i>
    <separator name="electronic mixer details" >
     <i type="int" name="IMIX">     1</i>
     <i type="logical" name="MIXFIRST"> F  </i>
     <i type="int" name="MAXMIX">   -45</i>
     <i name="WC">    100.00000000</i>
     <i type="int" name="INIMIX">     1</i>
     <i type="int" name="MIXPRE">     1</i>
     <i type="int" name="MREMOVE">     5</i>
    </separator>
   </separator>
   <separator name="electronic dipolcorrection" >
    <i type="logical" name="LDIPOL"> F  </i>
    <i type="logical" name="LMONO"> F  </i>
    <i type="int" name="IDIPOL">     0</i>
    <i name="EPSILON">      1.00000000</i>
    <v name="DIPOL">   -100.00000000   -100.00000000   -100.00000000</v>
    <i name="EFIELD">      0.00000000</i>
   </separator>
  </separator>
  <separator name="grids" >
   <i type="int" name="NGX">    36</i>
   <i type="int" name="NGY">    40</i>
   <i type="int" name="NGZ">    98</i>
   <i type="int" name="NGXF">    72</i>
   <i type="int" name="NGYF">    80</i>
   <i type="int" name="NGZF">   196</i>
   <i type="logical" name="ADDGRID"> F  </i>
  </separator>
  <separator name="ionic" >
   <i type="int" name="NSW">     0</i>
   <i type="int" name="IBRION">    -1</i>
   <i type="int" name="MDALGO">     0</i>
   <i type="int" name="ISIF">     0</i>
   <i name="PSTRESS">      0.00000000</i>
   <i name="EDIFFG">      0.00010000</i>
   <i type="int" name="NFREE">     0</i>
   <i name="POTIM">      0.50000000</i>
   <i name="SMASS">     -3.00000000</i>
   <i name="SCALEE">      1.00000000</i>
  </separator>
  <separator name="ionic md" >
   <i name="TEBEG">      0.00010000</i>
   <i name="TEEND">      0.00010000</i>
   <i type="int" name="NBLOCK">     1</i>
   <i type="int" name="KBLOCK">     1</i>
   <i type="int" name="NPACO">   256</i>
   <i name="APACO">     10.00000000</i>
  </separator>
  <separator name="symmetry" >
   <i type="int" name="ISYM">     3</i>
   <i name="SYMPREC">      0.00001000</i>
  </separator>
  <separator name="dos" >
   <i type="int" name="LORBIT">    11</i>
   <v name="RWIGS">     -1.00000000     -1.00000000</v>
   <i type="int" name="NEDOS">  1725</i>
   <i name="EMIN">     10.00000000</i>
   <i name="EMAX">    -10.00000000</i>
   <i name="EFERMI">      0.00000000</i>
  </separator>
  <separator name="writing" >
   <i type="int" name="NWRITE">     2</i>
   <i type="logical" name="LWAVE"> F  </i>
   <i type="logical" name="LDOWNSAMPLE"> F  </i>
   <i type="logical" name="LCHARG"> F  </i>
   <i type="logical" name="LPARD"> F  </i>
   <i type="logical" name="LVTOT"> T  </i>
   <i type="logical" name="LVHAR"> F  </i>
   <i type="logical" name="LELF"> F  </i>
   <i type="logical" name="LOPTICS"> T  </i>
   <v name="STM">      0.00000000      0.00000000      0.00000000      0.00000000      0.00000000      0.00000000      0.00000000</v>
  </separator>
  <separator name="performance" >
   <i type="int" name="NPAR">    12</i>
   <i type="int" name="NSIM">     4</i>
   <i type="int" name="NBLK">    -1</i>
   <i type="logical" name="LPLANE"> T  </i>
   <i type="logical" name="LSCALAPACK"> T  </i>
   <i type="logical" name="LSCAAWARE"> F  </i>
   <i type="logical" name="LSCALU"> F  </i>
   <i type="logical" name="LASYNC"> F  </i>
   <i type="logical" name="LORBITALREAL"> F  </i>
  </separator>
  <separator name="miscellaneous" >
   <i type="int" name="IDIOT">     3</i>
   <i type="int" name="PHON_NSTRUCT">    -1</i>
   <i type="logical" name="LMUSIC"> F  </i>
   <v name="POMASS">    118.71000000     32.06600000</v>
   <v name="DARWINR">      0.00000000      0.00000000</v>
   <v name="DARWINV">      1.00000000      1.00000000</v>
   <i type="logical" name="LCORR"> T  </i>
  </separator>
  <i type="logical" name="GGA_COMPAT"> T  </i>
  <i type="logical" name="LBERRY"> F  </i>
  <i type="int" name="ICORELEVEL">     0</i>
  <i type="logical" name="LDAU"> F  </i>
  <i type="int" name="I_CONSTRAINED_M">     0</i>
  <separator name="electronic exchange-correlation" >
   <i type="string" name="GGA">PE</i>
   <i type="int" name="VOSKOWN">     0</i>
   <i type="logical" name="LHFCALC"> T  </i>
   <i type="string" name="PRECFOCK">fast</i>
   <i type="logical" name="LSYMGRAD"> F  </i>
   <i type="logical" name="LHFONE"> F  </i>
   <i type="logical" name="LRHFCALC"> F  </i>
   <i type="logical" name="LTHOMAS"> F  </i>
   <i type="logical" name="LMODELHF"> F  </i>
   <i type="logical" name="LFOCKACE"> T  </i>
   <i name="ENCUT4O">     -1.00000000</i>
   <i type="int" name="EXXOEP">     0</i>
   <i type="int" name="FOURORBIT">     0</i>
   <i name="AEXX">      0.25000000</i>
   <i name="HFALPHA">     -1.00000000</i>
   <i name="MCALPHA">      0.00000000</i>
   <i name="ALDAX">      0.75000000</i>
   <i name="AGGAX">      0.75000000</i>
   <i name="ALDAC">      1.00000000</i>
   <i name="AGGAC">      1.00000000</i>
   <i type="int" name="NKREDX">     1</i>
   <i type="int" name="NKREDY">     1</i>
   <i type="int" name="NKREDZ">     1</i>
   <i type="logical" name="SHIFTRED"> F  </i>
   <i type="logical" name="ODDONLY"> F  </i>
   <i type="logical" name="EVENONLY"> F  </i>
   <i type="int" name="LMAXFOCK">     4</i>
   <i type="int" name="NMAXFOCKAE">     1</i>
   <i type="logical" name="LFOCKAEDFT"> F  </i>
   <i name="HFSCREEN">      0.20000000</i>
   <i name="HFSCREENC">      0.20000000</i>
   <i type="int" name="NBANDSGWLOW">     1</i>
  </separator>
  <separator name="vdW DFT" >
   <i type="logical" name="LUSE_VDW"> F  </i>
   <i type="int" name="IVDW_NL">     1</i>
   <i type="logical" name="LSPIN_VDW"> F  </i>
   <i name="Zab_VDW">     -0.84910000</i>
   <i name="PARAM1">      0.12340000</i>
   <i name="PARAM2">      1.00000000</i>
   <i name="PARAM3">      0.00000000</i>
  </separator>
  <separator name="model GW" >
   <i type="int" name="MODEL_GW">     0</i>
   <i name="MODEL_EPS0">     15.32426613</i>
   <i name="MODEL_ALPHA">      1.00000000</i>
  </separator>
  <separator name="linear response parameters" >
   <i type="logical" name="LEPSILON"> F  </i>
   <i type="logical" name="LRPA"> F  </i>
   <i type="logical" name="LNABLA"> F  </i>
   <i type="logical" name="LVEL"> F  </i>
   <i name="CSHIFT">      0.00001000</i>
   <i name="OMEGAMAX">     -1.00000000</i>
   <i name="DEG_THRESHOLD">      0.00200000</i>
   <i name="RTIME">     -0.10000000</i>
   <i name="WPLASMAI">      0.00000000</i>
   <v name="DFIELD">      0.00000000      0.00000000      0.00000000</v>
   <v name="WPLASMA">      0.00000000      0.00000000      0.00000000      0.00000000      0.00000000      0.00000000      0.00000000      0.00000000      0.00000000</v>
  </separator>
  <separator name="orbital magnetization" >
   <i type="logical" name="NUCIND"> F  </i>
   <v name="MAGPOS">      0.00000000      0.00000000      0.00000000</v>
   <i type="logical" name="LNICSALL"> T  </i>
   <i type="logical" name="ORBITALMAG"> F  </i>
   <i type="logical" name="LMAGBLOCH"> F  </i>
   <i type="logical" name="LCHIMAG"> F  </i>
   <i type="logical" name="LGAUGE"> T  </i>
   <i type="int" name="MAGATOM">     0</i>
   <v name="MAGDIPOL">      0.00000000      0.00000000      0.00000000</v>
   <v name="AVECCONST">      0.00000000      0.00000000      0.00000000</v>
  </separator>
  <separator name="response functions" >
   <i type="logical" name="LALL_IN_ONE"> F  </i>
   <i type="int" name="IALL_IN_ONE">    -1</i>
   <i type="int" name="NBANDS_WAVE">    -1</i>
   <i type="logical" name="LFINITE_TEMPERATURE"> F  </i>
   <i type="logical" name="LADDER"> F  </i>
   <i type="logical" name="LRPAFORCE"> F  </i>
   <i type="logical" name="LFXC"> F  </i>
   <i type="logical" name="LHARTREE"> T  </i>
   <i type="int" name="IBSE">     0</i>
   <v type="int" name="KPOINT">    -1     0     0     0</v>
   <i type="logical" name="LTCTC"> F  </i>
   <i type="logical" name="LTCTE"> F  </i>
   <i type="logical" name="LTETE"> F  </i>
   <i type="logical" name="LTRIPLET"> F  </i>
   <i type="logical" name="LFXCEPS"> F  </i>
   <i type="logical" name="LFXHEG"> F  </i>
   <i type="int" name="NATURALO">     2</i>
   <i type="logical" name="LHOLEGF"> F  </i>
   <i type="logical" name="L2ORDER"> F  </i>
   <i type="logical" name="LDMP1"> F  </i>
   <i type="logical" name="LMP2LT"> F  </i>
   <i type="logical" name="LSMP2LT"> F  </i>
   <i type="logical" name="LGWLF"> F  </i>
   <i name="ENCUTGW">     -1.60000002</i>
   <i name="ENCUTGWSOFT">     -1.60000002</i>
   <i name="ENCUTLF">     -1.00000000</i>
   <i type="logical" name="LESF_SPLINES"> F  </i>
   <i type="int" name="LMAXMP2">    -1</i>
   <i name="SCISSOR">      0.00000000</i>
   <i type="int" name="NOMEGA">     0</i>
   <i type="int" name="NOMEGAR">     0</i>
   <i type="int" name="NBANDSGW">    -1</i>
   <i type="int" name="NBANDSO">    -1</i>
   <i type="int" name="NBANDSV">    -1</i>
   <i type="int" name="NELMGW">     1</i>
   <i type="int" name="NELMHF">     1</i>
   <i type="int" name="DIM">     3</i>
   <i type="int" name="IESPILON">     4</i>
   <i type="int" name="ANTIRES">     0</i>
   <i name="OMEGAMAX">    -30.00000000</i>
   <i name="OMEGAMIN">    -30.00000000</i>
   <i name="OMEGATL">   -200.00000000</i>
   <i type="int" name="OMEGAGRID">     0</i>
   <i name="CSHIFT">      0.00001000</i>
   <i type="logical" name="LSELFENERGY"> F  </i>
   <i type="logical" name="LSPECTRAL"> F  </i>
   <i type="logical" name="LSPECTRALGW"> F  </i>
   <i type="logical" name="LSINGLES"> F  </i>
   <i type="logical" name="LFERMIGW"> F  </i>
   <i type="logical" name="ODDONLYGW"> F  </i>
   <i type="logical" name="EVENONLYGW"> F  </i>
   <i type="int" name="NKREDLFX">     1</i>
   <i type="int" name="NKREDLFY">     1</i>
   <i type="int" name="NKREDLFZ">     1</i>
   <i type="int" name="MAXMEM">  2800</i>
   <i type="int" name="TELESCOPE">     0</i>
   <i type="int" name="NTAUPAR">    -1</i>
   <i type="int" name="NOMEGAPAR">    -1</i>
   <i name="DAMP_NEWTON">      0.80000001</i>
   <i name="LAMBDA">      1.00000000</i>
  </separator>
  <separator name="External order field" >
   <i name="OFIELD_KAPPA">      0.00000000</i>
   <v name="OFIELD_K">      0.00000000      0.00000000      0.00000000</v>
   <i name="OFIELD_Q6_NEAR">      0.00000000</i>
   <i name="OFIELD_Q6_FAR">      0.00000000</i>
   <i name="OFIELD_A">      0.00000000</i>
  </separator>
  <separator name="optional k-points parameters" >
   <i type="int" name="KPOINTS_OPT_MODE">     1</i>
   <i type="logical" name="LKPOINTS_OPT"> F  </i>
  </separator>
 </parameters>
 <atominfo>
  <atoms>       8 </atoms>
  <types>       2 </types>
  <array name="atoms" >
   <dimension dim="1">ion</dimension>
   <field type="string">element</field>
   <field type="int">atomtype</field>
   <set>
    <rc><c>Sn</c><c>   1</c></rc>
    <rc><c>Sn</c><c>   1</c></rc>
    <rc><c>Sn</c><c>   1</c></rc>
    <rc><c>Sn</c><c>   1</c></rc>
    <rc><c>S </c><c>   2</c></rc>
    <rc><c>S </c><c>   2</c></rc>
    <rc><c>S </c><c>   2</c></rc>
    <rc><c>S </c><c>   2</c></rc>
   </set>
  </array>
  <array name="atomtypes" >
   <dimension dim="1">type</dimension>
   <field type="int">atomspertype</field>
   <field type="string">element</field>
   <field>mass</field>
   <field>valence</field>
   <field type="string">pseudopotential</field>
   <set>
    <rc><c>   4</c><c>Sn</c><c>    118.71000000</c><c>     14.00000000</c><c>  PAW_PBE Sn_d 06Sep2000                </c></rc>
    <rc><c>   4</c><c>S </c><c>     32.06600000</c><c>      6.00000000</c><c>  PAW_PBE S 06Sep2000                   </c></rc>
   </set>
  </array>
 </atominfo>
 <structure name="initialpos" >
  <crystal>
   <varray name="basis" >
    <v>       3.95685521       0.00000000       0.00000000 </v>
    <v>      -0.00000000       4.53281069       0.00000000 </v>
    <v>       0.00000000       0.00000000      11.39201851 </v>
   </varray>
   <i name="volume">    204.32354836 </i>
   <varray name="rec_basis" >
    <v>       0.25272595       0.00000000       0.00000000 </v>
    <v>       0.00000000       0.22061367       0.00000000 </v>
    <v>      -0.00000000      -0.00000000       0.08778076 </v>
   </varray>
  </crystal>
  <varray name="positions" >
   <v>       0.25000000       0.36953984       0.62163275 </v>
   <v>       0.75000000       0.63046016       0.37836725 </v>
   <v>       0.75000000       0.86953984       0.87836725 </v>
   <v>       0.25000000       0.13046016       0.12163275 </v>
   <v>       0.25000000       0.01059680       0.34749746 </v>
   <v>       0.75000000       0.98940320       0.65250254 </v>
   <v>       0.75000000       0.51059680       0.15250254 </v>
   <v>       0.25000000       0.48940320       0.84749746 </v>
  </varray>
 </structure>
 <calculation>
  <scstep>
   <time name="dav">    1.06    1.07</time>
   <time name="total">    1.25    1.26</time>
   <energy>
    <i name="alphaZ">    164.67690988 </i>
    <i name="ewald">  -6009.93810534 </i>
    <i name="hartreedc">  -2402.51146919 </i>
    <i name="XCdc">    275.67654792 </i>
    <i name="pawpsdc">   7145.46468626 </i>
    <i name="pawaedc"> -11885.85280239 </i>
    <i name="eentropy">      0.00000000 </i>
    <i name="bandstr">    228.63847732 </i>
    <i name="atom">   8669.54861131 </i>
    <i name="e_fr_energy">  -3814.29714424 </i>
    <i name="e_wo_entrp">  -3814.29714424 </i>
    <i name="e_0_energy">  -3814.29714424 </i>
   </energy>
  </scstep>
  <scstep>
   <time name="dav">    0.76    0.77</time>
   <time name="total">    0.78    0.79</time>
   <energy>
    <i name="e_fr_energy">  -4675.94761666 </i>
    <i name="e_wo_entrp">  -4675.94761666 </i>
    <i name="e_0_energy">  -4675.94761666 </i>
   </energy>
  </scstep>
  <scstep>
   <time name="dav">    0.75    0.77</time>
   <time name="total">    0.77    0.79</time>
   <energy>
    <i name="e_fr_energy">  -4838.77597805 </i>
    <i name="e_wo_entrp">  -4838.77597805 </i>
    <i name="e_0_energy">  -4838.77597805 </i>
   </energy>
  </scstep>
  <scstep>
   <time name="dav">    0.83    0.85</time>
   <time name="total">    0.85    0.86</time>
   <energy>
    <i name="e_fr_energy">  -4848.43349836 </i>
    <i name="e_wo_entrp">  -4848.43349836 </i>
    <i name="e_0_energy">  -4848.43349836 </i>
   </energy>
  </scstep>
  <scstep>
   <time name="dav">   82.98   83.19</time>
   <time name="total">   83.44   83.67</time>
   <energy>
    <i name="e_fr_energy">    -44.05738696 </i>
    <i name="e_wo_entrp">    -44.05738696 </i>
    <i name="e_0_energy">    -44.05738696 </i>
   </energy>
  </scstep>
  <scstep>
   <time name="dav">   82.43   82.64</time>
   <time name="total">   82.87   83.09</time>
   <energy>
    <i name="e_fr_energy">    -42.34916179 </i>
    <i name="e_wo_entrp">    -42.34916179 </i>
    <i name="e_0_energy">    -42.34916179 </i>
   </energy>
  </scstep>
  <scstep>
   <time name="dav">   82.23   82.43</time>
   <time name="total">   82.67   82.89</time>
   <energy>
    <i name="e_fr_energy">    -42.54653158 </i>
    <i name="e_wo_entrp">    -42.54653158 </i>
    <i name="e_0_energy">    -42.54653158 </i>
   </energy>
  </scstep>
  <scstep>
   <time name="dav">   82.31   82.54</time>
   <time name="total">   82.74   82.99</time>
   <energy>
    <i name="e_fr_energy">    -42.53838923 </i>
    <i name="e_wo_entrp">    -42.53838923 </i>
    <i name="e_0_energy">    -42.53838923 </i>
   </energy>
  </scstep>
  <scstep>
   <time name="dav">   82.83   83.03</time>
   <time name="total">   83.26   83.48</time>
   <energy>
    <i name="e_fr_energy">    -42.51982236 </i>
    <i name="e_wo_entrp">    -42.51982236 </i>
    <i name="e_0_energy">    -42.51982236 </i>
   </energy>
  </scstep>
  <scstep>
   <time name="dav">   82.17   82.37</time>
   <time name="total">   82.62   82.82</time>
   <energy>
    <i name="e_fr_energy">    -42.51918068 </i>
    <i name="e_wo_entrp">    -42.51918068 </i>
    <i name="e_0_energy">    -42.51918068 </i>
   </energy>
  </scstep>
  <scstep>
   <time name="dav">   82.33   82.53</time>
   <time name="total">   82.76   82.98</time>
   <energy>
    <i name="e_fr_energy">    -42.51845132 </i>
    <i name="e_wo_entrp">    -42.51845132 </i>
    <i name="e_0_energy">    -42.51845132 </i>
   </energy>
  </scstep>
  <scstep>
   <time name="dav">   82.45   82.68</time>
   <time name="total">   82.88   83.13</time>
   <energy>
    <i name="e_fr_energy">    -42.51821804 </i>
    <i name="e_wo_entrp">    -42.51821804 </i>
    <i name="e_0_energy">    -42.51821804 </i>
   </energy>
  </scstep>
  <scstep>
   <time name="dav">   82.36   82.57</time>
   <time name="total">   82.79   83.02</time>
   <energy>
    <i name="e_fr_energy">    -42.51821693 </i>
    <i name="e_wo_entrp">    -42.51821693 </i>
    <i name="e_0_energy">    -42.51821693 </i>
   </energy>
  </scstep>
  <scstep>
   <time name="dav">   82.15   82.36</time>
   <time name="total">   82.59   82.81</time>
   <energy>
    <i name="e_fr_energy">    -42.51822718 </i>
    <i name="e_wo_entrp">    -42.51822718 </i>
    <i name="e_0_energy">    -42.51822718 </i>
   </energy>
  </scstep>
  <scstep>
   <time name="dav">   82.18   82.38</time>
   <time name="total">   82.55   82.78</time>
   <energy>
    <i name="alphaZ">    164.67690988 </i>
    <i name="ewald">  -6009.93810534 </i>
    <i name="hartreedc">  -2397.79146550 </i>
    <i name="XCdc">    210.98467181 </i>
    <i name="pawpsdc">  10081.06658066 </i>
    <i name="pawaedc"> -10186.32711846 </i>
    <i name="eentropy">      0.00000000 </i>
    <i name="bandstr">   -751.00405301 </i>
    <i name="atom">   8669.54861131 </i>
    <i name="e_fr_energy">    -42.51823632 </i>
    <i name="e_wo_entrp">    -42.51823632 </i>
    <i name="e_0_energy">    -42.51823632 </i>
   </energy>
  </scstep>
  <structure>
   <crystal>
    <varray name="basis" >
     <v>       3.95685521       0.00000000       0.00000000 </v>
     <v>      -0.00000000       4.53281069       0.00000000 </v>
     <v>       0.00000000       0.00000000      11.39201851 </v>
    </varray>
    <i name="volume">    204.32354836 </i>
    <varray name="rec_basis" >
     <v>       0.25272595       0.00000000       0.00000000 </v>
     <v>       0.00000000       0.22061367       0.00000000 </v>
     <v>      -0.00000000      -0.00000000       0.08778076 </v>
    </varray>
   </crystal>
   <varray name="positions" >
    <v>       0.25000000       0.36953984       0.62163275 </v>
    <v>       0.75000000       0.63046016       0.37836725 </v>
    <v>       0.75000000       0.86953984       0.87836725 </v>
    <v>       0.25000000       0.13046016       0.12163275 </v>
    <v>       0.25000000       0.01059680       0.34749746 </v>
    <v>       0.75000000       0.98940320       0.65250254 </v>
    <v>       0.75000000       0.51059680       0.15250254 </v>
    <v>       0.25000000       0.48940320       0.84749746 </v>
   </varray>
  </structure>
  <varray name="forces" >
   <v>       0.00000000      -0.03755031       0.04292379 </v>
   <v>      -0.00000000       0.03755031      -0.04292379 </v>
   <v>       0.00000000      -0.03755031      -0.04292379 </v>
   <v>      -0.00000000       0.03755031       0.04292379 </v>
   <v>       0.00000000      -0.02098310      -0.02129291 </v>
   <v>      -0.00000000       0.02098310       0.02129291 </v>
   <v>       0.00000000      -0.02098310       0.02129291 </v>
   <v>      -0.00000000       0.02098310      -0.02129291 </v>
  </varray>
  <energy>
   <i name="e_fr_energy">    -42.51823632 </i>
   <i name="e_wo_entrp">    -42.51823632 </i>
   <i name="e_0_energy">    -42.51823632 </i>
  </energy>
  <time name="totalsc">  968.77  971.48</time>
  <eigenvalues>
   <array>
    <dimension dim="1">band</dimension>
    <dimension dim="2">kpoint</dimension>
    <dimension dim="3">spin</dimension>
    <field>eigene</field>
    <field>occ</field>
    <set>
     <set comment="spin 1">
      <set comment="kpoint 1">
       <r>  -18.1268    1.0000 </r>
       <r>  -18.1138    1.0000 </r>
       <r>  -18.1031    1.0000 </r>
       <r>  -18.0954    1.0000 </r>
       <r>  -18.0936    1.0000 </r>
       <r>  -18.0901    1.0000 </r>
       <r>  -18.0876    1.0000 </r>
       <r>  -18.0838    1.0000 </r>
       <r>  -18.0650    1.0000 </r>
       <r>  -18.0639    1.0000 </r>
       <r>  -18.0522    1.0000 </r>
       <r>  -18.0477    1.0000 </r>
       <r>  -18.0459    1.0000 </r>
       <r>  -18.0411    1.0000 </r>
       <r>  -18.0168    1.0000 </r>
       <r>  -18.0134    1.0000 </r>
       <r>  -18.0099    1.0000 </r>
       <r>  -18.0059    1.0000 </r>
       <r>  -18.0018    1.0000 </r>
       <r>  -17.9988    1.0000 </r>
       <r>   -9.9872    1.0000 </r>
       <r>   -9.7157    1.0000 </r>
       <r>   -8.6485    1.0000 </r>
       <r>   -8.2424    1.0000 </r>
       <r>   -2.6905    1.0000 </r>
       <r>   -1.7090    1.0000 </r>
       <r>   -0.6233    1.0000 </r>
       <r>    0.0831    1.0000 </r>
       <r>    0.2058    1.0000 </r>
       <r>    1.1242    1.0000 </r>
       <r>    1.5353    1.0000 </r>
       <r>    1.5539    1.0000 </r>
       <r>    1.5583    1.0000 </r>
       <r>    1.8763    1.0000 </r>
       <r>    2.7332    1.0000 </r>
       <r>    2.8273    1.0000 </r>
       <r>    3.1405    1.0000 </r>
       <r>    4.0846    1.0000 </r>
       <r>    4.2290    1.0000 </r>
       <r>    4.8829    1.0000 </r>
       <r>    6.9288    0.0000 </r>
       <r>    8.5700    0.0000 </r>
       <r>    8.7264    0.0000 </r>
       <r>    8.8276    0.0000 </r>
       <r>    9.1412    0.0000 </r>
       <r>    9.6785    0.0000 </r>
       <r>    9.7836    0.0000 </r>
       <r>   10.9316    0.0000 </r>
       <r>   11.1690    0.0000 </r>
       <r>   11.5558    0.0000 </r>
       <r>   11.6027    0.0000 </r>
       <r>   12.0921    0.0000 </r>
       <r>   12.5377    0.0000 </r>
       <r>   13.0174    0.0000 </r>
       <r>   13.3302    0.0000 </r>
       <r>   13.5653    0.0000 </r>
       <r>   13.7199    0.0000 </r>
       <r>   14.5035    0.0000 </r>
       <r>   14.6750    0.0000 </r>
       <r>   14.7841    0.0000 </r>
       <r>   15.0018    0.0000 </r>
       <r>   15.2443    0.0000 </r>
       <r>   15.3411    0.0000 </r>
       <r>   15.4279    0.0000 </r>
       <r>   16.1519    0.0000 </r>
       <r>   16.3306    0.0000 </r>
       <r>   16.5161    0.0000 </r>
       <r>   17.0517    0.0000 </r>
       <r>   17.1718    0.0000 </r>
       <r>   17.5878    0.0000 </r>
       <r>   17.7112    0.0000 </r>
       <r>   18.1410    0.0000 </r>
      </set>
      <set comment="kpoint 2">
       <r>  -18.1196    1.0000 </r>
       <r>  -18.1107    1.0000 </r>
       <r>  -18.0986    1.0000 </r>
       <r>  -18.0968    1.0000 </r>
       <r>  -18.0944    1.0000 </r>
       <r>  -18.0893    1.0000 </r>
       <r>  -18.0890    1.0000 </r>
       <r>  -18.0875    1.0000 </r>
       <r>  -18.0633    1.0000 </r>
       <r>  -18.0620    1.0000 </r>
       <r>  -18.0524    1.0000 </r>
       <r>  -18.0506    1.0000 </r>
       <r>  -18.0469    1.0000 </r>
       <r>  -18.0408    1.0000 </r>
       <r>  -18.0219    1.0000 </r>
       <r>  -18.0136    1.0000 </r>
       <r>  -18.0102    1.0000 </r>
       <r>  -18.0057    1.0000 </r>
       <r>  -18.0003    1.0000 </r>
       <r>  -17.9966    1.0000 </r>
       <r>   -9.8005    1.0000 </r>
       <r>   -9.5454    1.0000 </r>
       <r>   -8.5648    1.0000 </r>
       <r>   -8.2151    1.0000 </r>
       <r>   -2.8606    1.0000 </r>
       <r>   -2.0072    1.0000 </r>
       <r>   -0.7049    1.0000 </r>
       <r>   -0.5899    1.0000 </r>
       <r>   -0.0206    1.0000 </r>
       <r>    1.2482    1.0000 </r>
       <r>    1.3417    1.0000 </r>
       <r>    1.6714    1.0000 </r>
       <r>    1.6813    1.0000 </r>
       <r>    1.9020    1.0000 </r>
       <r>    2.7758    1.0000 </r>
       <r>    2.8419    1.0000 </r>
       <r>    3.0690    1.0000 </r>
       <r>    4.2292    1.0000 </r>
       <r>    4.5863    1.0000 </r>
       <r>    4.7594    1.0000 </r>
       <r>    7.1634    0.0000 </r>
       <r>    7.9021    0.0000 </r>
       <r>    8.8805    0.0000 </r>
       <r>    8.9169    0.0000 </r>
       <r>    9.3064    0.0000 </r>
       <r>    9.3338    0.0000 </r>
       <r>    9.9615    0.0000 </r>
       <r>   10.0339    0.0000 </r>
       <r>   10.1681    0.0000 </r>
       <r>   11.6581    0.0000 </r>
       <r>   11.7147    0.0000 </r>
       <r>   11.7941    0.0000 </r>
       <r>   12.0927    0.0000 </r>
       <r>   12.4557    0.0000 </r>
       <r>   12.6931    0.0000 </r>
       <r>   12.8372    0.0000 </r>
       <r>   12.9612    0.0000 </r>
       <r>   14.3997    0.0000 </r>
       <r>   15.0703    0.0000 </r>
       <r>   15.2414    0.0000 </r>
       <r>   15.4183    0.0000 </r>
       <r>   15.4555    0.0000 </r>
       <r>   15.9912    0.0000 </r>
       <r>   16.4660    0.0000 </r>
       <r>   16.5600    0.0000 </r>
       <r>   17.2116    0.0000 </r>
       <r>   17.3848    0.0000 </r>
       <r>   17.5689    0.0000 </r>
       <r>   18.2015    0.0000 </r>
       <r>   18.4448    0.0000 </r>
       <r>   18.5183    0.0000 </r>
       <r>   18.6196    0.0000 </r>
      </set>
      <set comment="kpoint 3">
       <r>  -18.1131    1.0000 </r>
       <r>  -18.1112    1.0000 </r>
       <r>  -18.1077    1.0000 </r>
       <r>  -18.1076    1.0000 </r>
       <r>  -18.0884    1.0000 </r>
       <r>  -18.0825    1.0000 </r>
       <r>  -18.0813    1.0000 </r>
       <r>  -18.0792    1.0000 </r>
       <r>  -18.0613    1.0000 </r>
       <r>  -18.0599    1.0000 </r>
       <r>  -18.0564    1.0000 </r>
       <r>  -18.0504    1.0000 </r>
       <r>  -18.0472    1.0000 </r>
       <r>  -18.0387    1.0000 </r>
       <r>  -18.0301    1.0000 </r>
       <r>  -18.0277    1.0000 </r>
       <r>  -18.0032    1.0000 </r>
       <r>  -17.9985    1.0000 </r>
       <r>  -17.9970    1.0000 </r>
       <r>  -17.9947    1.0000 </r>
       <r>   -9.2963    1.0000 </r>
       <r>   -9.1024    1.0000 </r>
       <r>   -8.4512    1.0000 </r>
       <r>   -8.2770    1.0000 </r>
       <r>   -3.1878    1.0000 </r>
       <r>   -2.5197    1.0000 </r>
       <r>   -2.0054    1.0000 </r>
       <r>   -1.5783    1.0000 </r>
       <r>    0.4732    1.0000 </r>
       <r>    1.3567    1.0000 </r>
       <r>    1.6387    1.0000 </r>
       <r>    1.9915    1.0000 </r>
       <r>    2.0211    1.0000 </r>
       <r>    2.1257    1.0000 </r>
       <r>    2.6850    1.0000 </r>
       <r>    2.9189    1.0000 </r>
       <r>    3.4329    1.0000 </r>
       <r>    4.1446    1.0000 </r>
       <r>    4.3346    1.0000 </r>
       <r>    4.9055    1.0000 </r>
       <r>    6.6249    0.0000 </r>
       <r>    7.7033    0.0000 </r>
       <r>    7.7495    0.0000 </r>
       <r>    7.8738    0.0000 </r>
       <r>    8.4153    0.0000 </r>
       <r>    8.7733    0.0000 </r>
       <r>    9.1898    0.0000 </r>
       <r>    9.6716    0.0000 </r>
       <r>   10.1246    0.0000 </r>
       <r>   10.4548    0.0000 </r>
       <r>   10.8106    0.0000 </r>
       <r>   11.2849    0.0000 </r>
       <r>   12.5788    0.0000 </r>
       <r>   13.4875    0.0000 </r>
       <r>   13.5170    0.0000 </r>
       <r>   13.6920    0.0000 </r>
       <r>   14.1078    0.0000 </r>
       <r>   14.5881    0.0000 </r>
       <r>   14.6308    0.0000 </r>
       <r>   14.9262    0.0000 </r>
       <r>   15.6671    0.0000 </r>
       <r>   15.9361    0.0000 </r>
       <r>   15.9458    0.0000 </r>
       <r>   16.6902    0.0000 </r>
       <r>   18.2200    0.0000 </r>
       <r>   18.2373    0.0000 </r>
       <r>   18.2902    0.0000 </r>
       <r>   18.6223    0.0000 </r>
       <r>   18.8193    0.0000 </r>
       <r>   19.2856    0.0000 </r>
       <r>   19.4094    0.0000 </r>
       <r>   19.5193    0.0000 </r>
      </set>
      <set comment="kpoint 4">
       <r>  -18.1150    1.0000 </r>
       <r>  -18.1150    1.0000 </r>
       <r>  -18.1123    1.0000 </r>
       <r>  -18.1123    1.0000 </r>
       <r>  -18.0794    1.0000 </r>
       <r>  -18.0794    1.0000 </r>
       <r>  -18.0760    1.0000 </r>
       <r>  -18.0760    1.0000 </r>
       <r>  -18.0598    1.0000 </r>
       <r>  -18.0598    1.0000 </r>
       <r>  -18.0560    1.0000 </r>
       <r>  -18.0560    1.0000 </r>
       <r>  -18.0388    1.0000 </r>
       <r>  -18.0388    1.0000 </r>
       <r>  -18.0357    1.0000 </r>
       <r>  -18.0357    1.0000 </r>
       <r>  -17.9966    1.0000 </r>
       <r>  -17.9966    1.0000 </r>
       <r>  -17.9950    1.0000 </r>
       <r>  -17.9950    1.0000 </r>
       <r>   -8.6757    1.0000 </r>
       <r>   -8.6757    1.0000 </r>
       <r>   -8.6250    1.0000 </r>
       <r>   -8.6250    1.0000 </r>
       <r>   -3.0131    1.0000 </r>
       <r>   -3.0131    1.0000 </r>
       <r>   -2.4184    1.0000 </r>
       <r>   -2.4184    1.0000 </r>
       <r>    1.2373    1.0000 </r>
       <r>    1.2373    1.0000 </r>
       <r>    1.9919    1.0000 </r>
       <r>    1.9919    1.0000 </r>
       <r>    2.2975    1.0000 </r>
       <r>    2.2975    1.0000 </r>
       <r>    2.7859    1.0000 </r>
       <r>    2.7859    1.0000 </r>
       <r>    3.9761    1.0000 </r>
       <r>    3.9761    1.0000 </r>
       <r>    4.1414    1.0000 </r>
       <r>    4.1414    1.0000 </r>
       <r>    7.1614    0.0000 </r>
       <r>    7.1614    0.0000 </r>
       <r>    7.3202    0.0000 </r>
       <r>    7.3202    0.0000 </r>
       <r>    8.2601    0.0000 </r>
       <r>    8.2601    0.0000 </r>
       <r>    8.9560    0.0000 </r>
       <r>    8.9560    0.0000 </r>
       <r>    9.6431    0.0000 </r>
       <r>    9.6431    0.0000 </r>
       <r>   10.8691    0.0000 </r>
       <r>   10.8691    0.0000 </r>
       <r>   13.4226    0.0000 </r>
       <r>   13.4226    0.0000 </r>
       <r>   13.6125    0.0000 </r>
       <r>   13.6125    0.0000 </r>
       <r>   15.2677    0.0000 </r>
       <r>   15.2677    0.0000 </r>
       <r>   15.7910    0.0000 </r>
       <r>   15.7910    0.0000 </r>
       <r>   17.0780    0.0000 </r>
       <r>   17.0780    0.0000 </r>
       <r>   17.1659    0.0000 </r>
       <r>   17.1659    0.0000 </r>
       <r>   17.5321    0.0000 </r>
       <r>   17.5321    0.0000 </r>
       <r>   18.3015    0.0000 </r>
       <r>   18.3015    0.0000 </r>
       <r>   18.3793    0.0000 </r>
       <r>   18.3793    0.0000 </r>
       <r>   18.6417    0.0000 </r>
       <r>   18.6417    0.0000 </r>
      </set>
      <set comment="kpoint 5">
       <r>  -18.1239    1.0000 </r>
       <r>  -18.1121    1.0000 </r>
       <r>  -18.1046    1.0000 </r>
       <r>  -18.0969    1.0000 </r>
       <r>  -18.0948    1.0000 </r>
       <r>  -18.0903    1.0000 </r>
       <r>  -18.0902    1.0000 </r>
       <r>  -18.0851    1.0000 </r>
       <r>  -18.0614    1.0000 </r>
       <r>  -18.0597    1.0000 </r>
       <r>  -18.0510    1.0000 </r>
       <r>  -18.0475    1.0000 </r>
       <r>  -18.0453    1.0000 </r>
       <r>  -18.0420    1.0000 </r>
       <r>  -18.0163    1.0000 </r>
       <r>  -18.0126    1.0000 </r>
       <r>  -18.0088    1.0000 </r>
       <r>  -18.0070    1.0000 </r>
       <r>  -18.0038    1.0000 </r>
       <r>  -17.9998    1.0000 </r>
       <r>   -9.8158    1.0000 </r>
       <r>   -9.5543    1.0000 </r>
       <r>   -8.6835    1.0000 </r>
       <r>   -8.3340    1.0000 </r>
       <r>   -3.1430    1.0000 </r>
       <r>   -1.9742    1.0000 </r>
       <r>   -1.4435    1.0000 </r>
       <r>   -0.6675    1.0000 </r>
       <r>    0.0628    1.0000 </r>
       <r>    1.5860    1.0000 </r>
       <r>    1.7616    1.0000 </r>
       <r>    2.0613    1.0000 </r>
       <r>    2.2112    1.0000 </r>
       <r>    2.4228    1.0000 </r>
       <r>    2.7786    1.0000 </r>
       <r>    3.1284    1.0000 </r>
       <r>    3.5370    1.0000 </r>
       <r>    3.7410    1.0000 </r>
       <r>    4.7420    1.0000 </r>
       <r>    4.8350    1.0000 </r>
       <r>    7.2484    0.0000 </r>
       <r>    7.6698    0.0000 </r>
       <r>    8.6866    0.0000 </r>
       <r>    8.7242    0.0000 </r>
       <r>    8.9007    0.0000 </r>
       <r>    9.0916    0.0000 </r>
       <r>   10.1493    0.0000 </r>
       <r>   10.3193    0.0000 </r>
       <r>   10.3720    0.0000 </r>
       <r>   11.2005    0.0000 </r>
       <r>   11.5755    0.0000 </r>
       <r>   11.6229    0.0000 </r>
       <r>   12.3999    0.0000 </r>
       <r>   12.9549    0.0000 </r>
       <r>   13.0868    0.0000 </r>
       <r>   13.4354    0.0000 </r>
       <r>   13.7322    0.0000 </r>
       <r>   14.0461    0.0000 </r>
       <r>   14.8989    0.0000 </r>
       <r>   15.2618    0.0000 </r>
       <r>   15.4042    0.0000 </r>
       <r>   15.9667    0.0000 </r>
       <r>   16.1957    0.0000 </r>
       <r>   16.8359    0.0000 </r>
       <r>   16.8830    0.0000 </r>
       <r>   16.8928    0.0000 </r>
       <r>   17.3466    0.0000 </r>
       <r>   17.3669    0.0000 </r>
       <r>   17.4995    0.0000 </r>
       <r>   18.1581    0.0000 </r>
       <r>   18.5170    0.0000 </r>
       <r>   19.0962    0.0000 </r>
      </set>
      <set comment="kpoint 6">
       <r>  -18.1178    1.0000 </r>
       <r>  -18.1099    1.0000 </r>
       <r>  -18.1013    1.0000 </r>
       <r>  -18.0985    1.0000 </r>
       <r>  -18.0952    1.0000 </r>
       <r>  -18.0907    1.0000 </r>
       <r>  -18.0894    1.0000 </r>
       <r>  -18.0891    1.0000 </r>
       <r>  -18.0604    1.0000 </r>
       <r>  -18.0579    1.0000 </r>
       <r>  -18.0508    1.0000 </r>
       <r>  -18.0502    1.0000 </r>
       <r>  -18.0473    1.0000 </r>
       <r>  -18.0404    1.0000 </r>
       <r>  -18.0210    1.0000 </r>
       <r>  -18.0143    1.0000 </r>
       <r>  -18.0100    1.0000 </r>
       <r>  -18.0046    1.0000 </r>
       <r>  -18.0025    1.0000 </r>
       <r>  -17.9969    1.0000 </r>
       <r>   -9.6361    1.0000 </r>
       <r>   -9.3918    1.0000 </r>
       <r>   -8.5938    1.0000 </r>
       <r>   -8.2898    1.0000 </r>
       <r>   -3.1045    1.0000 </r>
       <r>   -2.0534    1.0000 </r>
       <r>   -1.4665    1.0000 </r>
       <r>   -0.9144    1.0000 </r>
       <r>    0.1736    1.0000 </r>
       <r>    0.7044    1.0000 </r>
       <r>    1.0071    1.0000 </r>
       <r>    1.9670    1.0000 </r>
       <r>    2.2137    1.0000 </r>
       <r>    2.5502    1.0000 </r>
       <r>    2.6922    1.0000 </r>
       <r>    2.7416    1.0000 </r>
       <r>    3.7192    1.0000 </r>
       <r>    3.8746    1.0000 </r>
       <r>    4.7884    1.0000 </r>
       <r>    4.8733    1.0000 </r>
       <r>    7.4066    0.0000 </r>
       <r>    7.9974    0.0000 </r>
       <r>    8.3184    0.0000 </r>
       <r>    8.3617    0.0000 </r>
       <r>    9.0681    0.0000 </r>
       <r>    9.1054    0.0000 </r>
       <r>   10.0530    0.0000 </r>
       <r>   10.1166    0.0000 </r>
       <r>   10.3816    0.0000 </r>
       <r>   10.8687    0.0000 </r>
       <r>   11.0184    0.0000 </r>
       <r>   12.1093    0.0000 </r>
       <r>   12.2371    0.0000 </r>
       <r>   13.3857    0.0000 </r>
       <r>   13.4785    0.0000 </r>
       <r>   13.7353    0.0000 </r>
       <r>   13.8673    0.0000 </r>
       <r>   14.4733    0.0000 </r>
       <r>   14.7033    0.0000 </r>
       <r>   15.1507    0.0000 </r>
       <r>   15.1849    0.0000 </r>
       <r>   15.4302    0.0000 </r>
       <r>   16.1356    0.0000 </r>
       <r>   16.4436    0.0000 </r>
       <r>   16.6875    0.0000 </r>
       <r>   17.7511    0.0000 </r>
       <r>   17.8917    0.0000 </r>
       <r>   18.0755    0.0000 </r>
       <r>   18.1796    0.0000 </r>
       <r>   18.4437    0.0000 </r>
       <r>   18.7617    0.0000 </r>
       <r>   19.0787    0.0000 </r>
      </set>
      <set comment="kpoint 7">
       <r>  -18.1168    1.0000 </r>
       <r>  -18.1116    1.0000 </r>
       <r>  -18.1110    1.0000 </r>
       <r>  -18.1091    1.0000 </r>
       <r>  -18.0891    1.0000 </r>
       <r>  -18.0824    1.0000 </r>
       <r>  -18.0824    1.0000 </r>
       <r>  -18.0796    1.0000 </r>
       <r>  -18.0595    1.0000 </r>
       <r>  -18.0564    1.0000 </r>
       <r>  -18.0562    1.0000 </r>
       <r>  -18.0493    1.0000 </r>
       <r>  -18.0458    1.0000 </r>
       <r>  -18.0388    1.0000 </r>
       <r>  -18.0286    1.0000 </r>
       <r>  -18.0265    1.0000 </r>
       <r>  -18.0036    1.0000 </r>
       <r>  -17.9992    1.0000 </r>
       <r>  -17.9976    1.0000 </r>
       <r>  -17.9938    1.0000 </r>
       <r>   -9.1595    1.0000 </r>
       <r>   -8.9783    1.0000 </r>
       <r>   -8.4518    1.0000 </r>
       <r>   -8.2930    1.0000 </r>
       <r>   -3.0772    1.0000 </r>
       <r>   -2.3549    1.0000 </r>
       <r>   -1.9758    1.0000 </r>
       <r>   -1.7159    1.0000 </r>
       <r>    0.3087    1.0000 </r>
       <r>    0.6498    1.0000 </r>
       <r>    0.7650    1.0000 </r>
       <r>    1.5051    1.0000 </r>
       <r>    2.0505    1.0000 </r>
       <r>    2.3803    1.0000 </r>
       <r>    2.4609    1.0000 </r>
       <r>    2.8861    1.0000 </r>
       <r>    3.1926    1.0000 </r>
       <r>    4.1240    1.0000 </r>
       <r>    4.2773    1.0000 </r>
       <r>    4.3663    1.0000 </r>
       <r>    7.1210    0.0000 </r>
       <r>    7.6959    0.0000 </r>
       <r>    7.7799    0.0000 </r>
       <r>    8.3141    0.0000 </r>
       <r>    9.1063    0.0000 </r>
       <r>    9.5666    0.0000 </r>
       <r>    9.8851    0.0000 </r>
       <r>   10.2816    0.0000 </r>
       <r>   10.3094    0.0000 </r>
       <r>   10.4143    0.0000 </r>
       <r>   11.4712    0.0000 </r>
       <r>   11.6884    0.0000 </r>
       <r>   12.0729    0.0000 </r>
       <r>   12.8517    0.0000 </r>
       <r>   13.9379    0.0000 </r>
       <r>   14.0040    0.0000 </r>
       <r>   14.2506    0.0000 </r>
       <r>   14.5749    0.0000 </r>
       <r>   15.0106    0.0000 </r>
       <r>   15.4909    0.0000 </r>
       <r>   15.6384    0.0000 </r>
       <r>   16.3188    0.0000 </r>
       <r>   16.7503    0.0000 </r>
       <r>   17.1932    0.0000 </r>
       <r>   17.5038    0.0000 </r>
       <r>   17.9200    0.0000 </r>
       <r>   17.9486    0.0000 </r>
       <r>   18.0349    0.0000 </r>
       <r>   19.1856    0.0000 </r>
       <r>   19.4532    0.0000 </r>
       <r>   19.6431    0.0000 </r>
       <r>   19.9349    0.0000 </r>
      </set>
      <set comment="kpoint 8">
       <r>  -18.1189    1.0000 </r>
       <r>  -18.1189    1.0000 </r>
       <r>  -18.1145    1.0000 </r>
       <r>  -18.1145    1.0000 </r>
       <r>  -18.0804    1.0000 </r>
       <r>  -18.0804    1.0000 </r>
       <r>  -18.0760    1.0000 </r>
       <r>  -18.0760    1.0000 </r>
       <r>  -18.0584    1.0000 </r>
       <r>  -18.0584    1.0000 </r>
       <r>  -18.0538    1.0000 </r>
       <r>  -18.0538    1.0000 </r>
       <r>  -18.0399    1.0000 </r>
       <r>  -18.0399    1.0000 </r>
       <r>  -18.0321    1.0000 </r>
       <r>  -18.0321    1.0000 </r>
       <r>  -17.9982    1.0000 </r>
       <r>  -17.9982    1.0000 </r>
       <r>  -17.9936    1.0000 </r>
       <r>  -17.9936    1.0000 </r>
       <r>   -8.6030    1.0000 </r>
       <r>   -8.6030    1.0000 </r>
       <r>   -8.5613    1.0000 </r>
       <r>   -8.5613    1.0000 </r>
       <r>   -2.8130    1.0000 </r>
       <r>   -2.8130    1.0000 </r>
       <r>   -2.3248    1.0000 </r>
       <r>   -2.3248    1.0000 </r>
       <r>    0.8277    1.0000 </r>
       <r>    0.8277    1.0000 </r>
       <r>    1.2882    1.0000 </r>
       <r>    1.2882    1.0000 </r>
       <r>    1.8230    1.0000 </r>
       <r>    1.8230    1.0000 </r>
       <r>    2.6269    1.0000 </r>
       <r>    2.6269    1.0000 </r>
       <r>    3.1961    1.0000 </r>
       <r>    3.1961    1.0000 </r>
       <r>    4.3369    1.0000 </r>
       <r>    4.3369    1.0000 </r>
       <r>    7.0166    0.0000 </r>
       <r>    7.0166    0.0000 </r>
       <r>    8.2728    0.0000 </r>
       <r>    8.2728    0.0000 </r>
       <r>    9.3761    0.0000 </r>
       <r>    9.3761    0.0000 </r>
       <r>   10.0728    0.0000 </r>
       <r>   10.0728    0.0000 </r>
       <r>   10.4534    0.0000 </r>
       <r>   10.4534    0.0000 </r>
       <r>   10.7353    0.0000 </r>
       <r>   10.7353    0.0000 </r>
       <r>   12.1897    0.0000 </r>
       <r>   12.1897    0.0000 </r>
       <r>   14.0371    0.0000 </r>
       <r>   14.0371    0.0000 </r>
       <r>   15.5424    0.0000 </r>
       <r>   15.5424    0.0000 </r>
       <r>   16.1113    0.0000 </r>
       <r>   16.1113    0.0000 </r>
       <r>   16.7020    0.0000 </r>
       <r>   16.7020    0.0000 </r>
       <r>   17.6395    0.0000 </r>
       <r>   17.6395    0.0000 </r>
       <r>   18.0597    0.0000 </r>
       <r>   18.0597    0.0000 </r>
       <r>   18.4525    0.0000 </r>
       <r>   18.4525    0.0000 </r>
       <r>   18.5907    0.0000 </r>
       <r>   18.5907    0.0000 </r>
       <r>   19.6850    0.0000 </r>
       <r>   19.6851    0.0000 </r>
      </set>
      <set comment="kpoint 9">
       <r>  -18.1169    1.0000 </r>
       <r>  -18.1094    1.0000 </r>
       <r>  -18.1076    1.0000 </r>
       <r>  -18.1015    1.0000 </r>
       <r>  -18.0962    1.0000 </r>
       <r>  -18.0945    1.0000 </r>
       <r>  -18.0901    1.0000 </r>
       <r>  -18.0881    1.0000 </r>
       <r>  -18.0537    1.0000 </r>
       <r>  -18.0515    1.0000 </r>
       <r>  -18.0486    1.0000 </r>
       <r>  -18.0479    1.0000 </r>
       <r>  -18.0460    1.0000 </r>
       <r>  -18.0445    1.0000 </r>
       <r>  -18.0140    1.0000 </r>
       <r>  -18.0106    1.0000 </r>
       <r>  -18.0100    1.0000 </r>
       <r>  -18.0078    1.0000 </r>
       <r>  -18.0059    1.0000 </r>
       <r>  -18.0025    1.0000 </r>
       <r>   -9.3754    1.0000 </r>
       <r>   -9.1345    1.0000 </r>
       <r>   -8.9084    1.0000 </r>
       <r>   -8.6507    1.0000 </r>
       <r>   -3.4346    1.0000 </r>
       <r>   -2.8131    1.0000 </r>
       <r>   -2.1583    1.0000 </r>
       <r>   -1.6422    1.0000 </r>
       <r>    0.6917    1.0000 </r>
       <r>    1.6527    1.0000 </r>
       <r>    2.2710    1.0000 </r>
       <r>    2.5128    1.0000 </r>
       <r>    2.7102    1.0000 </r>
       <r>    2.9488    1.0000 </r>
       <r>    2.9723    1.0000 </r>
       <r>    3.0571    1.0000 </r>
       <r>    3.6277    1.0000 </r>
       <r>    4.5847    1.0000 </r>
       <r>    4.9787    1.0000 </r>
       <r>    5.2149    1.0000 </r>
       <r>    7.2331    0.0000 </r>
       <r>    7.5155    0.0000 </r>
       <r>    7.9291    0.0000 </r>
       <r>    8.1839    0.0000 </r>
       <r>    8.4872    0.0000 </r>
       <r>    8.6263    0.0000 </r>
       <r>    8.9984    0.0000 </r>
       <r>    9.7987    0.0000 </r>
       <r>    9.8588    0.0000 </r>
       <r>   10.3663    0.0000 </r>
       <r>   11.3065    0.0000 </r>
       <r>   12.0060    0.0000 </r>
       <r>   13.0872    0.0000 </r>
       <r>   13.4654    0.0000 </r>
       <r>   13.8806    0.0000 </r>
       <r>   14.2405    0.0000 </r>
       <r>   14.2927    0.0000 </r>
       <r>   14.3064    0.0000 </r>
       <r>   14.9599    0.0000 </r>
       <r>   15.3806    0.0000 </r>
       <r>   15.5049    0.0000 </r>
       <r>   16.0849    0.0000 </r>
       <r>   16.7792    0.0000 </r>
       <r>   16.8532    0.0000 </r>
       <r>   17.1854    0.0000 </r>
       <r>   17.2590    0.0000 </r>
       <r>   17.4783    0.0000 </r>
       <r>   17.7754    0.0000 </r>
       <r>   18.4471    0.0000 </r>
       <r>   18.5250    0.0000 </r>
       <r>   18.7982    0.0000 </r>
       <r>   19.1234    0.0000 </r>
      </set>
      <set comment="kpoint 10">
       <r>  -18.1132    1.0000 </r>
       <r>  -18.1072    1.0000 </r>
       <r>  -18.1071    1.0000 </r>
       <r>  -18.1026    1.0000 </r>
       <r>  -18.0960    1.0000 </r>
       <r>  -18.0944    1.0000 </r>
       <r>  -18.0909    1.0000 </r>
       <r>  -18.0902    1.0000 </r>
       <r>  -18.0550    1.0000 </r>
       <r>  -18.0516    1.0000 </r>
       <r>  -18.0510    1.0000 </r>
       <r>  -18.0475    1.0000 </r>
       <r>  -18.0461    1.0000 </r>
       <r>  -18.0415    1.0000 </r>
       <r>  -18.0187    1.0000 </r>
       <r>  -18.0161    1.0000 </r>
       <r>  -18.0087    1.0000 </r>
       <r>  -18.0060    1.0000 </r>
       <r>  -18.0019    1.0000 </r>
       <r>  -17.9988    1.0000 </r>
       <r>   -9.2200    1.0000 </r>
       <r>   -8.9987    1.0000 </r>
       <r>   -8.7920    1.0000 </r>
       <r>   -8.5615    1.0000 </r>
       <r>   -3.2470    1.0000 </r>
       <r>   -2.6497    1.0000 </r>
       <r>   -2.0573    1.0000 </r>
       <r>   -1.6128    1.0000 </r>
       <r>    0.8185    1.0000 </r>
       <r>    0.9427    1.0000 </r>
       <r>    1.1994    1.0000 </r>
       <r>    1.8116    1.0000 </r>
       <r>    1.9135    1.0000 </r>
       <r>    2.1611    1.0000 </r>
       <r>    2.7979    1.0000 </r>
       <r>    3.1185    1.0000 </r>
       <r>    4.0623    1.0000 </r>
       <r>    4.0804    1.0000 </r>
       <r>    4.6865    1.0000 </r>
       <r>    4.8710    1.0000 </r>
       <r>    7.4386    0.0000 </r>
       <r>    7.8080    0.0000 </r>
       <r>    8.0703    0.0000 </r>
       <r>    8.6297    0.0000 </r>
       <r>    9.2480    0.0000 </r>
       <r>    9.3137    0.0000 </r>
       <r>    9.5826    0.0000 </r>
       <r>   10.0549    0.0000 </r>
       <r>   10.5252    0.0000 </r>
       <r>   10.6847    0.0000 </r>
       <r>   11.1616    0.0000 </r>
       <r>   11.8078    0.0000 </r>
       <r>   12.3773    0.0000 </r>
       <r>   13.0600    0.0000 </r>
       <r>   13.8624    0.0000 </r>
       <r>   14.0161    0.0000 </r>
       <r>   14.4424    0.0000 </r>
       <r>   14.9233    0.0000 </r>
       <r>   15.2764    0.0000 </r>
       <r>   15.9912    0.0000 </r>
       <r>   16.2562    0.0000 </r>
       <r>   16.2849    0.0000 </r>
       <r>   16.7549    0.0000 </r>
       <r>   17.0004    0.0000 </r>
       <r>   17.3076    0.0000 </r>
       <r>   17.6116    0.0000 </r>
       <r>   17.6776    0.0000 </r>
       <r>   17.7866    0.0000 </r>
       <r>   18.0699    0.0000 </r>
       <r>   18.7378    0.0000 </r>
       <r>   18.7690    0.0000 </r>
       <r>   18.9542    0.0000 </r>
      </set>
      <set comment="kpoint 11">
       <r>  -18.1203    1.0000 </r>
       <r>  -18.1181    1.0000 </r>
       <r>  -18.1126    1.0000 </r>
       <r>  -18.1122    1.0000 </r>
       <r>  -18.0886    1.0000 </r>
       <r>  -18.0856    1.0000 </r>
       <r>  -18.0818    1.0000 </r>
       <r>  -18.0807    1.0000 </r>
       <r>  -18.0566    1.0000 </r>
       <r>  -18.0558    1.0000 </r>
       <r>  -18.0510    1.0000 </r>
       <r>  -18.0483    1.0000 </r>
       <r>  -18.0423    1.0000 </r>
       <r>  -18.0397    1.0000 </r>
       <r>  -18.0258    1.0000 </r>
       <r>  -18.0248    1.0000 </r>
       <r>  -18.0035    1.0000 </r>
       <r>  -18.0020    1.0000 </r>
       <r>  -17.9956    1.0000 </r>
       <r>  -17.9940    1.0000 </r>
       <r>   -8.8351    1.0000 </r>
       <r>   -8.6832    1.0000 </r>
       <r>   -8.5478    1.0000 </r>
       <r>   -8.4097    1.0000 </r>
       <r>   -2.8079    1.0000 </r>
       <r>   -2.3484    1.0000 </r>
       <r>   -2.0263    1.0000 </r>
       <r>   -1.8281    1.0000 </r>
       <r>   -0.1206    1.0000 </r>
       <r>    0.4504    1.0000 </r>
       <r>    0.4977    1.0000 </r>
       <r>    1.1373    1.0000 </r>
       <r>    1.2298    1.0000 </r>
       <r>    1.9368    1.0000 </r>
       <r>    1.9777    1.0000 </r>
       <r>    2.6135    1.0000 </r>
       <r>    2.9054    1.0000 </r>
       <r>    3.4333    1.0000 </r>
       <r>    4.0509    1.0000 </r>
       <r>    4.1670    1.0000 </r>
       <r>    7.3088    0.0000 </r>
       <r>    8.5423    0.0000 </r>
       <r>    9.0831    0.0000 </r>
       <r>    9.2225    0.0000 </r>
       <r>   10.0456    0.0000 </r>
       <r>   10.1493    0.0000 </r>
       <r>   10.4698    0.0000 </r>
       <r>   10.8433    0.0000 </r>
       <r>   10.8710    0.0000 </r>
       <r>   11.1594    0.0000 </r>
       <r>   11.6520    0.0000 </r>
       <r>   12.0248    0.0000 </r>
       <r>   12.0752    0.0000 </r>
       <r>   12.1138    0.0000 </r>
       <r>   13.5588    0.0000 </r>
       <r>   13.9186    0.0000 </r>
       <r>   15.3900    0.0000 </r>
       <r>   15.5650    0.0000 </r>
       <r>   15.8930    0.0000 </r>
       <r>   16.1347    0.0000 </r>
       <r>   16.4338    0.0000 </r>
       <r>   16.5462    0.0000 </r>
       <r>   17.0474    0.0000 </r>
       <r>   17.2012    0.0000 </r>
       <r>   17.6495    0.0000 </r>
       <r>   17.8039    0.0000 </r>
       <r>   18.0410    0.0000 </r>
       <r>   18.0831    0.0000 </r>
       <r>   18.7211    0.0000 </r>
       <r>   19.0408    0.0000 </r>
       <r>   19.8037    0.0000 </r>
       <r>   19.9372    0.0000 </r>
      </set>
      <set comment="kpoint 12">
       <r>  -18.1250    1.0000 </r>
       <r>  -18.1249    1.0000 </r>
       <r>  -18.1182    1.0000 </r>
       <r>  -18.1181    1.0000 </r>
       <r>  -18.0819    1.0000 </r>
       <r>  -18.0819    1.0000 </r>
       <r>  -18.0761    1.0000 </r>
       <r>  -18.0761    1.0000 </r>
       <r>  -18.0563    1.0000 </r>
       <r>  -18.0563    1.0000 </r>
       <r>  -18.0513    1.0000 </r>
       <r>  -18.0513    1.0000 </r>
       <r>  -18.0394    1.0000 </r>
       <r>  -18.0394    1.0000 </r>
       <r>  -18.0280    1.0000 </r>
       <r>  -18.0280    1.0000 </r>
       <r>  -17.9996    1.0000 </r>
       <r>  -17.9996    1.0000 </r>
       <r>  -17.9925    1.0000 </r>
       <r>  -17.9925    1.0000 </r>
       <r>   -8.4745    1.0000 </r>
       <r>   -8.4745    1.0000 </r>
       <r>   -8.4574    1.0000 </r>
       <r>   -8.4574    1.0000 </r>
       <r>   -2.3917    1.0000 </r>
       <r>   -2.3917    1.0000 </r>
       <r>   -2.2018    1.0000 </r>
       <r>   -2.2018    1.0000 </r>
       <r>    0.0773    1.0000 </r>
       <r>    0.0773    1.0000 </r>
       <r>    0.7465    1.0000 </r>
       <r>    0.7465    1.0000 </r>
       <r>    1.1989    1.0000 </r>
       <r>    1.1989    1.0000 </r>
       <r>    1.8302    1.0000 </r>
       <r>    1.8302    1.0000 </r>
       <r>    2.8288    1.0000 </r>
       <r>    2.8288    1.0000 </r>
       <r>    3.8583    1.0000 </r>
       <r>    3.8583    1.0000 </r>
       <r>    8.1746    0.0000 </r>
       <r>    8.1746    0.0000 </r>
       <r>    9.1647    0.0000 </r>
       <r>    9.1647    0.0000 </r>
       <r>   10.2524    0.0000 </r>
       <r>   10.2524    0.0000 </r>
       <r>   10.4755    0.0000 </r>
       <r>   10.4755    0.0000 </r>
       <r>   11.3624    0.0000 </r>
       <r>   11.3624    0.0000 </r>
       <r>   12.3105    0.0000 </r>
       <r>   12.3105    0.0000 </r>
       <r>   12.4079    0.0000 </r>
       <r>   12.4079    0.0000 </r>
       <r>   13.5937    0.0000 </r>
       <r>   13.5937    0.0000 </r>
       <r>   15.3498    0.0000 </r>
       <r>   15.3498    0.0000 </r>
       <r>   16.3763    0.0000 </r>
       <r>   16.3763    0.0000 </r>
       <r>   16.9993    0.0000 </r>
       <r>   16.9993    0.0000 </r>
       <r>   17.8418    0.0000 </r>
       <r>   17.8418    0.0000 </r>
       <r>   18.5776    0.0000 </r>
       <r>   18.5776    0.0000 </r>
       <r>   18.6465    0.0000 </r>
       <r>   18.6465    0.0000 </r>
       <r>   18.9736    0.0000 </r>
       <r>   18.9736    0.0000 </r>
       <r>   19.1663    0.0000 </r>
       <r>   19.1666    0.0000 </r>
      </set>
      <set comment="kpoint 13">
       <r>  -18.1214    1.0000 </r>
       <r>  -18.1214    1.0000 </r>
       <r>  -18.0983    1.0000 </r>
       <r>  -18.0983    1.0000 </r>
       <r>  -18.0924    1.0000 </r>
       <r>  -18.0924    1.0000 </r>
       <r>  -18.0852    1.0000 </r>
       <r>  -18.0852    1.0000 </r>
       <r>  -18.0642    1.0000 </r>
       <r>  -18.0642    1.0000 </r>
       <r>  -18.0474    1.0000 </r>
       <r>  -18.0474    1.0000 </r>
       <r>  -18.0471    1.0000 </r>
       <r>  -18.0471    1.0000 </r>
       <r>  -18.0149    1.0000 </r>
       <r>  -18.0149    1.0000 </r>
       <r>  -18.0039    1.0000 </r>
       <r>  -18.0039    1.0000 </r>
       <r>  -18.0037    1.0000 </r>
       <r>  -18.0037    1.0000 </r>
       <r>   -9.8700    1.0000 </r>
       <r>   -9.8700    1.0000 </r>
       <r>   -8.4274    1.0000 </r>
       <r>   -8.4274    1.0000 </r>
       <r>   -2.3524    1.0000 </r>
       <r>   -2.3524    1.0000 </r>
       <r>    0.0399    1.0000 </r>
       <r>    0.0399    1.0000 </r>
       <r>    0.4235    1.0000 </r>
       <r>    0.4235    1.0000 </r>
       <r>    1.6893    1.0000 </r>
       <r>    1.6893    1.0000 </r>
       <r>    1.8860    1.0000 </r>
       <r>    1.8860    1.0000 </r>
       <r>    2.8762    1.0000 </r>
       <r>    2.8762    1.0000 </r>
       <r>    2.9624    1.0000 </r>
       <r>    2.9624    1.0000 </r>
       <r>    4.6350    1.0000 </r>
       <r>    4.6350    1.0000 </r>
       <r>    8.3591    0.0000 </r>
       <r>    8.3591    0.0000 </r>
       <r>    8.5124    0.0000 </r>
       <r>    8.5124    0.0000 </r>
       <r>    9.8487    0.0000 </r>
       <r>    9.8487    0.0000 </r>
       <r>   10.1250    0.0000 </r>
       <r>   10.1250    0.0000 </r>
       <r>   10.8460    0.0000 </r>
       <r>   10.8460    0.0000 </r>
       <r>   12.0784    0.0000 </r>
       <r>   12.0784    0.0000 </r>
       <r>   12.3516    0.0000 </r>
       <r>   12.3516    0.0000 </r>
       <r>   13.6255    0.0000 </r>
       <r>   13.6255    0.0000 </r>
       <r>   14.1963    0.0000 </r>
       <r>   14.1963    0.0000 </r>
       <r>   14.4316    0.0000 </r>
       <r>   14.4316    0.0000 </r>
       <r>   14.7778    0.0000 </r>
       <r>   14.7778    0.0000 </r>
       <r>   15.4720    0.0000 </r>
       <r>   15.4720    0.0000 </r>
       <r>   16.9010    0.0000 </r>
       <r>   16.9010    0.0000 </r>
       <r>   16.9520    0.0000 </r>
       <r>   16.9520    0.0000 </r>
       <r>   17.1653    0.0000 </r>
       <r>   17.1653    0.0000 </r>
       <r>   18.8983    0.0000 </r>
       <r>   18.8983    0.0000 </r>
      </set>
      <set comment="kpoint 14">
       <r>  -18.1155    1.0000 </r>
       <r>  -18.1155    1.0000 </r>
       <r>  -18.0978    1.0000 </r>
       <r>  -18.0978    1.0000 </r>
       <r>  -18.0917    1.0000 </r>
       <r>  -18.0917    1.0000 </r>
       <r>  -18.0880    1.0000 </r>
       <r>  -18.0880    1.0000 </r>
       <r>  -18.0618    1.0000 </r>
       <r>  -18.0618    1.0000 </r>
       <r>  -18.0525    1.0000 </r>
       <r>  -18.0525    1.0000 </r>
       <r>  -18.0440    1.0000 </r>
       <r>  -18.0440    1.0000 </r>
       <r>  -18.0185    1.0000 </r>
       <r>  -18.0185    1.0000 </r>
       <r>  -18.0057    1.0000 </r>
       <r>  -18.0057    1.0000 </r>
       <r>  -17.9995    1.0000 </r>
       <r>  -17.9995    1.0000 </r>
       <r>   -9.6899    1.0000 </r>
       <r>   -9.6899    1.0000 </r>
       <r>   -8.3727    1.0000 </r>
       <r>   -8.3727    1.0000 </r>
       <r>   -2.5439    1.0000 </r>
       <r>   -2.5439    1.0000 </r>
       <r>   -0.5617    1.0000 </r>
       <r>   -0.5617    1.0000 </r>
       <r>    0.6057    1.0000 </r>
       <r>    0.6057    1.0000 </r>
       <r>    1.4315    1.0000 </r>
       <r>    1.4315    1.0000 </r>
       <r>    2.1101    1.0000 </r>
       <r>    2.1101    1.0000 </r>
       <r>    2.7328    1.0000 </r>
       <r>    2.7328    1.0000 </r>
       <r>    3.2374    1.0000 </r>
       <r>    3.2374    1.0000 </r>
       <r>    4.7275    1.0000 </r>
       <r>    4.7275    1.0000 </r>
       <r>    8.2225    0.0000 </r>
       <r>    8.2225    0.0000 </r>
       <r>    8.8067    0.0000 </r>
       <r>    8.8067    0.0000 </r>
       <r>    9.1878    0.0000 </r>
       <r>    9.1878    0.0000 </r>
       <r>    9.8047    0.0000 </r>
       <r>    9.8047    0.0000 </r>
       <r>   11.0210    0.0000 </r>
       <r>   11.0210    0.0000 </r>
       <r>   11.4647    0.0000 </r>
       <r>   11.4647    0.0000 </r>
       <r>   12.1704    0.0000 </r>
       <r>   12.1704    0.0000 </r>
       <r>   12.6585    0.0000 </r>
       <r>   12.6585    0.0000 </r>
       <r>   13.4201    0.0000 </r>
       <r>   13.4201    0.0000 </r>
       <r>   15.0254    0.0000 </r>
       <r>   15.0254    0.0000 </r>
       <r>   16.0957    0.0000 </r>
       <r>   16.0957    0.0000 </r>
       <r>   16.4161    0.0000 </r>
       <r>   16.4161    0.0000 </r>
       <r>   17.2162    0.0000 </r>
       <r>   17.2162    0.0000 </r>
       <r>   17.3302    0.0000 </r>
       <r>   17.3302    0.0000 </r>
       <r>   18.6278    0.0000 </r>
       <r>   18.6278    0.0000 </r>
       <r>   18.8313    0.0000 </r>
       <r>   18.8314    0.0000 </r>
      </set>
      <set comment="kpoint 15">
       <r>  -18.1125    1.0000 </r>
       <r>  -18.1125    1.0000 </r>
       <r>  -18.1072    1.0000 </r>
       <r>  -18.1072    1.0000 </r>
       <r>  -18.0862    1.0000 </r>
       <r>  -18.0862    1.0000 </r>
       <r>  -18.0798    1.0000 </r>
       <r>  -18.0798    1.0000 </r>
       <r>  -18.0585    1.0000 </r>
       <r>  -18.0585    1.0000 </r>
       <r>  -18.0567    1.0000 </r>
       <r>  -18.0567    1.0000 </r>
       <r>  -18.0414    1.0000 </r>
       <r>  -18.0414    1.0000 </r>
       <r>  -18.0291    1.0000 </r>
       <r>  -18.0291    1.0000 </r>
       <r>  -18.0008    1.0000 </r>
       <r>  -18.0008    1.0000 </r>
       <r>  -17.9958    1.0000 </r>
       <r>  -17.9958    1.0000 </r>
       <r>   -9.2109    1.0000 </r>
       <r>   -9.2109    1.0000 </r>
       <r>   -8.3520    1.0000 </r>
       <r>   -8.3520    1.0000 </r>
       <r>   -2.9076    1.0000 </r>
       <r>   -2.9076    1.0000 </r>
       <r>   -1.8000    1.0000 </r>
       <r>   -1.8000    1.0000 </r>
       <r>    1.1567    1.0000 </r>
       <r>    1.1567    1.0000 </r>
       <r>    1.5190    1.0000 </r>
       <r>    1.5190    1.0000 </r>
       <r>    2.4258    1.0000 </r>
       <r>    2.4258    1.0000 </r>
       <r>    2.6716    1.0000 </r>
       <r>    2.6716    1.0000 </r>
       <r>    3.5065    1.0000 </r>
       <r>    3.5065    1.0000 </r>
       <r>    4.5793    1.0000 </r>
       <r>    4.5793    1.0000 </r>
       <r>    7.1612    0.0000 </r>
       <r>    7.1612    0.0000 </r>
       <r>    8.2422    0.0000 </r>
       <r>    8.2422    0.0000 </r>
[...]
        <r>  0.0005  0.0075  0.0020  0.0979  0.0119  0.0006  0.0002  0.0017  0.0000 </r>
        <r>  0.0096  0.0050  0.0028  0.0010  0.0000  0.0020  0.0023  0.0001  0.0001 </r>
        <r>  0.0026  0.0001  0.0149  0.0001  0.0000  0.0000  0.0000  0.0000  0.0000 </r>
        <r>  0.0002  0.0090  0.0007  0.0382  0.0000  0.0000  0.0000  0.0000  0.0000 </r>
        <r>  0.0002  0.0006  0.0015  0.0052  0.0000  0.0000  0.0000  0.0000  0.0000 </r>
        <r>  0.0017  0.1195  0.0132  0.0033  0.0000  0.0000  0.0000  0.0000  0.0000 </r>
       </set>
       <set comment="band 49">
        <r>  0.0002  0.0020  0.0015  0.0338  0.0016  0.0001  0.0000  0.0016  0.0000 </r>
        <r>  0.0141  0.1680  0.0225  0.0033  0.0005  0.0016  0.0051  0.0001  0.0005 </r>
        <r>  0.0000  0.0001  0.0129  0.0003  0.0000  0.0020  0.0004  0.0001  0.0000 </r>
        <r>  0.0006  0.0071  0.0004  0.0322  0.0073  0.0001  0.0003  0.0021  0.0000 </r>
        <r>  0.0002  0.0040  0.0001  0.1757  0.0000  0.0000  0.0000  0.0000  0.0000 </r>
        <r>  0.0014  0.0184  0.0059  0.0016  0.0000  0.0000  0.0000  0.0000  0.0000 </r>
        <r>  0.0022  0.0572  0.0060  0.0079  0.0000  0.0000  0.0000  0.0000  0.0000 </r>
        <r>  0.0000  0.0001  0.0006  0.0013  0.0000  0.0000  0.0000  0.0000  0.0000 </r>
       </set>
       <set comment="band 50">
        <r>  0.0019  0.0188  0.0242  0.0018  0.0001  0.0017  0.0001  0.0001  0.0002 </r>
        <r>  0.0007  0.0089  0.0012  0.0544  0.0088  0.0001  0.0003  0.0028  0.0000 </r>
        <r>  0.0000  0.0000  0.0007  0.0117  0.0001  0.0001  0.0000  0.0010  0.0000 </r>
        <r>  0.0122  0.1496  0.0113  0.0017  0.0004  0.0019  0.0054  0.0001  0.0004 </r>
        <r>  0.0030  0.0734  0.0026  0.0093  0.0000  0.0000  0.0000  0.0000  0.0000 </r>
        <r>  0.0001  0.0009  0.0003  0.0138  0.0000  0.0000  0.0000  0.0000  0.0000 </r>
        <r>  0.0001  0.0031  0.0003  0.1635  0.0000  0.0000  0.0000  0.0000  0.0000 </r>
        <r>  0.0006  0.0023  0.0093  0.0001  0.0000  0.0000  0.0000  0.0000  0.0000 </r>
       </set>
       <set comment="band 51">
        <r>  0.0124  0.1527  0.0113  0.0006  0.0002  0.0020  0.0056  0.0000  0.0004 </r>
        <r>  0.0000  0.0002  0.0003  0.0116  0.0001  0.0000  0.0000  0.0010  0.0000 </r>
        <r>  0.0004  0.0041  0.0006  0.0563  0.0090  0.0001  0.0001  0.0028  0.0000 </r>
        <r>  0.0020  0.0202  0.0251  0.0011  0.0001  0.0017  0.0001  0.0001  0.0002 </r>
        <r>  0.0006  0.0022  0.0096  0.0003  0.0000  0.0000  0.0000  0.0000  0.0000 </r>
        <r>  0.0001  0.0012  0.0002  0.1671  0.0000  0.0000  0.0000  0.0000  0.0000 </r>
        <r>  0.0000  0.0008  0.0001  0.0149  0.0000  0.0000  0.0000  0.0000  0.0000 </r>
        <r>  0.0031  0.0755  0.0026  0.0043  0.0000  0.0000  0.0000  0.0000  0.0000 </r>
       </set>
       <set comment="band 52">
        <r>  0.0003  0.0038  0.0003  0.0334  0.0075  0.0000  0.0001  0.0022  0.0000 </r>
        <r>  0.0000  0.0001  0.0133  0.0003  0.0000  0.0020  0.0004  0.0000  0.0000 </r>
        <r>  0.0145  0.1730  0.0232  0.0013  0.0002  0.0016  0.0053  0.0001  0.0005 </r>
        <r>  0.0000  0.0004  0.0006  0.0346  0.0016  0.0000  0.0000  0.0016  0.0000 </r>
        <r>  0.0000  0.0001  0.0002  0.0013  0.0000  0.0000  0.0000  0.0000  0.0000 </r>
        <r>  0.0022  0.0592  0.0062  0.0041  0.0000  0.0000  0.0000  0.0000  0.0000 </r>
        <r>  0.0014  0.0186  0.0061  0.0003  0.0000  0.0000  0.0000  0.0000  0.0000 </r>
        <r>  0.0001  0.0018  0.0001  0.1809  0.0000  0.0000  0.0000  0.0000  0.0000 </r>
       </set>
       <set comment="band 53">
        <r>  0.0000  0.0005  0.0025  0.0398  0.0005  0.0001  0.0001  0.0044  0.0000 </r>
        <r>  0.0036  0.0166  0.0438  0.0012  0.0000  0.0163  0.0170  0.0001  0.0001 </r>
        <r>  0.0028  0.0072  0.0698  0.0001  0.0000  0.0067  0.0019  0.0005  0.0002 </r>
        <r>  0.0001  0.0001  0.0002  0.0151  0.0018  0.0005  0.0003  0.0194  0.0000 </r>
        <r>  0.0001  0.0003  0.0001  0.0345  0.0000  0.0000  0.0000  0.0000  0.0000 </r>
        <r>  0.0071  0.0054  0.0073  0.0005  0.0000  0.0000  0.0000  0.0000  0.0000 </r>
        <r>  0.0002  0.0065  0.0452  0.0003  0.0000  0.0000  0.0000  0.0000  0.0000 </r>
        <r>  0.0001  0.0000  0.0011  0.0000  0.0000  0.0000  0.0000  0.0000  0.0000 </r>
       </set>
       <set comment="band 54">
        <r>  0.0019  0.0120  0.0769  0.0011  0.0000  0.0060  0.0010  0.0000  0.0002 </r>
        <r>  0.0000  0.0003  0.0021  0.0175  0.0017  0.0001  0.0001  0.0197  0.0000 </r>
        <r>  0.0001  0.0002  0.0002  0.0375  0.0006  0.0004  0.0002  0.0043  0.0000 </r>
        <r>  0.0045  0.0119  0.0371  0.0000  0.0000  0.0170  0.0179  0.0005  0.0002 </r>
        <r>  0.0005  0.0085  0.0395  0.0004  0.0000  0.0000  0.0000  0.0000  0.0000 </r>
        <r>  0.0001  0.0002  0.0002  0.0012  0.0000  0.0000  0.0000  0.0000  0.0000 </r>
        <r>  0.0001  0.0001  0.0009  0.0334  0.0000  0.0000  0.0000  0.0000  0.0000 </r>
        <r>  0.0069  0.0034  0.0132  0.0003  0.0000  0.0000  0.0000  0.0000  0.0000 </r>
       </set>
       <set comment="band 55">
        <r>  0.0039  0.0105  0.0289  0.0031  0.0003  0.0151  0.0155  0.0032  0.0002 </r>
        <r>  0.0003  0.0021  0.0131  0.0308  0.0005  0.0009  0.0002  0.0042  0.0000 </r>
        <r>  0.0008  0.0018  0.0058  0.0163  0.0014  0.0029  0.0030  0.0163  0.0000 </r>
        <r>  0.0016  0.0100  0.0685  0.0060  0.0001  0.0046  0.0007  0.0008  0.0001 </r>
        <r>  0.0060  0.0029  0.0117  0.0003  0.0000  0.0000  0.0000  0.0000  0.0000 </r>
        <r>  0.0001  0.0015  0.0063  0.0287  0.0000  0.0000  0.0000  0.0000  0.0000 </r>
        <r>  0.0011  0.0005  0.0025  0.0009  0.0000  0.0000  0.0000  0.0000  0.0000 </r>
        <r>  0.0003  0.0073  0.0333  0.0054  0.0000  0.0000  0.0000  0.0000  0.0000 </r>
       </set>
       <set comment="band 56">
        <r>  0.0007  0.0014  0.0080  0.0121  0.0015  0.0023  0.0026  0.0168  0.0000 </r>
        <r>  0.0026  0.0054  0.0572  0.0066  0.0001  0.0062  0.0020  0.0004  0.0002 </r>
        <r>  0.0029  0.0152  0.0405  0.0023  0.0003  0.0135  0.0142  0.0034  0.0001 </r>
        <r>  0.0003  0.0025  0.0105  0.0351  0.0004  0.0015  0.0005  0.0038  0.0000 </r>
        <r>  0.0010  0.0005  0.0025  0.0001  0.0000  0.0000  0.0000  0.0000  0.0000 </r>
        <r>  0.0002  0.0051  0.0400  0.0049  0.0000  0.0000  0.0000  0.0000  0.0000 </r>
        <r>  0.0061  0.0051  0.0052  0.0007  0.0000  0.0000  0.0000  0.0000  0.0000 </r>
        <r>  0.0002  0.0014  0.0061  0.0296  0.0000  0.0000  0.0000  0.0000  0.0000 </r>
       </set>
       <set comment="band 57">
        <r>  0.0000  0.0004  0.0000  0.0064  0.0008  0.0000  0.0000  0.0005  0.0000 </r>
        <r>  0.0076  0.0728  0.0148  0.0001  0.0000  0.0185  0.0175  0.0001  0.0049 </r>
        <r>  0.0034  0.0142  0.0056  0.0000  0.0000  0.0056  0.0033  0.0001  0.0002 </r>
        <r>  0.0000  0.0001  0.0001  0.0082  0.0086  0.0001  0.0001  0.0182  0.0000 </r>
        <r>  0.0000  0.0000  0.0000  0.0044  0.0000  0.0000  0.0000  0.0000  0.0000 </r>
        <r>  0.0055  0.0005  0.0060  0.0000  0.0000  0.0000  0.0000  0.0000  0.0000 </r>
        <r>  0.0039  0.0053  0.0019  0.0000  0.0000  0.0000  0.0000  0.0000  0.0000 </r>
        <r>  0.0000  0.0000  0.0000  0.0015  0.0000  0.0000  0.0000  0.0000  0.0000 </r>
       </set>
       <set comment="band 58">
        <r>  0.0045  0.0344  0.0018  0.0000  0.0000  0.0013  0.0010  0.0000  0.0011 </r>
        <r>  0.0000  0.0004  0.0001  0.0101  0.0090  0.0001  0.0001  0.0159  0.0000 </r>
        <r>  0.0000  0.0001  0.0000  0.0046  0.0004  0.0000  0.0000  0.0029  0.0000 </r>
        <r>  0.0065  0.0527  0.0186  0.0000  0.0000  0.0227  0.0199  0.0001  0.0041 </r>
        <r>  0.0052  0.0058  0.0005  0.0000  0.0000  0.0000  0.0000  0.0000  0.0000 </r>
        <r>  0.0000  0.0000  0.0000  0.0029  0.0000  0.0000  0.0000  0.0000  0.0000 </r>
        <r>  0.0000  0.0000  0.0000  0.0030  0.0000  0.0000  0.0000  0.0000  0.0000 </r>
        <r>  0.0042  0.0000  0.0075  0.0000  0.0000  0.0000  0.0000  0.0000  0.0000 </r>
       </set>
       <set comment="band 59">
        <r>  0.0066  0.0526  0.0187  0.0000  0.0000  0.0228  0.0199  0.0000  0.0041 </r>
        <r>  0.0000  0.0001  0.0000  0.0046  0.0004  0.0000  0.0000  0.0029  0.0000 </r>
        <r>  0.0000  0.0001  0.0000  0.0101  0.0090  0.0000  0.0000  0.0159  0.0000 </r>
        <r>  0.0045  0.0347  0.0018  0.0000  0.0000  0.0013  0.0010  0.0000  0.0011 </r>
        <r>  0.0042  0.0000  0.0075  0.0000  0.0000  0.0000  0.0000  0.0000  0.0000 </r>
        <r>  0.0000  0.0000  0.0000  0.0030  0.0000  0.0000  0.0000  0.0000  0.0000 </r>
        <r>  0.0000  0.0000  0.0000  0.0029  0.0000  0.0000  0.0000  0.0000  0.0000 </r>
        <r>  0.0053  0.0058  0.0005  0.0000  0.0000  0.0000  0.0000  0.0000  0.0000 </r>
       </set>
       <set comment="band 60">
        <r>  0.0000  0.0001  0.0000  0.0082  0.0087  0.0000  0.0000  0.0183  0.0000 </r>
        <r>  0.0034  0.0142  0.0056  0.0000  0.0000  0.0056  0.0034  0.0000  0.0002 </r>
        <r>  0.0077  0.0732  0.0149  0.0000  0.0000  0.0185  0.0176  0.0000  0.0049 </r>
        <r>  0.0000  0.0000  0.0000  0.0065  0.0008  0.0000  0.0000  0.0005  0.0000 </r>
        <r>  0.0000  0.0000  0.0000  0.0015  0.0000  0.0000  0.0000  0.0000  0.0000 </r>
        <r>  0.0040  0.0053  0.0019  0.0000  0.0000  0.0000  0.0000  0.0000  0.0000 </r>
        <r>  0.0055  0.0005  0.0061  0.0000  0.0000  0.0000  0.0000  0.0000  0.0000 </r>
        <r>  0.0000  0.0000  0.0000  0.0044  0.0000  0.0000  0.0000  0.0000  0.0000 </r>
       </set>
       <set comment="band 61">
        <r>  0.0006  0.0116  0.0018  0.0001  0.0002  0.0012  0.0009  0.0001  0.0007 </r>
        <r>  0.0001  0.0003  0.0000  0.0313  0.0446  0.0000  0.0000  0.0102  0.0000 </r>
        <r>  0.0000  0.0001  0.0000  0.0001  0.0005  0.0000  0.0000  0.0007  0.0000 </r>
        <r>  0.0097  0.0239  0.0026  0.0002  0.0002  0.0046  0.0048  0.0000  0.0006 </r>
        <r>  0.0289  0.0243  0.0017  0.0001  0.0000  0.0000  0.0000  0.0000  0.0000 </r>
        <r>  0.0002  0.0001  0.0002  0.0021  0.0000  0.0000  0.0000  0.0000  0.0000 </r>
        <r>  0.0001  0.0001  0.0000  0.0070  0.0000  0.0000  0.0000  0.0000  0.0000 </r>
        <r>  0.0014  0.0003  0.0198  0.0000  0.0000  0.0000  0.0000  0.0000  0.0000 </r>
       </set>
       <set comment="band 62">
        <r>  0.0000  0.0000  0.0000  0.0050  0.0128  0.0000  0.0000  0.0042  0.0000 </r>
        <r>  0.0082  0.0323  0.0009  0.0003  0.0004  0.0043  0.0045  0.0001  0.0001 </r>
        <r>  0.0021  0.0031  0.0036  0.0001  0.0001  0.0015  0.0012  0.0000  0.0012 </r>
        <r>  0.0001  0.0004  0.0000  0.0264  0.0322  0.0001  0.0000  0.0067  0.0000 </r>
        <r>  0.0002  0.0002  0.0000  0.0079  0.0000  0.0000  0.0000  0.0000  0.0000 </r>
        <r>  0.0119  0.0070  0.0208  0.0000  0.0000  0.0000  0.0000  0.0000  0.0000 </r>
        <r>  0.0184  0.0176  0.0007  0.0001  0.0000  0.0000  0.0000  0.0000  0.0000 </r>
        <r>  0.0001  0.0001  0.0002  0.0012  0.0000  0.0000  0.0000  0.0000  0.0000 </r>
       </set>
       <set comment="band 63">
        <r>  0.0000  0.0001  0.0000  0.0266  0.0325  0.0000  0.0000  0.0068  0.0000 </r>
        <r>  0.0021  0.0032  0.0036  0.0000  0.0001  0.0015  0.0012  0.0000  0.0013 </r>
        <r>  0.0083  0.0326  0.0009  0.0000  0.0000  0.0043  0.0045  0.0000  0.0001 </r>
        <r>  0.0000  0.0000  0.0000  0.0051  0.0129  0.0000  0.0000  0.0042  0.0000 </r>
        <r>  0.0000  0.0000  0.0000  0.0012  0.0000  0.0000  0.0000  0.0000  0.0000 </r>
        <r>  0.0186  0.0177  0.0007  0.0000  0.0000  0.0000  0.0000  0.0000  0.0000 </r>
        <r>  0.0120  0.0071  0.0210  0.0000  0.0000  0.0000  0.0000  0.0000  0.0000 </r>
        <r>  0.0000  0.0000  0.0000  0.0080  0.0000  0.0000  0.0000  0.0000  0.0000 </r>
       </set>
       <set comment="band 64">
        <r>  0.0098  0.0242  0.0026  0.0000  0.0000  0.0046  0.0048  0.0000  0.0006 </r>
        <r>  0.0000  0.0001  0.0000  0.0001  0.0005  0.0000  0.0000  0.0007  0.0000 </r>
        <r>  0.0000  0.0000  0.0000  0.0315  0.0449  0.0000  0.0000  0.0103  0.0000 </r>
        <r>  0.0006  0.0115  0.0019  0.0001  0.0001  0.0012  0.0009  0.0000  0.0008 </r>
        <r>  0.0014  0.0003  0.0199  0.0000  0.0000  0.0000  0.0000  0.0000  0.0000 </r>
        <r>  0.0000  0.0000  0.0001  0.0070  0.0000  0.0000  0.0000  0.0000  0.0000 </r>
        <r>  0.0001  0.0001  0.0000  0.0021  0.0000  0.0000  0.0000  0.0000  0.0000 </r>
        <r>  0.0291  0.0245  0.0017  0.0000  0.0000  0.0000  0.0000  0.0000  0.0000 </r>
       </set>
       <set comment="band 65">
        <r>  0.0002  0.0001  0.0001  0.0007  0.0047  0.0002  0.0002  0.0015  0.0001 </r>
        <r>  0.0338  0.0266  0.0026  0.0001  0.0001  0.0076  0.0025  0.0000  0.0214 </r>
        <r>  0.0009  0.0065  0.0072  0.0001  0.0000  0.0048  0.0206  0.0001  0.0003 </r>
        <r>  0.0003  0.0004  0.0001  0.0153  0.0036  0.0000  0.0001  0.0089  0.0002 </r>
        <r>  0.0000  0.0000  0.0000  0.0404  0.0000  0.0000  0.0000  0.0000  0.0000 </r>
        <r>  0.0015  0.0000  0.0001  0.0002  0.0000  0.0000  0.0000  0.0000  0.0000 </r>
        <r>  0.0024  0.0031  0.0004  0.0004  0.0000  0.0000  0.0000  0.0000  0.0000 </r>
        <r>  0.0000  0.0000  0.0000  0.0003  0.0000  0.0000  0.0000  0.0000  0.0000 </r>
       </set>
       <set comment="band 66">
        <r>  0.0040  0.0090  0.0056  0.0000  0.0001  0.0053  0.0182  0.0000  0.0016 </r>
        <r>  0.0004  0.0003  0.0000  0.0143  0.0028  0.0001  0.0000  0.0083  0.0002 </r>
        <r>  0.0000  0.0001  0.0001  0.0017  0.0055  0.0000  0.0002  0.0020  0.0000 </r>
        <r>  0.0308  0.0242  0.0043  0.0002  0.0000  0.0071  0.0049  0.0001  0.0202 </r>
        <r>  0.0026  0.0031  0.0003  0.0004  0.0000  0.0000  0.0000  0.0000  0.0000 </r>
        <r>  0.0000  0.0000  0.0000  0.0005  0.0000  0.0000  0.0000  0.0000  0.0000 </r>
        <r>  0.0000  0.0000  0.0000  0.0403  0.0000  0.0000  0.0000  0.0000  0.0000 </r>
        <r>  0.0013  0.0001  0.0002  0.0000  0.0000  0.0000  0.0000  0.0000  0.0000 </r>
       </set>
       <set comment="band 67">
        <r>  0.0307  0.0242  0.0043  0.0002  0.0000  0.0070  0.0048  0.0002  0.0201 </r>
        <r>  0.0002  0.0004  0.0001  0.0018  0.0055  0.0000  0.0002  0.0021  0.0001 </r>
        <r>  0.0004  0.0002  0.0001  0.0142  0.0028  0.0002  0.0002  0.0082  0.0003 </r>
        <r>  0.0040  0.0088  0.0056  0.0000  0.0001  0.0054  0.0182  0.0000  0.0016 </r>
        <r>  0.0013  0.0001  0.0002  0.0001  0.0000  0.0000  0.0000  0.0000  0.0000 </r>
        <r>  0.0001  0.0000  0.0000  0.0401  0.0000  0.0000  0.0000  0.0000  0.0000 </r>
        <r>  0.0000  0.0000  0.0000  0.0005  0.0000  0.0000  0.0000  0.0000  0.0000 </r>
        <r>  0.0026  0.0030  0.0003  0.0005  0.0000  0.0000  0.0000  0.0000  0.0000 </r>
       </set>
       <set comment="band 68">
        <r>  0.0003  0.0003  0.0001  0.0153  0.0037  0.0001  0.0001  0.0089  0.0002 </r>
        <r>  0.0009  0.0063  0.0073  0.0001  0.0001  0.0048  0.0207  0.0000  0.0003 </r>
        <r>  0.0339  0.0267  0.0026  0.0002  0.0000  0.0076  0.0024  0.0001  0.0214 </r>
        <r>  0.0001  0.0002  0.0000  0.0007  0.0046  0.0001  0.0002  0.0015  0.0001 </r>
        <r>  0.0000  0.0000  0.0000  0.0003  0.0000  0.0000  0.0000  0.0000  0.0000 </r>
        <r>  0.0024  0.0031  0.0004  0.0005  0.0000  0.0000  0.0000  0.0000  0.0000 </r>
        <r>  0.0016  0.0000  0.0001  0.0001  0.0000  0.0000  0.0000  0.0000  0.0000 </r>
        <r>  0.0000  0.0000  0.0000  0.0404  0.0000  0.0000  0.0000  0.0000  0.0000 </r>
       </set>
       <set comment="band 69">
        <r>  0.0004  0.0005  0.0006  0.0001  0.0001  0.0007  0.0017  0.0000  0.0023 </r>
        <r>  0.0000  0.0000  0.0000  0.0515  0.0532  0.0000  0.0000  0.0000  0.0000 </r>
        <r>  0.0000  0.0000  0.0000  0.0002  0.0000  0.0000  0.0000  0.0009  0.0000 </r>
        <r>  0.0027  0.0008  0.0001  0.0003  0.0002  0.0001  0.0041  0.0000  0.0059 </r>
        <r>  0.0263  0.0004  0.0012  0.0000  0.0000  0.0000  0.0000  0.0000  0.0000 </r>
        <r>  0.0000  0.0000  0.0000  0.0002  0.0000  0.0000  0.0000  0.0000  0.0000 </r>
        <r>  0.0001  0.0000  0.0000  0.0025  0.0000  0.0000  0.0000  0.0000  0.0000 </r>
        <r>  0.0003  0.0000  0.0009  0.0000  0.0000  0.0000  0.0000  0.0000  0.0000 </r>
       </set>
       <set comment="band 70">
        <r>  0.0000  0.0000  0.0000  0.0008  0.0003  0.0000  0.0000  0.0009  0.0000 </r>
        <r>  0.0026  0.0007  0.0001  0.0002  0.0002  0.0001  0.0044  0.0000  0.0062 </r>
        <r>  0.0006  0.0005  0.0006  0.0001  0.0001  0.0007  0.0014  0.0000  0.0020 </r>
        <r>  0.0000  0.0000  0.0000  0.0509  0.0530  0.0000  0.0000  0.0000  0.0000 </r>
        <r>  0.0001  0.0000  0.0000  0.0026  0.0000  0.0000  0.0000  0.0000  0.0000 </r>
        <r>  0.0006  0.0000  0.0008  0.0000  0.0000  0.0000  0.0000  0.0000  0.0000 </r>
        <r>  0.0260  0.0004  0.0014  0.0000  0.0000  0.0000  0.0000  0.0000  0.0000 </r>
        <r>  0.0001  0.0000  0.0000  0.0002  0.0000  0.0000  0.0000  0.0000  0.0000 </r>
       </set>
       <set comment="band 71">
        <r>  0.0001  0.0000  0.0000  0.0491  0.0511  0.0000  0.0001  0.0000  0.0003 </r>
        <r>  0.0006  0.0005  0.0005  0.0000  0.0001  0.0007  0.0014  0.0000  0.0019 </r>
        <r>  0.0025  0.0007  0.0001  0.0022  0.0022  0.0001  0.0042  0.0000  0.0059 </r>
        <r>  0.0000  0.0000  0.0000  0.0007  0.0002  0.0000  0.0001  0.0009  0.0001 </r>
        <r>  0.0000  0.0000  0.0001  0.0002  0.0000  0.0000  0.0000  0.0000  0.0000 </r>
        <r>  0.0252  0.0004  0.0013  0.0001  0.0000  0.0000  0.0000  0.0000  0.0000 </r>
        <r>  0.0005  0.0000  0.0008  0.0000  0.0000  0.0000  0.0000  0.0000  0.0000 </r>
        <r>  0.0011  0.0000  0.0000  0.0024  0.0000  0.0000  0.0000  0.0000  0.0000 </r>
       </set>
       <set comment="band 72">
        <r>  0.0026  0.0008  0.0001  0.0020  0.0021  0.0001  0.0039  0.0000  0.0056 </r>
        <r>  0.0000  0.0000  0.0000  0.0003  0.0000  0.0000  0.0000  0.0009  0.0001 </r>
        <r>  0.0001  0.0000  0.0000  0.0495  0.0513  0.0000  0.0002  0.0000  0.0002 </r>
        <r>  0.0004  0.0005  0.0006  0.0002  0.0001  0.0007  0.0016  0.0000  0.0022 </r>
        <r>  0.0004  0.0000  0.0009  0.0000  0.0000  0.0000  0.0000  0.0000  0.0000 </r>
        <r>  0.0010  0.0000  0.0001  0.0024  0.0000  0.0000  0.0000  0.0000  0.0000 </r>
        <r>  0.0001  0.0000  0.0000  0.0002  0.0000  0.0000  0.0000  0.0000  0.0000 </r>
        <r>  0.0253  0.0004  0.0012  0.0001  0.0000  0.0000  0.0000  0.0000  0.0000 </r>
       </set>
      </set>
     </set>
    </set>
   </array>
  </projected>
 </calculation>
 <structure name="finalpos" >
  <crystal>
   <varray name="basis" >
    <v>       3.95685521       0.00000000       0.00000000 </v>
    <v>      -0.00000000       4.53281069       0.00000000 </v>
    <v>       0.00000000       0.00000000      11.39201851 </v>
   </varray>
   <i name="volume">    204.32354836 </i>
   <varray name="rec_basis" >
    <v>       0.25272595       0.00000000       0.00000000 </v>
    <v>       0.00000000       0.22061367       0.00000000 </v>
    <v>      -0.00000000      -0.00000000       0.08778076 </v>
   </varray>
  </crystal>
  <varray name="positions" >
   <v>       0.25000000       0.36953984       0.62163275 </v>
   <v>       0.75000000       0.63046016       0.37836725 </v>
   <v>       0.75000000       0.86953984       0.87836725 </v>
   <v>       0.25000000       0.13046016       0.12163275 </v>
   <v>       0.25000000       0.01059680       0.34749746 </v>
   <v>       0.75000000       0.98940320       0.65250254 </v>
   <v>       0.75000000       0.51059680       0.15250254 </v>
   <v>       0.25000000       0.48940320       0.84749746 </v>
  </varray>
 </structure>
</modeling>
