 vasp.6.4.2 20Jul23 (build Mar 15 2024 16:31:38) complex                        
  
 executed on             LinuxIFC date 2025.03.19  14:45:22
 running  120 mpi-ranks, on    3 nodes
 distrk:  each k-point on  120 cores,    1 groups
 distr:  one band on NCORE=  10 cores,   12 groups


--------------------------------------------------------------------------------------------------------


 INCAR:
   ALGO = Fast
   EDIFF = 1e-05
   ENAUG = 1360
   ENCUT = 680
   GGA = Ps
   ISMEAR = -5
   ISPIN = 2
   LAECHG = True
   LASPH = True
   LCHARG = True
   LELF = False
   LMAXMIX = 4
   LMIXTAU = True
   LORBIT = 11
   LREAL = False
   LVTOT = True
   LWAVE = True
   MAGMOM = 6*0.6
   NCORE = 10
   NELM = 200
   NSW = 0
   PREC = Accurate
   SIGMA = 0.2

 POTCAR:    PAW_PBE Cu 22Jun2005                  
 POTCAR:    PAW_PBE O 08Apr2002                   
 WARNING: For LVTOT=.TRUE., VASP.5.x writes the TOTAL local potential to the
     file LOCPOT. If you want only the Hartree contributions, use LVHAR=.TRUE.
     instead. 

 POTCAR:    PAW_PBE Cu 22Jun2005                  
   VRHFIN =Cu: d10 p1                                                                               
   LEXCH  = PE                                                                                      
   EATOM  =  1390.9808 eV,  102.2342 Ry                                                             
                                                                                                    
   TITEL  = PAW_PBE Cu 22Jun2005                                                                    
   LULTRA =        F    use ultrasoft PP ?                                                          
   IUNSCR =        1    unscreen: 0-lin 1-nonlin 2-no                                               
   RPACOR =    2.000    partial core radius                                                         
   POMASS =   63.546; ZVAL   =   11.000    mass and valenz                                          
   RCORE  =    2.300    outmost cutoff radius                                                       
   RWIGS  =    2.200; RWIGS  =    1.164    wigner-seitz radius (au A)                               
   ENMAX  =  295.446; ENMIN  =  221.585 eV                                                          
   ICORE  =        3    local potential                                                             
   LCOR   =        T    correct aug charges                                                         
   LPAW   =        T    paw PP                                                                      
   EAUG   =  586.980                                                                                
   DEXC   =    0.000                                                                                
   RMAX   =    2.344    core radius for proj-oper                                                   
   RAUG   =    1.300    factor for augmentation sphere                                              
   RDEP   =    2.302    radius for radial grids                                                     
   RDEPT  =    1.771    core radius for aug-charge                                                  
                                                                                                    
   Atomic configuration                                                                             
    9 entries                                                                                       
     n  l   j            E        occ.                                                              
     1  0  0.50     -8850.2468   2.0000                                                             
     2  0  0.50     -1062.3498   2.0000                                                             
     2  1  1.50      -916.8226   6.0000                                                             
     3  0  0.50      -114.6929   2.0000                                                             
     3  1  1.50       -72.1325   6.0000                                                             
     3  2  2.50        -5.0394  10.0000                                                             
     4  0  0.50        -4.6097   1.0000                                                             
     4  1  0.50        -4.0817   0.0000                                                             
     4  3  2.50        -1.3606   0.0000                                                             
   Description                                                                                      
     l       E           TYP  RCUT    TYP  RCUT                                                     
     2     -5.0393973     23  2.200                                                                 
     2     10.8846608     23  2.200                                                                 
     0     -4.6097109     23  2.200                                                                 
     0      8.2520465     23  2.200                                                                 
     1     -2.7211652     23  2.200                                                                 
     1     21.7055443     23  2.200                                                                 
     3      2.7211652     23  2.300                                                                 
  local pseudopotential read in
  partial core-charges read in
  partial kinetic energy density read in
  atomic valenz-charges read in
  non local Contribution for L=           2  read in
    real space projection operators read in
  non local Contribution for L=           2  read in
    real space projection operators read in
  non local Contribution for L=           0  read in
    real space projection operators read in
  non local Contribution for L=           0  read in
    real space projection operators read in
  non local Contribution for L=           1  read in
    real space projection operators read in
  non local Contribution for L=           1  read in
    real space projection operators read in
    PAW grid and wavefunctions read in
 
   number of l-projection  operators is LMAX  =           6
   number of lm-projection operators is LMMAX =          18
 
 POTCAR:    PAW_PBE O 08Apr2002                   
   VRHFIN =O: s2p4                                                                                  
   LEXCH  = PE                                                                                      
   EATOM  =   432.3788 eV,   31.7789 Ry                                                             
                                                                                                    
   TITEL  = PAW_PBE O 08Apr2002                                                                     
   LULTRA =        F    use ultrasoft PP ?                                                          
   IUNSCR =        1    unscreen: 0-lin 1-nonlin 2-no                                               
   RPACOR =    1.200    partial core radius                                                         
   POMASS =   16.000; ZVAL   =    6.000    mass and valenz                                          
   RCORE  =    1.520    outmost cutoff radius                                                       
   RWIGS  =    1.550; RWIGS  =    0.820    wigner-seitz radius (au A)                               
   ENMAX  =  400.000; ENMIN  =  300.000 eV                                                          
   ICORE  =        2    local potential                                                             
   LCOR   =        T    correct aug charges                                                         
   LPAW   =        T    paw PP                                                                      
   EAUG   =  605.392                                                                                
   DEXC   =    0.000                                                                                
   RMAX   =    1.553    core radius for proj-oper                                                   
   RAUG   =    1.300    factor for augmentation sphere                                              
   RDEP   =    1.550    radius for radial grids                                                     
   RDEPT  =    1.329    core radius for aug-charge                                                  
                                                                                                    
   Atomic configuration                                                                             
    4 entries                                                                                       
     n  l   j            E        occ.                                                              
     1  0  0.50      -514.6923   2.0000                                                             
     2  0  0.50       -23.9615   2.0000                                                             
     2  1  0.50        -9.0305   4.0000                                                             
     3  2  1.50        -9.5241   0.0000                                                             
   Description                                                                                      
     l       E           TYP  RCUT    TYP  RCUT                                                     
     0    -23.9615318     23  1.200                                                                 
     0     -9.5240782     23  1.200                                                                 
     1     -9.0304911     23  1.520                                                                 
     1      8.1634956     23  1.520                                                                 
     2     -9.5240782      7  1.500                                                                 
  local pseudopotential read in
  partial core-charges read in
  partial kinetic energy density read in
  kinetic energy density of atom read in
  atomic valenz-charges read in
  non local Contribution for L=           0  read in
    real space projection operators read in
  non local Contribution for L=           0  read in
    real space projection operators read in
  non local Contribution for L=           1  read in
    real space projection operators read in
  non local Contribution for L=           1  read in
    real space projection operators read in
    PAW grid and wavefunctions read in
 
   number of l-projection  operators is LMAX  =           4
   number of lm-projection operators is LMMAX =           8
 
 -----------------------------------------------------------------------------
|                                                                             |
|               ----> ADVICE to this user running VASP <----                  |
|                                                                             |
|     You enforced a specific xc type in the INCAR file but a different       |
|     type was found in the POTCAR file.                                      |
|     I HOPE YOU KNOW WHAT YOU ARE DOING!                                     |
|                                                                             |
 -----------------------------------------------------------------------------

  PAW_PBE Cu 22Jun2005                  :
 energy of atom  1       EATOM=-1390.9808
 kinetic energy error for atom=    0.0018 (will be added to EATOM!!)
  PAW_PBE O 08Apr2002                   :
 energy of atom  2       EATOM= -432.3788
 kinetic energy error for atom=    0.0105 (will be added to EATOM!!)
 
 
 POSCAR: Cu4 O2
  positions in direct lattice
  No initial velocities read in
 exchange correlation table for  LEXCH =       14
   RHO(1)=    0.500       N(1)  =     2000
   RHO(2)=  100.500       N(2)  =     4000
 


--------------------------------------------------------------------------------------------------------


 ion  position               nearest neighbor table
   1  0.500  0.500  0.000-   5 1.84   6 1.84
   2  0.000  0.500  0.500-   5 1.84   6 1.84
   3  0.500  0.000  0.500-   5 1.84   6 1.84
   4  0.000  0.000  0.000-   5 1.84   6 1.84
   5  0.750  0.750  0.750-   1 1.84   2 1.84   3 1.84   4 1.84
   6  0.250  0.250  0.250-   1 1.84   2 1.84   3 1.84   4 1.84
 
  LATTYP: Found a simple cubic cell.
 ALAT       =     4.2466993200
  
  Lattice vectors:
  
 A1 = (   4.2466993200,   0.0000000000,   0.0000000000)
 A2 = (  -0.0000000000,   4.2466993200,   0.0000000000)
 A3 = (   0.0000000000,   0.0000000000,   4.2466993200)


Analysis of symmetry for initial positions (statically):
=====================================================================
 Subroutine PRICEL returns:
 Original cell was already a primitive cell.
 

 Routine SETGRP: Setting up the symmetry group for a 
 simple cubic supercell.


 Subroutine GETGRP returns: Found 48 space group operations
 (whereof 12 operations were pure point group operations)
 out of a pool of 48 trial point group operations.


The static configuration has the point symmetry D_3d.
 The point group associated with its full space group is O_h .


Analysis of symmetry for dynamics (positions and initial velocities):
=====================================================================
 Subroutine PRICEL returns:
 Original cell was already a primitive cell.
 

 Routine SETGRP: Setting up the symmetry group for a 
 simple cubic supercell.


 Subroutine GETGRP returns: Found 48 space group operations
 (whereof 12 operations were pure point group operations)
 out of a pool of 48 trial point group operations.


The dynamic configuration has the point symmetry D_3d.
 The point group associated with its full space group is O_h .


Analysis of structural, dynamic, and magnetic symmetry:
=====================================================================
 Subroutine PRICEL returns:
 Original cell was already a primitive cell.
 

 Routine SETGRP: Setting up the symmetry group for a 
 simple cubic supercell.


 Subroutine GETGRP returns: Found 48 space group operations
 (whereof 12 operations were pure point group operations)
 out of a pool of 48 trial point group operations.


The overall configuration has the point symmetry D_3d.
 The point group associated with its full space group is O_h .


 Subroutine INISYM returns: Found 48 space group operations
 (whereof 12 operations are pure point group operations),
 and found     1 'primitive' translations


----------------------------------------------------------------------------------------

                                     Primitive cell                                     

  volume of cell :      76.5869

  direct lattice vectors                    reciprocal lattice vectors
     4.246699320  0.000000000  0.000000000     0.235476996  0.000000000  0.000000000
    -0.000000000  4.246699320  0.000000000     0.000000000  0.235476996  0.000000000
     0.000000000  0.000000000  4.246699320    -0.000000000 -0.000000000  0.235476996

  length of vectors
     4.246699320  4.246699320  4.246699320     0.235476996  0.235476996  0.235476996

  position of ions in fractional coordinates (direct lattice)
     0.500000000  0.500000000  1.000000000
     0.000000000  0.500000000  0.500000000
     0.500000000  0.000000000  0.500000000
     0.000000000  0.000000000  0.000000000
     0.750000000  0.750000000  0.750000000
     0.250000000  0.250000000  0.250000000

  ion indices of the primitive-cell ions
   primitive index   ion index
                 1           1
                 2           2
                 3           3
                 4           4
                 5           5
                 6           6

----------------------------------------------------------------------------------------

 
 
 KPOINTS: pymatgen with grid density = 1244 / numb

Automatic generation of k-mesh.
 Grid dimensions read from file:
 generate k-points for:    5    5    5

 Generating k-lattice:

  Cartesian coordinates                     Fractional coordinates (reciprocal lattice)
     0.047095399  0.000000000  0.000000000     0.200000000 -0.000000000  0.000000000
     0.000000000  0.047095399  0.000000000     0.000000000  0.200000000  0.000000000
    -0.000000000 -0.000000000  0.047095399     0.000000000  0.000000000  0.200000000

  Length of vectors
     0.047095399  0.047095399  0.047095399

  Shift w.r.t. Gamma in fractional coordinates (k-lattice)
     0.000000000  0.000000000  0.000000000

 TETIRR: Found     57 inequivalent tetrahedra from      750
 
 Subroutine IBZKPT returns following result:
 ===========================================
 
 Found     10 irreducible k-points:
 
 Following reciprocal coordinates:
            Coordinates               Weight
  0.000000  0.000000  0.000000      1.000000
  0.200000  0.000000  0.000000      6.000000
  0.400000  0.000000  0.000000      6.000000
  0.200000  0.200000  0.000000     12.000000
  0.400000  0.200000  0.000000     24.000000
  0.400000  0.400000  0.000000     12.000000
  0.200000  0.200000  0.200000      8.000000
  0.400000  0.200000  0.200000     24.000000
  0.400000  0.400000  0.200000     24.000000
  0.400000  0.400000  0.400000      8.000000
 
 Following cartesian coordinates:
            Coordinates               Weight
  0.000000  0.000000  0.000000      1.000000
  0.047095  0.000000  0.000000      6.000000
  0.094191  0.000000  0.000000      6.000000
  0.047095  0.047095  0.000000     12.000000
  0.094191  0.047095  0.000000     24.000000
  0.094191  0.094191  0.000000     12.000000
  0.047095  0.047095  0.047095      8.000000
  0.094191  0.047095  0.047095     24.000000
  0.094191  0.094191  0.047095     24.000000
  0.094191  0.094191  0.094191      8.000000
 


--------------------------------------------------------------------------------------------------------




 Dimension of arrays:
   k-points           NKPTS =     10   k-points in BZ     NKDIM =     10   number of bands    NBANDS=     36
   number of dos      NEDOS =    301   number of ions     NIONS =      6
   non local maximal  LDIM  =      6   non local SUM 2l+1 LMDIM =     18
   total plane-waves  NPLWV =  46656
   max r-space proj   IRMAX =      1   max aug-charges    IRDMAX=  17843
   dimension x,y,z NGX =    36 NGY =   36 NGZ =   36
   dimension x,y,z NGXF=    72 NGYF=   72 NGZF=   72
   support grid    NGXF=    72 NGYF=   72 NGZF=   72
   ions per type =               4   2
   NGX,Y,Z   is equivalent  to a cutoff of  14.09, 14.09, 14.09 a.u.
   NGXF,Y,Z  is equivalent  to a cutoff of  28.19, 28.19, 28.19 a.u.

 SYSTEM =  unknown system                          
 POSCAR =  Cu4 O2                                  

 Startparameter for this run:
   NWRITE =      2    write-flag & timer
   PREC   = accura    normal or accurate (medium, high low for compatibility)
   ISTART =      0    job   : 0-new  1-cont  2-samecut
   ICHARG =      2    charge: 1-file 2-atom 10-const
   ISPIN  =      2    spin polarized calculation?
   LNONCOLLINEAR =      F non collinear calculations
   LSORBIT =      F    spin-orbit coupling
   INIWAV =      1    electr: 0-lowe 1-rand  2-diag
   LASPH  =      T    aspherical Exc in radial PAW
 Electronic Relaxation 1
   ENCUT  =  680.0 eV  49.98 Ry    7.07 a.u.   9.03  9.03  9.03*2*pi/ulx,y,z
   ENINI  =  680.0     initial cutoff
   ENAUG  = 1360.0 eV  augmentation charge cutoff
   NELM   =    200;   NELMIN=  2; NELMDL= -5     # of ELM steps 
   EDIFF  = 0.1E-04   stopping-criterion for ELM
   LREAL  =      F    real-space projection
   NLSPLINE    = F    spline interpolate recip. space projectors
   LCOMPAT=      F    compatible to vasp.4.4
   GGA_COMPAT  = T    GGA compatible to vasp.4.4-vasp.4.6
   LMAXPAW     = -100 max onsite density
   LMAXMIX     =    4 max onsite mixed and CHGCAR
   VOSKOWN=      0    Vosko Wilk Nusair interpolation
   ROPT   =    0.00000   0.00000
 Ionic relaxation
   EDIFFG = 0.1E-03   stopping-criterion for IOM
   NSW    =      0    number of steps for IOM
   NBLOCK =      1;   KBLOCK =      1    inner block; outer block 
   IBRION =     -1    ionic relax: 0-MD 1-quasi-New 2-CG
   NFREE  =      0    steps in history (QN), initial steepest desc. (CG)
   ISIF   =      2    stress and relaxation
   IWAVPR =     10    prediction:  0-non 1-charg 2-wave 3-comb
   ISYM   =      2    0-nonsym 1-usesym 2-fastsym
   LCORR  =      T    Harris-Foulkes like correction to forces

   POTIM  = 0.5000    time-step for ionic-motion
   TEIN   =    0.0    initial temperature
   TEBEG  =    0.0;   TEEND  =   0.0 temperature during run
   SMASS  =  -3.00    Nose mass-parameter (am)
   estimated Nose-frequenzy (Omega)   =  0.10E-29 period in steps = 0.13E+47 mass=  -0.412E-27a.u.
   SCALEE = 1.0000    scale energy and forces
   NPACO  =    256;   APACO  = 10.0  distance and # of slots for P.C.
   PSTRESS=    0.0 pullay stress

  Mass of Ions in am
   POMASS =  63.55 16.00
  Ionic Valenz
   ZVAL   =  11.00  6.00
  Atomic Wigner-Seitz radii
   RWIGS  =  -1.00 -1.00
  virtual crystal weights 
   VCA    =   1.00  1.00
   NELECT =      56.0000    total number of electrons
   NUPDOWN=      -1.0000    fix difference up-down

 DOS related values:
   EMIN   =  10.00;   EMAX   =-10.00  energy-range for DOS
   EFERMI =   0.00;   METHOD = LEGACY      
   ISMEAR =    -5;   SIGMA  =   0.20  broadening in eV -4-tet -1-fermi 0-gaus

 Electronic relaxation 2 (details)
   IALGO  =     68    algorithm
   LDIAG  =      T    sub-space diagonalisation (order eigenvalues)
   LSUBROT=      F    optimize rotation matrix (better conditioning)
   TURBO    =      0    0=normal 1=particle mesh
   IRESTART =      0    0=no restart 2=restart with 2 vectors
   NREBOOT  =      0    no. of reboots
   NMIN     =      0    reboot dimension
   EREF     =   0.00    reference energy to select bands
   IMIX   =      4    mixing-type and parameters
     AMIX     =   0.40;   BMIX     =  1.00
     AMIX_MAG =   1.60;   BMIX_MAG =  1.00
     AMIN     =   0.10
     WC   =   100.;   INIMIX=   1;  MIXPRE=   1;  MAXMIX= -45

 Intra band minimization:
   WEIMIN = 0.0000     energy-eigenvalue tresh-hold
   EBREAK =  0.69E-07  absolut break condition
   DEPER  =   0.30     relativ break condition  

   TIME   =   0.40     timestep for ELM

  volume/ion in A,a.u.               =      12.76        86.14
  Fermi-wavevector in a.u.,A,eV,Ry     =   1.474866  2.787093 29.595810  2.175231
  Thomas-Fermi vector in A             =   2.589585
 
 Write flags
   LWAVE        =      T    write WAVECAR
   LDOWNSAMPLE  =      F    k-point downsampling of WAVECAR
   LCHARG       =      T    write CHGCAR
   LVTOT        =      T    write LOCPOT, total local potential
   LVHAR        =      F    write LOCPOT, Hartree potential only
   LELF         =      F    write electronic localiz. function (ELF)
   LORBIT       =     11    0 simple, 1 ext, 2 COOP (PROOUT), +10 PAW based schemes


 Dipole corrections
   LMONO  =      F    monopole corrections only (constant potential shift)
   LDIPOL =      F    correct potential (dipole corrections)
   IDIPOL =      0    1-x, 2-y, 3-z, 4-all directions 
   EPSILON=  1.0000000 bulk dielectric constant

 Exchange correlation treatment:
   GGA     =    PS    GGA type
   LEXCH   =    14    internal setting for exchange type
   LIBXC   =     F    Libxc                    
   VOSKOWN =     0    Vosko Wilk Nusair interpolation
   LHFCALC =     F    Hartree Fock is set to
   LHFONE  =     F    Hartree Fock one center treatment
   AEXX    =    0.0000 exact exchange contribution

 Linear response parameters
   LEPSILON=     F    determine dielectric tensor
   LRPA    =     F    only Hartree local field effects (RPA)
   LNABLA  =     F    use nabla operator in PAW spheres
   LVEL    =     F    velocity operator in full k-point grid
   CSHIFT  =0.1000    complex shift for real part using Kramers Kronig
   OMEGAMAX=  -1.0    maximum frequency
   DEG_THRESHOLD= 0.2000000E-02 threshold for treating states as degnerate
   RTIME   =   -0.100 relaxation time in fs
  (WPLASMAI=    0.000 imaginary part of plasma frequency in eV, 0.658/RTIME)
   DFIELD  = 0.0000000 0.0000000 0.0000000 field for delta impulse in time
 
  Optional k-point grid parameters
   LKPOINTS_OPT  =     F    use optional k-point grid
   KPOINTS_OPT_MODE=     1    mode for optional k-point grid
 
 Orbital magnetization related:
   ORBITALMAG=     F  switch on orbital magnetization
   LCHIMAG   =     F  perturbation theory with respect to B field
   DQ        =  0.001000  dq finite difference perturbation B field
   LLRAUG    =     F  two centre corrections for induced B field
   LBONE     =     F  B-component reconstruction in AE one-centre
   LVGVCALC  =     T  calculate vGv susceptibility
   LVGVAPPL  =     F  apply vGv susceptibility instead of pGv for G=0

 Random number generation:
   RANDOM_GENERATOR = DEFAULT
   PCG_SEED         = not used


--------------------------------------------------------------------------------------------------------


 Static calculation
 charge density and potential will be updated during run
 spin polarized calculation
 RMM-DIIS sequential band-by-band and
  variant of blocked Davidson during initial phase
 perform sub-space diagonalisation
    before iterative eigenvector-optimisation
 modified Broyden-mixing scheme, WC =      100.0
 initial mixing is a Kerker type mixing with AMIX =  0.4000 and BMIX =      1.0000
 Hartree-type preconditioning will be used
 using additional bands            8
 reciprocal scheme for non local part
 use partial core corrections
 calculate Harris-corrections to forces 
   (improved forces if not selfconsistent)
 use gradient corrections 
 use of overlap-Matrix (Vanderbilt PP)
 Fermi weights with tetrahedron method with Bloechl corrections


--------------------------------------------------------------------------------------------------------


  energy-cutoff  :      680.00
  volume of cell :       76.59
      direct lattice vectors                 reciprocal lattice vectors
     4.246699320  0.000000000  0.000000000     0.235476996  0.000000000  0.000000000
    -0.000000000  4.246699320  0.000000000     0.000000000  0.235476996  0.000000000
     0.000000000  0.000000000  4.246699320    -0.000000000 -0.000000000  0.235476996

  length of vectors
     4.246699320  4.246699320  4.246699320     0.235476996  0.235476996  0.235476996


 
 k-points in units of 2pi/SCALE and weight: pymatgen with grid density = 1244 / numb
   0.00000000  0.00000000  0.00000000       0.008
   0.04709540  0.00000000  0.00000000       0.048
   0.09419080  0.00000000  0.00000000       0.048
   0.04709540  0.04709540  0.00000000       0.096
   0.09419080  0.04709540  0.00000000       0.192
   0.09419080  0.09419080  0.00000000       0.096
   0.04709540  0.04709540  0.04709540       0.064
   0.09419080  0.04709540  0.04709540       0.192
   0.09419080  0.09419080  0.04709540       0.192
   0.09419080  0.09419080  0.09419080       0.064
 
 k-points in reciprocal lattice and weights: pymatgen with grid density = 1244 / numb
   0.00000000  0.00000000  0.00000000       0.008
   0.20000000  0.00000000  0.00000000       0.048
   0.40000000  0.00000000  0.00000000       0.048
   0.20000000  0.20000000  0.00000000       0.096
   0.40000000  0.20000000  0.00000000       0.192
   0.40000000  0.40000000  0.00000000       0.096
   0.20000000  0.20000000  0.20000000       0.064
   0.40000000  0.20000000  0.20000000       0.192
   0.40000000  0.40000000  0.20000000       0.192
   0.40000000  0.40000000  0.40000000       0.064
 
 position of ions in fractional coordinates (direct lattice) 
   0.50000000  0.50000000  0.00000000
   0.00000000  0.50000000  0.50000000
   0.50000000  0.00000000  0.50000000
   0.00000000  0.00000000  0.00000000
   0.75000000  0.75000000  0.75000000
   0.25000000  0.25000000  0.25000000
 
 position of ions in cartesian coordinates  (Angst):
   2.12334966  2.12334966  0.00000000
  -0.00000000  2.12334966  2.12334966
   2.12334966  0.00000000  2.12334966
   0.00000000  0.00000000  0.00000000
   3.18502449  3.18502449  3.18502449
   1.06167483  1.06167483  1.06167483
 


--------------------------------------------------------------------------------------------------------


 k-point   1 :   0.0000 0.0000 0.0000  plane waves:    3071
 k-point   2 :   0.2000 0.0000 0.0000  plane waves:    3070
 k-point   3 :   0.4000 0.0000 0.0000  plane waves:    3086
 k-point   4 :   0.2000 0.2000 0.0000  plane waves:    3067
 k-point   5 :   0.4000 0.2000 0.0000  plane waves:    3073
 k-point   6 :   0.4000 0.4000 0.0000  plane waves:    3098
 k-point   7 :   0.2000 0.2000 0.2000  plane waves:    3083
 k-point   8 :   0.4000 0.2000 0.2000  plane waves:    3083
 k-point   9 :   0.4000 0.4000 0.2000  plane waves:    3100
 k-point  10 :   0.4000 0.4000 0.4000  plane waves:    3082

 maximum and minimum number of plane-waves per node :       329      290

 maximum number of plane-waves:      3100
 maximum index in each direction: 
   IXMAX=    9   IYMAX=    9   IZMAX=    9
   IXMIN=   -9   IYMIN=   -9   IZMIN=   -9


 parallel 3D FFT for wavefunctions:
    minimum data exchange during FFTs selected (reduces bandwidth)
 parallel 3D FFT for charge:
    minimum data exchange during FFTs selected (reduces bandwidth)


 total amount of memory used by VASP MPI-rank0    32475. kBytes
=======================================================================

   base      :      30000. kBytes
   nonl-proj :        928. kBytes
   fftplans  :        351. kBytes
   grid      :        843. kBytes
   one-center:         31. kBytes
   wavefun   :        322. kBytes
 
     INWAV:  cpu time      0.0000: real time      0.0001
 Broyden mixing: mesh for mixing (old mesh)
   NGX = 19   NGY = 19   NGZ = 19
  (NGX  = 72   NGY  = 72   NGZ  = 72)
  gives a total of   6859 points

 initial charge density was supplied:
 charge density of overlapping atoms calculated
 number of electron      56.0000000 magnetization       3.6000000
 keeping initial charge density in first step


--------------------------------------------------------------------------------------------------------


 Maximum index for augmentation-charges          793 (set IRDMAX)


--------------------------------------------------------------------------------------------------------


 First call to EWALD:  gamma=   0.417
 Maximum number of real-space cells 3x 3x 3
 Maximum number of reciprocal cells 3x 3x 3

    FEWALD:  cpu time      0.0025: real time      0.0029


--------------------------------------- Ionic step        1  -------------------------------------------




--------------------------------------- Iteration      1(   1)  ---------------------------------------


    POTLOK:  cpu time      0.0204: real time      0.0236
    SETDIJ:  cpu time      0.3872: real time      0.3888
     EDDAV:  cpu time      0.2396: real time      0.2442
 BZINTS: Fermi energy:   19.320203;   56.000000 electrons
         Band energy: 0.628231E+03;  BLOECHL correction:   -0.301435
       DOS:  cpu time      0.0080: real time      0.0080
    --------------------------------------------
      LOOP:  cpu time      0.6551: real time      0.6646

 eigenvalue-minimisations  :  1440
 total energy-change (2. order) : 0.5240509E+03  (-0.3102542E+04)
 number of electron      56.0000000 magnetization       3.6000000
 augmentation part       56.0000000 magnetization       3.6000000

 Free energy of the ion-electron system (eV)
  ---------------------------------------------------
  alpha Z        PSCENC =       228.31989324
  Ewald energy   TEWEN  =     -4565.41384850
  -Hartree energ DENC   =     -2003.93564795
  -exchange      EXHF   =         0.00000000
  -V(xc)+E(xc)   XCENC  =       241.37256407
  PAW double counting   =      5601.83489210    -6028.89639310
  entropy T*S    EENTRO =         0.00000000
  eigenvalues    EBANDS =       628.23132861
  atomic energy  EATOM  =      6422.53809314
  Solvation  Ediel_sol  =         0.00000000
  ---------------------------------------------------
  free energy    TOTEN  =       524.05088162 eV

  energy without entropy =      524.05088162  energy(sigma->0) =      524.05088162


--------------------------------------------------------------------------------------------------------




--------------------------------------- Iteration      1(   2)  ---------------------------------------


     EDDAV:  cpu time      0.2153: real time      0.2170
 BZINTS: Fermi energy:    8.522309;   56.000000 electrons
         Band energy: 0.140655E+03;  BLOECHL correction:   -0.050410
       DOS:  cpu time      0.0058: real time      0.0058
    --------------------------------------------
      LOOP:  cpu time      0.2211: real time      0.2229

 eigenvalue-minimisations  :  1452
 total energy-change (2. order) :-0.4875766E+03  (-0.4708312E+03)
 number of electron      56.0000000 magnetization       3.6000000
 augmentation part       56.0000000 magnetization       3.6000000

 Free energy of the ion-electron system (eV)
  ---------------------------------------------------
  alpha Z        PSCENC =       228.31989324
  Ewald energy   TEWEN  =     -4565.41384850
  -Hartree energ DENC   =     -2003.93564795
  -exchange      EXHF   =         0.00000000
  -V(xc)+E(xc)   XCENC  =       241.37256407
  PAW double counting   =      5601.83489210    -6028.89639310
  entropy T*S    EENTRO =         0.00000000
  eigenvalues    EBANDS =       140.65477667
  atomic energy  EATOM  =      6422.53809314
  Solvation  Ediel_sol  =         0.00000000
  ---------------------------------------------------
  free energy    TOTEN  =        36.47432967 eV

  energy without entropy =       36.47432967  energy(sigma->0) =       36.47432967


--------------------------------------------------------------------------------------------------------




--------------------------------------- Iteration      1(   3)  ---------------------------------------


     EDDAV:  cpu time      0.2622: real time      0.2786
 BZINTS: Fermi energy:    6.464491;   56.000000 electrons
         Band energy: 0.704611E+02;  BLOECHL correction:   -0.005250
       DOS:  cpu time      0.0052: real time      0.0052
    --------------------------------------------
      LOOP:  cpu time      0.2674: real time      0.2837

 eigenvalue-minimisations  :  2148
 total energy-change (2. order) :-0.7019366E+02  (-0.6822778E+02)
 number of electron      56.0000000 magnetization       3.6000000
 augmentation part       56.0000000 magnetization       3.6000000

 Free energy of the ion-electron system (eV)
  ---------------------------------------------------
  alpha Z        PSCENC =       228.31989324
  Ewald energy   TEWEN  =     -4565.41384850
  -Hartree energ DENC   =     -2003.93564795
  -exchange      EXHF   =         0.00000000
  -V(xc)+E(xc)   XCENC  =       241.37256407
  PAW double counting   =      5601.83489210    -6028.89639310
  entropy T*S    EENTRO =         0.00000000
  eigenvalues    EBANDS =        70.46111692
  atomic energy  EATOM  =      6422.53809314
  Solvation  Ediel_sol  =         0.00000000
  ---------------------------------------------------
  free energy    TOTEN  =       -33.71933007 eV

  energy without entropy =      -33.71933007  energy(sigma->0) =      -33.71933007


--------------------------------------------------------------------------------------------------------




--------------------------------------- Iteration      1(   4)  ---------------------------------------


     EDDAV:  cpu time      0.2199: real time      0.2350
 BZINTS: Fermi energy:    6.433477;   56.000000 electrons
         Band energy: 0.684864E+02;  BLOECHL correction:   -0.005269
       DOS:  cpu time      0.0055: real time      0.0055
    --------------------------------------------
      LOOP:  cpu time      0.2254: real time      0.2404

 eigenvalue-minimisations  :  1776
 total energy-change (2. order) :-0.1974726E+01  (-0.1971255E+01)
 number of electron      56.0000000 magnetization       3.6000000
 augmentation part       56.0000000 magnetization       3.6000000

 Free energy of the ion-electron system (eV)
  ---------------------------------------------------
  alpha Z        PSCENC =       228.31989324
  Ewald energy   TEWEN  =     -4565.41384850
  -Hartree energ DENC   =     -2003.93564795
  -exchange      EXHF   =         0.00000000
  -V(xc)+E(xc)   XCENC  =       241.37256407
  PAW double counting   =      5601.83489210    -6028.89639310
  entropy T*S    EENTRO =         0.00000000
  eigenvalues    EBANDS =        68.48639105
  atomic energy  EATOM  =      6422.53809314
  Solvation  Ediel_sol  =         0.00000000
  ---------------------------------------------------
  free energy    TOTEN  =       -35.69405594 eV

  energy without entropy =      -35.69405594  energy(sigma->0) =      -35.69405594


--------------------------------------------------------------------------------------------------------




--------------------------------------- Iteration      1(   5)  ---------------------------------------


     EDDAV:  cpu time      0.2511: real time      0.2669
 BZINTS: Fermi energy:    6.432732;   56.000000 electrons
         Band energy: 0.684589E+02;  BLOECHL correction:   -0.005274
       DOS:  cpu time      0.0054: real time      0.0054
    CHARGE:  cpu time      0.0175: real time      0.0178
    MIXING:  cpu time      0.0057: real time      0.0061
    --------------------------------------------
      LOOP:  cpu time      0.2796: real time      0.2961

 eigenvalue-minimisations  :  2088
 total energy-change (2. order) :-0.2744461E-01  (-0.2743943E-01)
 number of electron      55.9999997 magnetization      -0.3227409
 augmentation part       27.4244224 magnetization      -0.1625049

 Broyden mixing:
  rms(total) = 0.21442E+01    rms(broyden)= 0.21442E+01
  rms(prec ) = 0.43511E+01
  weight for this iteration     100.00

 Free energy of the ion-electron system (eV)
  ---------------------------------------------------
  alpha Z        PSCENC =       228.31989324
  Ewald energy   TEWEN  =     -4565.41384850
  -Hartree energ DENC   =     -2003.93564795
  -exchange      EXHF   =         0.00000000
  -V(xc)+E(xc)   XCENC  =       241.37256407
  PAW double counting   =      5601.83489210    -6028.89639310
  entropy T*S    EENTRO =         0.00000000
  eigenvalues    EBANDS =        68.45894643
  atomic energy  EATOM  =      6422.53809314
  Solvation  Ediel_sol  =         0.00000000
  ---------------------------------------------------
  free energy    TOTEN  =       -35.72150056 eV

  energy without entropy =      -35.72150056  energy(sigma->0) =      -35.72150056


--------------------------------------------------------------------------------------------------------




--------------------------------------- Iteration      1(   6)  ---------------------------------------


    POTLOK:  cpu time      0.0113: real time      0.0247
    SETDIJ:  cpu time      0.3819: real time      0.3829
    EDDIAG:  cpu time      0.0834: real time      0.0839
  RMM-DIIS:  cpu time      0.0373: real time      0.0376
    ORTHCH:  cpu time      0.0117: real time      0.0117
 BZINTS: Fermi energy:    3.220417;   56.000000 electrons
         Band energy:-0.519376E+02;  BLOECHL correction:    0.000000
       DOS:  cpu time      0.0023: real time      0.0023
    CHARGE:  cpu time      0.0147: real time      0.0147
    MIXING:  cpu time      0.0012: real time      0.0013
    --------------------------------------------
      LOOP:  cpu time      0.5437: real time      0.5592

 eigenvalue-minimisations  :  1609
 total energy-change (2. order) : 0.2451207E+01  (-0.5577665E+01)
 number of electron      55.9999988 magnetization      -0.1003534
 augmentation part       31.4230957 magnetization      -0.1610218

 Broyden mixing:
  rms(total) = 0.13584E+01    rms(broyden)= 0.13583E+01
  rms(prec ) = 0.26656E+01
  weight for this iteration     100.00

 eigenvalues of (default mixing * dielectric matrix)
  average eigenvalue GAMMA=   0.6601
  0.6601

 Free energy of the ion-electron system (eV)
  ---------------------------------------------------
  alpha Z        PSCENC =       228.31989324
  Ewald energy   TEWEN  =     -4565.41384850
  -Hartree energ DENC   =     -1903.98613516
  -exchange      EXHF   =         0.00000000
  -V(xc)+E(xc)   XCENC  =       237.12837188
  PAW double counting   =      5709.09467026    -6109.01374810
  entropy T*S    EENTRO =         0.00000000
  eigenvalues    EBANDS =       -51.93758984
  atomic energy  EATOM  =      6422.53809314
  Solvation  Ediel_sol  =         0.00000000
  ---------------------------------------------------
  free energy    TOTEN  =       -33.27029309 eV

  energy without entropy =      -33.27029309  energy(sigma->0) =      -33.27029309


--------------------------------------------------------------------------------------------------------




--------------------------------------- Iteration      1(   7)  ---------------------------------------


    POTLOK:  cpu time      0.0115: real time      0.0235
    SETDIJ:  cpu time      0.3820: real time      0.3831
    EDDIAG:  cpu time      0.0780: real time      0.0782
  RMM-DIIS:  cpu time      0.0282: real time      0.0283
    ORTHCH:  cpu time      0.0116: real time      0.0116
 BZINTS: Fermi energy:    4.814661;   56.000000 electrons
         Band energy: 0.307660E+02;  BLOECHL correction:    0.000000
       DOS:  cpu time      0.0022: real time      0.0022
    CHARGE:  cpu time      0.0139: real time      0.0139
    MIXING:  cpu time      0.0003: real time      0.0003
    --------------------------------------------
      LOOP:  cpu time      0.5276: real time      0.5410

 eigenvalue-minimisations  :  1605
 total energy-change (2. order) : 0.3272124E+01  (-0.1840763E+01)
 number of electron      55.9999990 magnetization      -0.0218173
 augmentation part       29.2757327 magnetization      -0.0407554

 Broyden mixing:
  rms(total) = 0.32937E+00    rms(broyden)= 0.32936E+00
  rms(prec ) = 0.53448E+00
  weight for this iteration     100.00

 eigenvalues of (default mixing * dielectric matrix)
  average eigenvalue GAMMA=   0.6662
  0.7521  0.5803

 Free energy of the ion-electron system (eV)
  ---------------------------------------------------
  alpha Z        PSCENC =       228.31989324
  Ewald energy   TEWEN  =     -4565.41384850
  -Hartree energ DENC   =     -1958.94584512
  -exchange      EXHF   =         0.00000000
  -V(xc)+E(xc)   XCENC  =       239.66061581
  PAW double counting   =      5891.14262742    -6318.06571903
  entropy T*S    EENTRO =         0.00000000
  eigenvalues    EBANDS =        30.76601356
  atomic energy  EATOM  =      6422.53809314
  Solvation  Ediel_sol  =         0.00000000
  ---------------------------------------------------
  free energy    TOTEN  =       -29.99816949 eV

  energy without entropy =      -29.99816949  energy(sigma->0) =      -29.99816949


--------------------------------------------------------------------------------------------------------




--------------------------------------- Iteration      1(   8)  ---------------------------------------


    POTLOK:  cpu time      0.0106: real time      0.0246
    SETDIJ:  cpu time      0.3829: real time      0.3839
    EDDIAG:  cpu time      0.0796: real time      0.0798
  RMM-DIIS:  cpu time      0.0335: real time      0.0336
    ORTHCH:  cpu time      0.0118: real time      0.0118
 BZINTS: Fermi energy:    4.747884;   56.000000 electrons
         Band energy: 0.255109E+02;  BLOECHL correction:    0.000000
       DOS:  cpu time      0.0022: real time      0.0022
    CHARGE:  cpu time      0.0144: real time      0.0145
    MIXING:  cpu time      0.0003: real time      0.0003
    --------------------------------------------
      LOOP:  cpu time      0.5353: real time      0.5506

 eigenvalue-minimisations  :  1838
 total energy-change (2. order) :-0.1677871E-01  (-0.7630841E-01)
 number of electron      55.9999990 magnetization      -0.0096245
 augmentation part       29.4335097 magnetization      -0.0099472

 Broyden mixing:
  rms(total) = 0.21300E+00    rms(broyden)= 0.21300E+00
  rms(prec ) = 0.32669E+00
  weight for this iteration     100.00

 eigenvalues of (default mixing * dielectric matrix)
  average eigenvalue GAMMA=   1.1914
  0.5842  0.8973  2.0926

 Free energy of the ion-electron system (eV)
  ---------------------------------------------------
  alpha Z        PSCENC =       228.31989324
  Ewald energy   TEWEN  =     -4565.41384850
  -Hartree energ DENC   =     -1950.83831491
  -exchange      EXHF   =         0.00000000
  -V(xc)+E(xc)   XCENC  =       239.20927567
  PAW double counting   =      5976.42040134    -6405.76134868
  entropy T*S    EENTRO =         0.00000000
  eigenvalues    EBANDS =        25.51090049
  atomic energy  EATOM  =      6422.53809314
  Solvation  Ediel_sol  =         0.00000000
  ---------------------------------------------------
  free energy    TOTEN  =       -30.01494821 eV

  energy without entropy =      -30.01494821  energy(sigma->0) =      -30.01494821


--------------------------------------------------------------------------------------------------------




--------------------------------------- Iteration      1(   9)  ---------------------------------------


    POTLOK:  cpu time      0.0117: real time      0.0259
    SETDIJ:  cpu time      0.3798: real time      0.3809
    EDDIAG:  cpu time      0.0780: real time      0.0783
  RMM-DIIS:  cpu time      0.0313: real time      0.0313
    ORTHCH:  cpu time      0.0114: real time      0.0115
 BZINTS: Fermi energy:    4.778883;   56.000000 electrons
         Band energy: 0.280098E+02;  BLOECHL correction:    0.000000
       DOS:  cpu time      0.0022: real time      0.0022
    CHARGE:  cpu time      0.0143: real time      0.0143
    MIXING:  cpu time      0.0003: real time      0.0003
    --------------------------------------------
      LOOP:  cpu time      0.5291: real time      0.5447

 eigenvalue-minimisations  :  1727
 total energy-change (2. order) : 0.4015587E-02  (-0.4291244E-01)
 number of electron      55.9999991 magnetization       0.0177978
 augmentation part       29.3304211 magnetization       0.0182001

 Broyden mixing:
  rms(total) = 0.14494E+00    rms(broyden)= 0.14493E+00
  rms(prec ) = 0.31574E+00
  weight for this iteration     100.00

 eigenvalues of (default mixing * dielectric matrix)
  average eigenvalue GAMMA=   1.0668
  2.2553  0.8074  0.7081  0.4963

 Free energy of the ion-electron system (eV)
  ---------------------------------------------------
  alpha Z        PSCENC =       228.31989324
  Ewald energy   TEWEN  =     -4565.41384850
  -Hartree energ DENC   =     -1946.39222571
  -exchange      EXHF   =         0.00000000
  -V(xc)+E(xc)   XCENC  =       238.82670695
  PAW double counting   =      6202.09192519    -6637.99122768
  entropy T*S    EENTRO =         0.00000000
  eigenvalues    EBANDS =        28.00975075
  atomic energy  EATOM  =      6422.53809314
  Solvation  Ediel_sol  =         0.00000000
  ---------------------------------------------------
  free energy    TOTEN  =       -30.01093262 eV

  energy without entropy =      -30.01093262  energy(sigma->0) =      -30.01093262


--------------------------------------------------------------------------------------------------------




--------------------------------------- Iteration      1(  10)  ---------------------------------------


    POTLOK:  cpu time      0.0103: real time      0.0255
    SETDIJ:  cpu time      0.3773: real time      0.3782
    EDDIAG:  cpu time      0.0775: real time      0.0777
  RMM-DIIS:  cpu time      0.0333: real time      0.0333
    ORTHCH:  cpu time      0.0116: real time      0.0117
 BZINTS: Fermi energy:    4.825218;   56.000000 electrons
         Band energy: 0.272856E+02;  BLOECHL correction:    0.000000
       DOS:  cpu time      0.0023: real time      0.0023
    CHARGE:  cpu time      0.0138: real time      0.0139
    MIXING:  cpu time      0.0004: real time      0.0004
    --------------------------------------------
      LOOP:  cpu time      0.5265: real time      0.5430

 eigenvalue-minimisations  :  1693
 total energy-change (2. order) : 0.3859695E-01  (-0.5319459E-02)
 number of electron      55.9999990 magnetization       0.0047433
 augmentation part       29.4038216 magnetization       0.0094306

 Broyden mixing:
  rms(total) = 0.59815E-01    rms(broyden)= 0.59815E-01
  rms(prec ) = 0.12300E+00
  weight for this iteration     100.00

 eigenvalues of (default mixing * dielectric matrix)
  average eigenvalue GAMMA=   1.1142
  2.2764  0.9803  0.9803  0.5576  0.7765

 Free energy of the ion-electron system (eV)
  ---------------------------------------------------
  alpha Z        PSCENC =       228.31989324
  Ewald energy   TEWEN  =     -4565.41384850
  -Hartree energ DENC   =     -1945.36561924
  -exchange      EXHF   =         0.00000000
  -V(xc)+E(xc)   XCENC  =       238.81988739
  PAW double counting   =      6222.29029194    -6658.44667021
  entropy T*S    EENTRO =         0.00000000
  eigenvalues    EBANDS =        27.28563658
  atomic energy  EATOM  =      6422.53809314
  Solvation  Ediel_sol  =         0.00000000
  ---------------------------------------------------
  free energy    TOTEN  =       -29.97233567 eV

  energy without entropy =      -29.97233567  energy(sigma->0) =      -29.97233567


--------------------------------------------------------------------------------------------------------




--------------------------------------- Iteration      1(  11)  ---------------------------------------


    POTLOK:  cpu time      0.0094: real time      0.0250
    SETDIJ:  cpu time      0.3819: real time      0.3829
    EDDIAG:  cpu time      0.0776: real time      0.0777
  RMM-DIIS:  cpu time      0.0335: real time      0.0336
    ORTHCH:  cpu time      0.0116: real time      0.0116
 BZINTS: Fermi energy:    4.769021;   56.000000 electrons
         Band energy: 0.273601E+02;  BLOECHL correction:    0.000000
       DOS:  cpu time      0.0022: real time      0.0022
    CHARGE:  cpu time      0.0139: real time      0.0140
    MIXING:  cpu time      0.0003: real time      0.0003
    --------------------------------------------
      LOOP:  cpu time      0.5303: real time      0.5472

 eigenvalue-minimisations  :  1926
 total energy-change (2. order) : 0.2775226E-02  (-0.5267474E-02)
 number of electron      55.9999990 magnetization      -0.0012072
 augmentation part       29.4232963 magnetization      -0.0001640

 Broyden mixing:
  rms(total) = 0.18704E-01    rms(broyden)= 0.18700E-01
  rms(prec ) = 0.39663E-01
  weight for this iteration     100.00

 eigenvalues of (default mixing * dielectric matrix)
  average eigenvalue GAMMA=   1.0676
  2.4103  0.9111  0.9111  0.8960  0.5545  0.7224

 Free energy of the ion-electron system (eV)
  ---------------------------------------------------
  alpha Z        PSCENC =       228.31989324
  Ewald energy   TEWEN  =     -4565.41384850
  -Hartree energ DENC   =     -1945.52671110
  -exchange      EXHF   =         0.00000000
  -V(xc)+E(xc)   XCENC  =       238.86162135
  PAW double counting   =      6221.21496312    -6657.32371290
  entropy T*S    EENTRO =         0.00000000
  eigenvalues    EBANDS =        27.36014121
  atomic energy  EATOM  =      6422.53809314
  Solvation  Ediel_sol  =         0.00000000
  ---------------------------------------------------
  free energy    TOTEN  =       -29.96956044 eV

  energy without entropy =      -29.96956044  energy(sigma->0) =      -29.96956044


--------------------------------------------------------------------------------------------------------




--------------------------------------- Iteration      1(  12)  ---------------------------------------


    POTLOK:  cpu time      0.0093: real time      0.0242
    SETDIJ:  cpu time      0.3782: real time      0.3791
    EDDIAG:  cpu time      0.0777: real time      0.0780
  RMM-DIIS:  cpu time      0.0329: real time      0.0330
    ORTHCH:  cpu time      0.0116: real time      0.0117
 BZINTS: Fermi energy:    4.757543;   56.000000 electrons
         Band energy: 0.270331E+02;  BLOECHL correction:    0.000000
       DOS:  cpu time      0.0022: real time      0.0022
    CHARGE:  cpu time      0.0139: real time      0.0139
    MIXING:  cpu time      0.0003: real time      0.0003
    --------------------------------------------
      LOOP:  cpu time      0.5261: real time      0.5425

 eigenvalue-minimisations  :  1762
 total energy-change (2. order) : 0.6461919E-03  (-0.2766845E-03)
 number of electron      55.9999990 magnetization      -0.0008684
 augmentation part       29.4221564 magnetization      -0.0012229

 Broyden mixing:
  rms(total) = 0.87140E-02    rms(broyden)= 0.87139E-02
  rms(prec ) = 0.17706E-01
  weight for this iteration     100.00

 eigenvalues of (default mixing * dielectric matrix)
  average eigenvalue GAMMA=   1.1512
  2.4421  1.5970  0.9666  0.9666  0.8589  0.5560  0.6709

 Free energy of the ion-electron system (eV)
  ---------------------------------------------------
  alpha Z        PSCENC =       228.31989324
  Ewald energy   TEWEN  =     -4565.41384850
  -Hartree energ DENC   =     -1945.19993502
  -exchange      EXHF   =         0.00000000
  -V(xc)+E(xc)   XCENC  =       238.83639928
  PAW double counting   =      6221.83663581    -6657.91921063
  entropy T*S    EENTRO =         0.00000000
  eigenvalues    EBANDS =        27.03305845
  atomic energy  EATOM  =      6422.53809314
  Solvation  Ediel_sol  =         0.00000000
  ---------------------------------------------------
  free energy    TOTEN  =       -29.96891425 eV

  energy without entropy =      -29.96891425  energy(sigma->0) =      -29.96891425


--------------------------------------------------------------------------------------------------------




--------------------------------------- Iteration      1(  13)  ---------------------------------------


    POTLOK:  cpu time      0.0094: real time      0.0247
    SETDIJ:  cpu time      0.3777: real time      0.3786
    EDDIAG:  cpu time      0.0772: real time      0.0774
  RMM-DIIS:  cpu time      0.0342: real time      0.0343
    ORTHCH:  cpu time      0.0117: real time      0.0117
 BZINTS: Fermi energy:    4.748275;   56.000000 electrons
         Band energy: 0.265863E+02;  BLOECHL correction:    0.000000
       DOS:  cpu time      0.0022: real time      0.0022
    CHARGE:  cpu time      0.0138: real time      0.0139
    MIXING:  cpu time      0.0003: real time      0.0003
    --------------------------------------------
      LOOP:  cpu time      0.5265: real time      0.5431

 eigenvalue-minimisations  :  1880
 total energy-change (2. order) :-0.1523059E-03  (-0.2464271E-03)
 number of electron      55.9999990 magnetization      -0.0001640
 augmentation part       29.4294492 magnetization      -0.0003155

 Broyden mixing:
  rms(total) = 0.92243E-02    rms(broyden)= 0.92239E-02
  rms(prec ) = 0.19644E-01
  weight for this iteration     100.00

 eigenvalues of (default mixing * dielectric matrix)
  average eigenvalue GAMMA=   1.1705
  2.5322  2.2291  0.9153  0.9153  0.8471  0.7704  0.5592  0.5954

 Free energy of the ion-electron system (eV)
  ---------------------------------------------------
  alpha Z        PSCENC =       228.31989324
  Ewald energy   TEWEN  =     -4565.41384850
  -Hartree energ DENC   =     -1944.74423005
  -exchange      EXHF   =         0.00000000
  -V(xc)+E(xc)   XCENC  =       238.80333175
  PAW double counting   =      6222.49453455    -6658.55318140
  entropy T*S    EENTRO =         0.00000000
  eigenvalues    EBANDS =        26.58634072
  atomic energy  EATOM  =      6422.53809314
  Solvation  Ediel_sol  =         0.00000000
  ---------------------------------------------------
  free energy    TOTEN  =       -29.96906655 eV

  energy without entropy =      -29.96906655  energy(sigma->0) =      -29.96906655


--------------------------------------------------------------------------------------------------------




--------------------------------------- Iteration      1(  14)  ---------------------------------------


    POTLOK:  cpu time      0.0092: real time      0.0242
    SETDIJ:  cpu time      0.3778: real time      0.3789
    EDDIAG:  cpu time      0.0785: real time      0.0787
  RMM-DIIS:  cpu time      0.0317: real time      0.0318
    ORTHCH:  cpu time      0.0116: real time      0.0117
 BZINTS: Fermi energy:    4.755556;   56.000000 electrons
         Band energy: 0.268252E+02;  BLOECHL correction:    0.000000
       DOS:  cpu time      0.0022: real time      0.0022
    CHARGE:  cpu time      0.0139: real time      0.0139
    MIXING:  cpu time      0.0004: real time      0.0004
    --------------------------------------------
      LOOP:  cpu time      0.5254: real time      0.5418

 eigenvalue-minimisations  :  1661
 total energy-change (2. order) : 0.1804308E-03  (-0.2606589E-04)
 number of electron      55.9999990 magnetization       0.0000013
 augmentation part       29.4266318 magnetization      -0.0001604

 Broyden mixing:
  rms(total) = 0.38703E-02    rms(broyden)= 0.38703E-02
  rms(prec ) = 0.82333E-02
  weight for this iteration     100.00

 eigenvalues of (default mixing * dielectric matrix)
  average eigenvalue GAMMA=   1.2038
  2.5328  2.5328  0.9363  0.9363  1.0254  0.9057  0.5565  0.7640  0.6440

 Free energy of the ion-electron system (eV)
  ---------------------------------------------------
  alpha Z        PSCENC =       228.31989324
  Ewald energy   TEWEN  =     -4565.41384850
  -Hartree energ DENC   =     -1944.93611064
  -exchange      EXHF   =         0.00000000
  -V(xc)+E(xc)   XCENC  =       238.81607157
  PAW double counting   =      6222.53536930    -6658.65355591
  entropy T*S    EENTRO =         0.00000000
  eigenvalues    EBANDS =        26.82520168
  atomic energy  EATOM  =      6422.53809314
  Solvation  Ediel_sol  =         0.00000000
  ---------------------------------------------------
  free energy    TOTEN  =       -29.96888612 eV

  energy without entropy =      -29.96888612  energy(sigma->0) =      -29.96888612


--------------------------------------------------------------------------------------------------------




--------------------------------------- Iteration      1(  15)  ---------------------------------------


    POTLOK:  cpu time      0.0099: real time      0.0261
    SETDIJ:  cpu time      0.3779: real time      0.3788
    EDDIAG:  cpu time      0.0794: real time      0.0796
  RMM-DIIS:  cpu time      0.0290: real time      0.0291
    ORTHCH:  cpu time      0.0131: real time      0.0132
 BZINTS: Fermi energy:    4.760591;   56.000000 electrons
         Band energy: 0.269617E+02;  BLOECHL correction:    0.000000
       DOS:  cpu time      0.0022: real time      0.0022
    CHARGE:  cpu time      0.0157: real time      0.0158
    MIXING:  cpu time      0.0005: real time      0.0005
    --------------------------------------------
      LOOP:  cpu time      0.5277: real time      0.5452

 eigenvalue-minimisations  :  1610
 total energy-change (2. order) : 0.1196298E-04  (-0.2780290E-04)
 number of electron      55.9999990 magnetization      -0.0000000
 augmentation part       29.4249516 magnetization       0.0001035

 Broyden mixing:
  rms(total) = 0.14715E-02    rms(broyden)= 0.14712E-02
  rms(prec ) = 0.30333E-02
  weight for this iteration     100.00

 eigenvalues of (default mixing * dielectric matrix)
  average eigenvalue GAMMA=   1.1827
  2.4896  2.4896  1.3066  0.9116  0.9116  0.9089  0.9089  0.5569  0.7229  0.6206

 Free energy of the ion-electron system (eV)
  ---------------------------------------------------
  alpha Z        PSCENC =       228.31989324
  Ewald energy   TEWEN  =     -4565.41384850
  -Hartree energ DENC   =     -1945.06710569
  -exchange      EXHF   =         0.00000000
  -V(xc)+E(xc)   XCENC  =       238.82501049
  PAW double counting   =      6222.17895566    -6658.31156633
  entropy T*S    EENTRO =         0.00000000
  eigenvalues    EBANDS =        26.96169383
  atomic energy  EATOM  =      6422.53809314
  Solvation  Ediel_sol  =         0.00000000
  ---------------------------------------------------
  free energy    TOTEN  =       -29.96887416 eV

  energy without entropy =      -29.96887416  energy(sigma->0) =      -29.96887416


--------------------------------------------------------------------------------------------------------




--------------------------------------- Iteration      1(  16)  ---------------------------------------


    POTLOK:  cpu time      0.0128: real time      0.0275
    SETDIJ:  cpu time      0.3829: real time      0.3840
    EDDIAG:  cpu time      0.0838: real time      0.0840
  RMM-DIIS:  cpu time      0.0221: real time      0.0222
    ORTHCH:  cpu time      0.0125: real time      0.0125
 BZINTS: Fermi energy:    4.760189;   56.000000 electrons
         Band energy: 0.269469E+02;  BLOECHL correction:    0.000000
       DOS:  cpu time      0.0022: real time      0.0022
    --------------------------------------------
      LOOP:  cpu time      0.5162: real time      0.5323

 eigenvalue-minimisations  :   975
 total energy-change (2. order) : 0.4165689E-05  (-0.1198038E-05)
 number of electron      55.9999990 magnetization      -0.0000000
 augmentation part       29.4249516 magnetization       0.0001035

 Free energy of the ion-electron system (eV)
  ---------------------------------------------------
  alpha Z        PSCENC =       228.31989324
  Ewald energy   TEWEN  =     -4565.41384850
  -Hartree energ DENC   =     -1945.05456147
  -exchange      EXHF   =         0.00000000
  -V(xc)+E(xc)   XCENC  =       238.82377414
  PAW double counting   =      6222.24537368    -6658.37446031
  entropy T*S    EENTRO =         0.00000000
  eigenvalues    EBANDS =        26.94686608
  atomic energy  EATOM  =      6422.53809314
  Solvation  Ediel_sol  =         0.00000000
  ---------------------------------------------------
  free energy    TOTEN  =       -29.96886999 eV

  energy without entropy =      -29.96886999  energy(sigma->0) =      -29.96886999


--------------------------------------------------------------------------------------------------------




 average (electrostatic) potential at core
  the test charge radii are     0.9430  0.7215
  (the norm of the test charge is              1.0000)
       1 -65.8440       2 -65.8440       3 -65.8440       4 -65.8440       5 -71.9579
       6 -71.9579
 
 
 
 E-fermi :   4.7602     XC(G=0): -11.3306     alpha+bet :-10.2360

 Fermi energy:         4.7601891916

 spin component 1

 k-point     1 :       0.0000    0.0000    0.0000
  band No.  band energies     occupation 
      1     -15.4617      1.00000
      2     -14.6862      1.00000
      3      -2.6732      1.00000
      4      -2.6732      1.00000
      5      -2.6732      1.00000
      6      -0.2522      1.00000
      7      -0.1829      1.00000
      8      -0.1829      1.00000
      9      -0.1829      1.00000
     10       1.6361      1.00000
     11       1.6361      1.00000
     12       1.7565      1.00000
     13       1.7565      1.00000
     14       1.7565      1.00000
     15       2.6689      1.00000
     16       2.6689      1.00000
     17       2.7775      1.00000
     18       2.7775      1.00000
     19       2.7775      1.00000
     20       2.9331      1.00000
     21       2.9331      1.00000
     22       2.9331      1.00000
     23       3.1245      1.00000
     24       3.1245      1.00000
     25       3.1245      1.00000
     26       4.7130      1.00000
     27       4.7130      1.00000
     28       4.7130      1.00000
     29       5.2388      0.00000
     30       5.8619      0.00000
     31       5.8619      0.00000
     32      12.6725      0.00000
     33      12.6725      0.00000
     34      12.6725      0.00000
     35      14.0140      0.00000
     36      14.0140      0.00000

 k-point     2 :       0.2000    0.0000    0.0000
  band No.  band energies     occupation 
      1     -15.3869      1.00000
      2     -14.7590      1.00000
      3      -2.5703      1.00000
      4      -2.5243      1.00000
      5      -2.5243      1.00000
      6      -0.9247      1.00000
      7      -0.5488      1.00000
      8      -0.5488      1.00000
      9       0.2992      1.00000
     10       1.7076      1.00000
     11       1.7535      1.00000
     12       1.8552      1.00000
     13       2.0233      1.00000
     14       2.0233      1.00000
     15       2.6504      1.00000
     16       2.6903      1.00000
     17       2.6973      1.00000
     18       2.7723      1.00000
     19       2.8189      1.00000
     20       2.8189      1.00000
     21       2.9646      1.00000
     22       3.0166      1.00000
     23       3.0166      1.00000
     24       3.1013      1.00000
     25       3.1013      1.00000
     26       3.6067      1.00000
     27       4.6133      1.00000
     28       4.6133      1.00000
     29       5.5854      0.00000
     30       6.4851      0.00000
     31       7.0296      0.00000
     32      12.1042      0.00000
     33      12.2756      0.00000
     34      12.4879      0.00000
     35      12.4883      0.00000
     36      13.2316      0.00000

 k-point     3 :       0.4000    0.0000    0.0000
  band No.  band energies     occupation 
      1     -15.1915      1.00000
      2     -14.9513      1.00000
      3      -2.2438      1.00000
      4      -2.1572      1.00000
      5      -2.1572      1.00000
      6      -1.6749      1.00000
      7      -1.1689      1.00000
      8      -1.1689      1.00000
      9       0.8809      1.00000
     10       1.5258      1.00000
     11       1.9288      1.00000
     12       2.1756      1.00000
     13       2.3059      1.00000
     14       2.3989      1.00000
     15       2.3989      1.00000
     16       2.4308      1.00000
     17       2.6202      1.00000
     18       2.7146      1.00000
     19       2.7146      1.00000
     20       2.7674      1.00000
     21       2.7724      1.00000
     22       2.8679      1.00000
     23       3.0136      1.00000
     24       3.0136      1.00000
     25       3.4130      1.00000
     26       3.4130      1.00000
     27       4.3714      1.00000
     28       4.3714      1.00000
     29       6.4738      0.00000
     30       7.3560      0.00000
     31       7.9570      0.00000
     32       9.9395      0.00000
     33      12.1974      0.00000
     34      12.2025      0.00000
     35      12.4345      0.00000
     36      12.4390      0.00000

 k-point     4 :       0.2000    0.2000    0.0000
  band No.  band energies     occupation 
      1     -15.3239      1.00000
      2     -14.8151      1.00000
      3      -2.7076      1.00000
      4      -2.4140      1.00000
      5      -2.1789      1.00000
      6      -1.4162      1.00000
      7      -0.7779      1.00000
      8      -0.5082      1.00000
      9       0.4653      1.00000
     10       1.7619      1.00000
     11       1.8269      1.00000
     12       1.9615      1.00000
     13       2.0443      1.00000
     14       2.2011      1.00000
     15       2.6289      1.00000
     16       2.6306      1.00000
     17       2.6454      1.00000
     18       2.6631      1.00000
     19       2.8175      1.00000
     20       2.8923      1.00000
     21       2.9308      1.00000
     22       2.9492      1.00000
     23       2.9777      1.00000
     24       3.0890      1.00000
     25       3.1281      1.00000
     26       3.5919      1.00000
     27       4.2086      1.00000
     28       4.5214      1.00000
     29       5.8880      0.00000
     30       7.0332      0.00000
     31       7.4921      0.00000
     32      10.8851      0.00000
     33      11.0814      0.00000
     34      12.3010      0.00000
     35      12.6570      0.00000
     36      13.7447      0.00000

 k-point     5 :       0.4000    0.2000    0.0000
  band No.  band energies     occupation 
      1     -15.1613      1.00000
      2     -14.9665      1.00000
      3      -2.6072      1.00000
      4      -2.3219      1.00000
      5      -1.7916      1.00000
      6      -1.7323      1.00000
      7      -1.1968      1.00000
      8      -0.9442      1.00000
      9       1.0069      1.00000
     10       1.6195      1.00000
     11       1.9223      1.00000
     12       2.1586      1.00000
     13       2.2056      1.00000
     14       2.3315      1.00000
     15       2.3897      1.00000
     16       2.4023      1.00000
     17       2.5673      1.00000
     18       2.6880      1.00000
     19       2.7429      1.00000
     20       2.8030      1.00000
     21       2.8479      1.00000
     22       2.8712      1.00000
     23       3.0449      1.00000
     24       3.1638      1.00000
     25       3.3766      1.00000
     26       3.4124      1.00000
     27       4.1783      1.00000
     28       4.2951      1.00000
     29       6.5997      0.00000
     30       7.2720      0.00000
     31       8.1487      0.00000
     32       9.2961      0.00000
     33      11.4612      0.00000
     34      11.9855      0.00000
     35      12.0574      0.00000
     36      12.6666      0.00000

 k-point     6 :       0.4000    0.4000    0.0000
  band No.  band energies     occupation 
      1     -15.0891      1.00000
      2     -15.0144      1.00000
      3      -2.7845      1.00000
      4      -2.6610      1.00000
      5      -1.6938      1.00000
      6      -1.5524      1.00000
      7      -1.0930      1.00000
      8      -0.8861      1.00000
      9       1.3755      1.00000
     10       1.7164      1.00000
     11       1.9194      1.00000
     12       1.9463      1.00000
     13       2.3091      1.00000
     14       2.3394      1.00000
     15       2.3744      1.00000
     16       2.3916      1.00000
     17       2.5155      1.00000
     18       2.5711      1.00000
     19       2.7443      1.00000
     20       2.7888      1.00000
     21       2.8143      1.00000
     22       2.8302      1.00000
     23       3.1628      1.00000
     24       3.2478      1.00000
     25       3.4302      1.00000
     26       3.4591      1.00000
     27       4.0353      1.00000
     28       4.1319      1.00000
     29       6.6474      0.00000
     30       6.8017      0.00000
     31       8.4657      0.00000
     32       8.6653      0.00000
     33      11.6115      0.00000
     34      11.6229      0.00000
     35      12.1429      0.00000
     36      13.0806      0.00000

 k-point     7 :       0.2000    0.2000    0.2000
  band No.  band energies     occupation 
      1     -15.2765      1.00000
      2     -14.8521      1.00000
      3      -2.5807      1.00000
      4      -2.5807      1.00000
      5      -1.9523      1.00000
      6      -1.6705      1.00000
      7      -0.7404      1.00000
      8      -0.7404      1.00000
      9       0.6432      1.00000
     10       1.7846      1.00000
     11       1.7846      1.00000
     12       2.1652      1.00000
     13       2.1909      1.00000
     14       2.1909      1.00000
     15       2.5260      1.00000
     16       2.5260      1.00000
     17       2.5956      1.00000
     18       2.5956      1.00000
     19       2.7917      1.00000
     20       2.9176      1.00000
     21       2.9176      1.00000
     22       2.9916      1.00000
     23       3.0464      1.00000
     24       3.0464      1.00000
     25       3.0766      1.00000
     26       3.8569      1.00000
     27       3.8569      1.00000
     28       4.3941      1.00000
     29       6.1768      0.00000
     30       7.5994      0.00000
     31       7.5994      0.00000
     32       9.9643      0.00000
     33      10.7987      0.00000
     34      10.7987      0.00000
     35      13.6821      0.00000
     36      13.6821      0.00000

 k-point     8 :       0.4000    0.2000    0.2000
  band No.  band energies     occupation 
      1     -15.1694      1.00000
      2     -14.9424      1.00000
      3      -2.6371      1.00000
      4      -2.3009      1.00000
      5      -2.2394      1.00000
      6      -1.3810      1.00000
      7      -1.1596      1.00000
      8      -0.9490      1.00000
      9       1.1062      1.00000
     10       1.6393      1.00000
     11       1.8413      1.00000
     12       2.2082      1.00000
     13       2.2311      1.00000
     14       2.3354      1.00000
     15       2.3872      1.00000
     16       2.4382      1.00000
     17       2.4586      1.00000
     18       2.6606      1.00000
     19       2.7241      1.00000
     20       2.8863      1.00000
     21       2.8999      1.00000
     22       2.9356      1.00000
     23       2.9717      1.00000
     24       3.2270      1.00000
     25       3.2940      1.00000
     26       3.5311      1.00000
     27       4.1196      1.00000
     28       4.1582      1.00000
     29       6.7916      0.00000
     30       7.5921      0.00000
     31       7.9028      0.00000
     32       9.3372      0.00000
     33       9.8518      0.00000
     34      10.6296      0.00000
     35      13.8786      0.00000
     36      15.0043      0.00000

 k-point     9 :       0.4000    0.4000    0.2000
  band No.  band energies     occupation 
      1     -15.1788      1.00000
      2     -14.9068      1.00000
      3      -2.7013      1.00000
      4      -2.6227      1.00000
      5      -2.1593      1.00000
      6      -1.2496      1.00000
      7      -1.0891      1.00000
      8      -0.9635      1.00000
      9       1.3499      1.00000
     10       1.6134      1.00000
     11       1.6839      1.00000
     12       2.1922      1.00000
     13       2.2798      1.00000
     14       2.3823      1.00000
     15       2.3876      1.00000
     16       2.4727      1.00000
     17       2.5222      1.00000
     18       2.5634      1.00000
     19       2.7279      1.00000
     20       2.8303      1.00000
     21       2.9161      1.00000
     22       2.9401      1.00000
     23       3.0893      1.00000
     24       3.1081      1.00000
     25       3.5115      1.00000
     26       3.6488      1.00000
     27       3.9522      1.00000
     28       4.0919      1.00000
     29       6.6100      0.00000
     30       7.6151      0.00000
     31       8.1703      0.00000
     32       8.4958      0.00000
     33       9.9378      0.00000
     34      10.1896      0.00000
     35      14.2063      0.00000
     36      14.5175      0.00000

 k-point    10 :       0.4000    0.4000    0.4000
  band No.  band energies     occupation 
      1     -15.2442      1.00000
      2     -14.8122      1.00000
      3      -2.5663      1.00000
      4      -2.5508      1.00000
      5      -2.5508      1.00000
      6      -1.0963      1.00000
      7      -1.0963      1.00000
      8      -1.0742      1.00000
      9       1.3772      1.00000
     10       1.5011      1.00000
     11       1.5011      1.00000
     12       2.1947      1.00000
     13       2.1947      1.00000
     14       2.3816      1.00000
     15       2.3816      1.00000
     16       2.4419      1.00000
     17       2.6560      1.00000
     18       2.7180      1.00000
     19       2.7180      1.00000
     20       2.9489      1.00000
     21       2.9618      1.00000
     22       2.9618      1.00000
     23       3.0239      1.00000
     24       3.0239      1.00000
     25       3.7422      1.00000
     26       3.8380      1.00000
     27       4.0439      1.00000
     28       4.0439      1.00000
     29       7.1305      0.00000
     30       7.3741      0.00000
     31       7.3741      0.00000
     32       9.0352      0.00000
     33       9.5682      0.00000
     34       9.5682      0.00000
     35      12.7281      0.00000
     36      13.2643      0.00000
 Fermi energy:         4.7601891916

 spin component 2

 k-point     1 :       0.0000    0.0000    0.0000
  band No.  band energies     occupation 
      1     -15.4617      1.00000
      2     -14.6863      1.00000
      3      -2.6732      1.00000
      4      -2.6732      1.00000
      5      -2.6732      1.00000
      6      -0.2522      1.00000
      7      -0.1830      1.00000
      8      -0.1830      1.00000
      9      -0.1830      1.00000
     10       1.6361      1.00000
     11       1.6361      1.00000
     12       1.7565      1.00000
     13       1.7565      1.00000
     14       1.7565      1.00000
     15       2.6689      1.00000
     16       2.6689      1.00000
     17       2.7775      1.00000
     18       2.7775      1.00000
     19       2.7775      1.00000
     20       2.9331      1.00000
     21       2.9331      1.00000
     22       2.9331      1.00000
     23       3.1245      1.00000
     24       3.1245      1.00000
     25       3.1245      1.00000
     26       4.7131      1.00000
     27       4.7131      1.00000
     28       4.7131      1.00000
     29       5.2388      0.00000
     30       5.8619      0.00000
     31       5.8619      0.00000
     32      12.6725      0.00000
     33      12.6725      0.00000
     34      12.6725      0.00000
     35      14.0140      0.00000
     36      14.0140      0.00000

 k-point     2 :       0.2000    0.0000    0.0000
  band No.  band energies     occupation 
      1     -15.3870      1.00000
      2     -14.7591      1.00000
      3      -2.5703      1.00000
      4      -2.5243      1.00000
      5      -2.5243      1.00000
      6      -0.9247      1.00000
      7      -0.5489      1.00000
      8      -0.5489      1.00000
      9       0.2992      1.00000
     10       1.7076      1.00000
     11       1.7535      1.00000
     12       1.8552      1.00000
     13       2.0233      1.00000
     14       2.0233      1.00000
     15       2.6504      1.00000
     16       2.6903      1.00000
     17       2.6973      1.00000
     18       2.7723      1.00000
     19       2.8189      1.00000
     20       2.8189      1.00000
     21       2.9646      1.00000
     22       3.0166      1.00000
     23       3.0166      1.00000
     24       3.1014      1.00000
     25       3.1014      1.00000
     26       3.6067      1.00000
     27       4.6134      1.00000
     28       4.6134      1.00000
     29       5.5854      0.00000
     30       6.4851      0.00000
     31       7.0296      0.00000
     32      12.1042      0.00000
     33      12.2756      0.00000
     34      12.4879      0.00000
     35      12.4883      0.00000
     36      13.2316      0.00000

 k-point     3 :       0.4000    0.0000    0.0000
  band No.  band energies     occupation 
      1     -15.1915      1.00000
      2     -14.9514      1.00000
      3      -2.2439      1.00000
      4      -2.1572      1.00000
      5      -2.1572      1.00000
      6      -1.6750      1.00000
      7      -1.1689      1.00000
      8      -1.1689      1.00000
      9       0.8809      1.00000
     10       1.5259      1.00000
     11       1.9288      1.00000
     12       2.1756      1.00000
     13       2.3059      1.00000
     14       2.3989      1.00000
     15       2.3989      1.00000
     16       2.4308      1.00000
     17       2.6202      1.00000
     18       2.7146      1.00000
     19       2.7146      1.00000
     20       2.7674      1.00000
     21       2.7724      1.00000
     22       2.8680      1.00000
     23       3.0136      1.00000
     24       3.0136      1.00000
     25       3.4130      1.00000
     26       3.4130      1.00000
     27       4.3714      1.00000
     28       4.3714      1.00000
     29       6.4738      0.00000
     30       7.3560      0.00000
     31       7.9570      0.00000
     32       9.9395      0.00000
     33      12.1974      0.00000
     34      12.1974      0.00000
     35      12.4345      0.00000
     36      12.4352      0.00000

 k-point     4 :       0.2000    0.2000    0.0000
  band No.  band energies     occupation 
[...]
     34      10.7986      0.00000
     35      13.6821      0.00000
     36      13.6821      0.00000

 k-point     8 :       0.4000    0.2000    0.2000
  band No.  band energies     occupation 
      1     -15.1694      1.00000
      2     -14.9424      1.00000
      3      -2.6372      1.00000
      4      -2.3009      1.00000
      5      -2.2394      1.00000
      6      -1.3810      1.00000
      7      -1.1596      1.00000
      8      -0.9490      1.00000
      9       1.1062      1.00000
     10       1.6394      1.00000
     11       1.8413      1.00000
     12       2.2082      1.00000
     13       2.2311      1.00000
     14       2.3354      1.00000
     15       2.3872      1.00000
     16       2.4382      1.00000
     17       2.4586      1.00000
     18       2.6606      1.00000
     19       2.7241      1.00000
     20       2.8863      1.00000
     21       2.8999      1.00000
     22       2.9356      1.00000
     23       2.9717      1.00000
     24       3.2270      1.00000
     25       3.2941      1.00000
     26       3.5311      1.00000
     27       4.1196      1.00000
     28       4.1582      1.00000
     29       6.7916      0.00000
     30       7.5921      0.00000
     31       7.9028      0.00000
     32       9.3372      0.00000
     33       9.8518      0.00000
     34      10.6296      0.00000
     35      13.8786      0.00000
     36      15.0354      0.00000

 k-point     9 :       0.4000    0.4000    0.2000
  band No.  band energies     occupation 
      1     -15.1788      1.00000
      2     -14.9068      1.00000
      3      -2.7013      1.00000
      4      -2.6227      1.00000
      5      -2.1594      1.00000
      6      -1.2497      1.00000
      7      -1.0891      1.00000
      8      -0.9636      1.00000
      9       1.3500      1.00000
     10       1.6134      1.00000
     11       1.6839      1.00000
     12       2.1922      1.00000
     13       2.2798      1.00000
     14       2.3823      1.00000
     15       2.3876      1.00000
     16       2.4727      1.00000
     17       2.5222      1.00000
     18       2.5634      1.00000
     19       2.7279      1.00000
     20       2.8303      1.00000
     21       2.9161      1.00000
     22       2.9401      1.00000
     23       3.0893      1.00000
     24       3.1081      1.00000
     25       3.5115      1.00000
     26       3.6488      1.00000
     27       3.9523      1.00000
     28       4.0919      1.00000
     29       6.6100      0.00000
     30       7.6151      0.00000
     31       8.1703      0.00000
     32       8.4958      0.00000
     33       9.9378      0.00000
     34      10.1896      0.00000
     35      14.2054      0.00000
     36      14.5165      0.00000

 k-point    10 :       0.4000    0.4000    0.4000
  band No.  band energies     occupation 
      1     -15.2442      1.00000
      2     -14.8122      1.00000
      3      -2.5663      1.00000
      4      -2.5508      1.00000
      5      -2.5508      1.00000
      6      -1.0963      1.00000
      7      -1.0963      1.00000
      8      -1.0743      1.00000
      9       1.3772      1.00000
     10       1.5011      1.00000
     11       1.5011      1.00000
     12       2.1947      1.00000
     13       2.1947      1.00000
     14       2.3816      1.00000
     15       2.3816      1.00000
     16       2.4419      1.00000
     17       2.6561      1.00000
     18       2.7180      1.00000
     19       2.7180      1.00000
     20       2.9489      1.00000
     21       2.9618      1.00000
     22       2.9618      1.00000
     23       3.0239      1.00000
     24       3.0239      1.00000
     25       3.7422      1.00000
     26       3.8381      1.00000
     27       4.0440      1.00000
     28       4.0440      1.00000
     29       7.1305      0.00000
     30       7.3741      0.00000
     31       7.3741      0.00000
     32       9.0352      0.00000
     33       9.5682      0.00000
     34       9.5682      0.00000
     35      12.7280      0.00000
     36      13.2643      0.00000


--------------------------------------------------------------------------------------------------------


 soft charge-density along one line, spin component           1
         0         1         2         3         4         5         6         7         8         9
 total charge-density along one line
 
 soft charge-density along one line, spin component           2
         0         1         2         3         4         5         6         7         8         9
 total charge-density along one line
 
 pseudopotential strength for first ion, spin component:           1
 -4.665   0.050   0.013   0.050   0.000  -3.416  -0.040  -0.014
  0.050  -4.665   0.007  -0.050  -0.012  -0.040  -3.416  -0.007
  0.013   0.007  -4.626   0.007  -0.000  -0.014  -0.007  -3.444
  0.050  -0.050   0.007  -4.665   0.012  -0.040   0.040  -0.007
  0.000  -0.012  -0.000   0.012  -4.626  -0.000   0.012   0.000
 -3.416  -0.040  -0.014  -0.040  -0.000   9.383   0.027   0.008
 -0.040  -3.416  -0.007   0.040   0.012   0.027   9.383   0.004
 -0.014  -0.007  -3.444  -0.007   0.000   0.008   0.004   9.403
 -0.040   0.040  -0.007  -3.416  -0.012   0.027  -0.027   0.004
 -0.000   0.012   0.000  -0.012  -3.444   0.000  -0.007   0.000
  0.016  -0.016  -0.000  -0.016  -0.000   0.001  -0.001  -0.000
  0.030  -0.030  -0.000  -0.030  -0.000   0.003  -0.003  -0.000
 -0.000  -0.000   0.000   0.000   0.000  -0.000   0.000  -0.000
  0.000  -0.000  -0.000  -0.000  -0.000  -0.000   0.000  -0.000
 -0.000   0.000   0.000  -0.000  -0.000   0.000  -0.000  -0.000
 -0.000  -0.000   0.000   0.000   0.000  -0.000   0.000   0.000
  0.000  -0.000  -0.000  -0.000   0.000  -0.000  -0.000  -0.000
 -0.000   0.000   0.000  -0.000  -0.000  -0.000  -0.000   0.000
 pseudopotential strength for first ion, spin component:           2
 -4.665   0.050   0.013   0.050   0.000  -3.416  -0.040  -0.014
  0.050  -4.665   0.007  -0.050  -0.011  -0.040  -3.416  -0.007
  0.013   0.007  -4.626   0.007  -0.000  -0.014  -0.007  -3.444
  0.050  -0.050   0.007  -4.665   0.011  -0.040   0.040  -0.007
  0.000  -0.011  -0.000   0.011  -4.626  -0.000   0.012   0.000
 -3.416  -0.040  -0.014  -0.040  -0.000   9.383   0.027   0.008
 -0.040  -3.416  -0.007   0.040   0.012   0.027   9.383   0.004
 -0.014  -0.007  -3.444  -0.007   0.000   0.008   0.004   9.403
 -0.040   0.040  -0.007  -3.416  -0.012   0.027  -0.027   0.004
 -0.000   0.012   0.000  -0.012  -3.444   0.000  -0.007   0.000
  0.016  -0.016  -0.000  -0.016  -0.000   0.001  -0.001  -0.000
  0.030  -0.030  -0.000  -0.030  -0.000   0.003  -0.003  -0.000
 -0.000  -0.000   0.000  -0.000   0.000  -0.000   0.000  -0.000
 -0.000  -0.000  -0.000  -0.000  -0.000  -0.000   0.000  -0.000
 -0.000  -0.000   0.000  -0.000  -0.000   0.000  -0.000  -0.000
 -0.000  -0.000   0.000   0.000   0.000  -0.000   0.000   0.000
  0.000  -0.000  -0.000  -0.000  -0.000  -0.000  -0.000  -0.000
 -0.000   0.000   0.000  -0.000  -0.000  -0.000  -0.000   0.000
 total augmentation occupancy for first ion, spin component:           1
  1.889   0.065  -0.011   0.065   0.000  -0.001  -0.039   0.005  -0.039  -0.000  -0.094  -0.046   0.000   0.000   0.000   0.000
  0.065   1.889  -0.005  -0.065   0.009  -0.039  -0.001   0.002   0.039  -0.004   0.094   0.046   0.000   0.000   0.000   0.000
 -0.011  -0.005   1.968  -0.005  -0.000   0.005   0.002  -0.043   0.002  -0.000   0.000   0.000   0.000   0.000   0.000   0.000
  0.065  -0.065  -0.005   1.889  -0.009  -0.039   0.039   0.002  -0.001   0.004   0.094   0.046   0.000   0.000   0.000   0.000
  0.000   0.009   0.000  -0.009   1.968  -0.000  -0.004  -0.000   0.004  -0.043   0.000   0.000   0.000   0.000   0.000   0.000
 -0.001  -0.039   0.005  -0.039  -0.000   0.038  -0.025  -0.008  -0.025  -0.000   0.176  -0.028   0.000   0.000   0.000   0.000
 -0.039  -0.001   0.002   0.039  -0.004  -0.025   0.038  -0.004   0.025   0.007  -0.176   0.028   0.000   0.000   0.000   0.000
  0.005   0.002  -0.043   0.002  -0.000  -0.008  -0.004   0.017  -0.004   0.000  -0.000   0.000   0.000   0.000   0.000   0.000
 -0.039   0.039   0.002  -0.001   0.004  -0.025   0.025  -0.004   0.038  -0.007  -0.176   0.028   0.000   0.000   0.000   0.000
 -0.000  -0.004  -0.000   0.004  -0.043  -0.000   0.007   0.000  -0.007   0.017  -0.000   0.000   0.000   0.000   0.000   0.000
 -0.094   0.094   0.000   0.094   0.000   0.176  -0.176  -0.000  -0.176  -0.000   1.897  -0.242   0.000   0.000   0.000   0.000
 -0.046   0.046   0.000   0.046   0.000  -0.028   0.028   0.000   0.028   0.000  -0.242   0.049   0.000   0.000   0.000   0.000
  0.000   0.000   0.000   0.000   0.000   0.000   0.000   0.000   0.000   0.000   0.000   0.000   0.238  -0.134   0.134  -0.027
  0.000   0.000   0.000   0.000   0.000   0.000   0.000   0.000   0.000   0.000   0.000   0.000  -0.134   0.238  -0.134   0.019
  0.000   0.000   0.000   0.000   0.000   0.000   0.000   0.000   0.000   0.000   0.000   0.000   0.134  -0.134   0.238  -0.019
  0.000   0.000   0.000   0.000   0.000   0.000   0.000   0.000   0.000   0.000   0.000   0.000  -0.027   0.019  -0.019   0.004
  0.000   0.000   0.000   0.000   0.000   0.000   0.000   0.000   0.000   0.000   0.000   0.000   0.019  -0.027   0.019  -0.003
  0.000   0.000   0.000   0.000   0.000   0.000   0.000   0.000   0.000   0.000   0.000   0.000  -0.019   0.019  -0.027   0.003
 total augmentation occupancy for first ion, spin component:           2
 -0.000   0.000   0.000   0.000   0.000  -0.000   0.000   0.000   0.000   0.000  -0.000   0.000   0.000   0.000   0.000   0.000
  0.000  -0.000   0.000  -0.000  -0.000   0.000  -0.000   0.000  -0.000  -0.000   0.000  -0.000   0.000   0.000   0.000   0.000
  0.000   0.000  -0.000   0.000  -0.000   0.000   0.000  -0.000   0.000  -0.000   0.000  -0.000   0.000   0.000   0.000   0.000
  0.000  -0.000   0.000  -0.000   0.000   0.000  -0.000   0.000  -0.000   0.000   0.000  -0.000   0.000   0.000   0.000   0.000
  0.000  -0.000  -0.000   0.000  -0.000   0.000  -0.000  -0.000   0.000  -0.000   0.000  -0.000   0.000   0.000   0.000   0.000
 -0.000   0.000   0.000   0.000   0.000  -0.000   0.000  -0.000   0.000   0.000  -0.000   0.000   0.000   0.000   0.000   0.000
  0.000  -0.000   0.000  -0.000  -0.000   0.000  -0.000  -0.000  -0.000   0.000   0.000  -0.000   0.000   0.000   0.000   0.000
  0.000   0.000  -0.000   0.000  -0.000  -0.000  -0.000   0.000  -0.000   0.000   0.000  -0.000   0.000   0.000   0.000   0.000
  0.000  -0.000   0.000  -0.000   0.000   0.000  -0.000  -0.000  -0.000  -0.000   0.000  -0.000   0.000   0.000   0.000   0.000
  0.000  -0.000  -0.000   0.000  -0.000   0.000   0.000   0.000  -0.000   0.000   0.000  -0.000   0.000   0.000   0.000   0.000
 -0.000   0.000   0.000   0.000   0.000  -0.000   0.000   0.000   0.000   0.000  -0.000   0.000   0.000   0.000   0.000   0.000
  0.000  -0.000  -0.000  -0.000  -0.000   0.000  -0.000  -0.000  -0.000  -0.000   0.000  -0.000   0.000   0.000   0.000   0.000
  0.000   0.000   0.000   0.000   0.000   0.000   0.000   0.000   0.000   0.000   0.000   0.000  -0.000   0.000  -0.000   0.000
  0.000   0.000   0.000   0.000   0.000   0.000   0.000   0.000   0.000   0.000   0.000   0.000   0.000  -0.000   0.000   0.000
  0.000   0.000   0.000   0.000   0.000   0.000   0.000   0.000   0.000   0.000   0.000   0.000  -0.000   0.000  -0.000  -0.000
  0.000   0.000   0.000   0.000   0.000   0.000   0.000   0.000   0.000   0.000   0.000   0.000   0.000   0.000  -0.000   0.000
  0.000   0.000   0.000   0.000   0.000   0.000   0.000   0.000   0.000   0.000   0.000   0.000   0.000   0.000   0.000  -0.000
  0.000   0.000   0.000   0.000   0.000   0.000   0.000   0.000   0.000   0.000   0.000   0.000  -0.000   0.000   0.000   0.000


------------------------ aborting loop because EDIFF is reached ----------------------------------------





 total charge

# of ion       s       p       d       tot
------------------------------------------
    1        0.431   0.337   9.223   9.991
    2        0.431   0.337   9.223   9.991
    3        0.431   0.337   9.223   9.991
    4        0.431   0.337   9.223   9.991
    5        1.534   3.474   0.000   5.008
    6        1.534   3.474   0.000   5.008
--------------------------------------------------
tot          4.794   8.297  36.891  49.982



 magnetization (x)

# of ion       s       p       d       tot
------------------------------------------
    1       -0.000  -0.000   0.000  -0.000
    2       -0.000  -0.000   0.000  -0.000
    3       -0.000  -0.000   0.000  -0.000
    4       -0.000  -0.000   0.000  -0.000
    5        0.000   0.000   0.000   0.000
    6        0.000   0.000   0.000   0.000
--------------------------------------------------
tot         -0.000   0.000   0.000   0.000
 
    CHARGE:  cpu time      0.0153: real time      0.0153
    FORLOC:  cpu time      0.0006: real time      0.0006
    FORNL :  cpu time      0.0149: real time      0.0157
    STRESS:  cpu time      0.0410: real time      0.0417
    FORCOR:  cpu time      0.0098: real time      0.0104
    FORHAR:  cpu time      0.0029: real time      0.0030
    MIXING:  cpu time      0.0009: real time      0.0255
    OFIELD:  cpu time      0.0008: real time      0.0008

  FORCE on cell =-STRESS in cart. coord.  units (eV):
  Direction    XX          YY          ZZ          XY          YZ          ZX
  --------------------------------------------------------------------------------------
  Alpha Z   228.31989   228.31989   228.31989
  Ewald   -1521.80623 -1521.80623 -1521.80623     0.00000     0.00000    -0.00000
  Hartree   648.35043   648.35043   648.35043    -0.00000    -0.00000    -0.00000
  E(xc)    -312.32997  -312.32997  -312.32997    -0.00000    -0.00000    -0.00000
  Local      84.33907    84.33907    84.33907     0.00000     0.00000     0.00000
  n-local  -132.15953  -135.69643  -137.83846    -0.04068     0.41861     0.21784
  augment   387.83117   387.83117   387.83117     0.00000    -0.00000     0.00000
  Kinetic   617.13033   620.67508   621.82754    -1.90279    -0.03396    -0.41863
  Fock        0.00000     0.00000     0.00000     0.00000     0.00000     0.00000
  -------------------------------------------------------------------------------------
  Total      -0.64947    -0.64947    -0.64947     0.00000    -0.00000     0.00000
  in kB     -13.58664   -13.58664   -13.58664     0.00000    -0.00000     0.00000
  external pressure =      -13.59 kB  Pullay stress =        0.00 kB


 VOLUME and BASIS-vectors are now :
 -----------------------------------------------------------------------------
  energy-cutoff  :      680.00
  volume of cell :       76.59
      direct lattice vectors                 reciprocal lattice vectors
     4.246699320  0.000000000  0.000000000     0.235476996  0.000000000  0.000000000
    -0.000000000  4.246699320  0.000000000     0.000000000  0.235476996  0.000000000
     0.000000000  0.000000000  4.246699320    -0.000000000 -0.000000000  0.235476996

  length of vectors
     4.246699320  4.246699320  4.246699320     0.235476996  0.235476996  0.235476996


 FORCES acting on ions
    electron-ion (+dipol)            ewald-force                    non-local-force                 convergence-correction
 -----------------------------------------------------------------------------------------------
   -.852E-12 0.573E-11 0.391E-11   -.711E-13 -.426E-13 -.142E-13   -.139E-21 -.108E-22 -.187E-22   0.109E-12 -.384E-13 -.100E-13
   0.420E-14 0.746E-12 0.734E-12   -.114E-12 -.284E-13 0.000E+00   0.130E-21 0.135E-22 0.173E-21   -.201E-13 0.217E-13 -.559E-15
   -.480E-12 0.131E-11 0.101E-10   -.853E-13 -.568E-13 0.000E+00   -.496E-22 0.358E-22 -.294E-22   0.126E-12 0.399E-13 -.960E-13
   -.466E-13 -.447E-13 -.445E-13   -.711E-13 -.142E-13 0.000E+00   0.616E-24 0.315E-22 0.158E-21   0.491E-13 -.255E-13 -.547E-14
   0.248E-12 0.176E-12 0.109E-11   0.255E-12 0.128E-12 -.704E-13   0.676E-17 -.991E-17 0.989E-17   0.435E-14 0.186E-13 -.859E-13
   -.250E-13 0.690E-12 0.510E-12   0.857E-13 -.461E-15 0.708E-13   0.849E-19 -.107E-16 -.314E-17   0.581E-13 -.673E-13 0.515E-13
 -----------------------------------------------------------------------------------------------
   -.115E-11 0.861E-11 0.163E-10   -.487E-16 -.146E-13 -.138E-13   0.685E-17 -.206E-16 0.675E-17   0.326E-12 -.510E-13 -.146E-12
 
 
 POSITION                                       TOTAL-FORCE (eV/Angst)
 -----------------------------------------------------------------------------------
      2.12335      2.12335      0.00000        -0.000000      0.000000     -0.000000
     -0.00000      2.12335      2.12335        -0.000000     -0.000000      0.000000
      2.12335      0.00000      2.12335         0.000000     -0.000000      0.000000
      0.00000      0.00000      0.00000         0.000000      0.000000      0.000000
      3.18502      3.18502      3.18502         0.000000     -0.000000      0.000000
      1.06167      1.06167      1.06167        -0.000000     -0.000000     -0.000000
 -----------------------------------------------------------------------------------
    total drift:                               -0.000000      0.000000      0.000000


--------------------------------------------------------------------------------------------------------



  FREE ENERGIE OF THE ION-ELECTRON SYSTEM (eV)
  ---------------------------------------------------
  free  energy   TOTEN  =       -29.96886999 eV

  energy  without entropy=      -29.96886999  energy(sigma->0) =      -29.96886999
 


--------------------------------------------------------------------------------------------------------


    POTLOK:  cpu time      0.3941: real time      0.3953


--------------------------------------------------------------------------------------------------------


 writing wavefunctions
     LOOP+:  cpu time      9.0663: real time      9.3629
    4ORBIT:  cpu time      0.0000: real time      0.0000



 total charge

# of ion       s       p       d       tot
------------------------------------------
    1        0.431   0.337   9.223   9.991
    2        0.431   0.337   9.223   9.991
    3        0.431   0.337   9.223   9.991
    4        0.431   0.337   9.223   9.991
    5        1.534   3.474   0.000   5.008
    6        1.534   3.474   0.000   5.008
--------------------------------------------------
tot          4.794   8.297  36.891  49.982



 magnetization (x)

# of ion       s       p       d       tot
------------------------------------------
    1       -0.000  -0.000   0.000  -0.000
    2       -0.000  -0.000   0.000  -0.000
    3       -0.000  -0.000   0.000  -0.000
    4       -0.000  -0.000   0.000  -0.000
    5        0.000   0.000   0.000   0.000
    6        0.000   0.000   0.000   0.000
--------------------------------------------------
tot         -0.000   0.000   0.000   0.000
 
 BZINTS: Fermi energy:    4.760189;   56.000000 electrons
         Band energy: 0.269469E+02;  BLOECHL correction:    0.000000

 total amount of memory used by VASP MPI-rank0    32475. kBytes
=======================================================================

   base      :      30000. kBytes
   nonl-proj :        928. kBytes
   fftplans  :        351. kBytes
   grid      :        843. kBytes
   one-center:         31. kBytes
   wavefun   :        322. kBytes
 
  
  
 General timing and accounting informations for this job:
 ========================================================
  
                  Total CPU time used (sec):       13.429
                            User time (sec):       12.149
                          System time (sec):        1.280
                         Elapsed time (sec):       14.440
  
                   Maximum memory used (kb):      180968.
                   Average memory used (kb):          N/A
  
                          Minor page faults:        30338
                          Major page faults:            0
                 Voluntary context switches:         1979
