<?xml version="1.0" encoding="ISO-8859-1"?>
<modeling>
 <generator>
  <i name="program" type="string">vasp </i>
  <i name="version" type="string">6.4.2  </i>
  <i name="subversion" type="string">20Jul23 (build Mar 15 2024 16:31:38) complex                          parallel </i>
  <i name="platform" type="string">LinuxIFC </i>
  <i name="date" type="string">2025 03 19 </i>
  <i name="time" type="string">14:45:22 </i>
 </generator>
 <incar>
  <i type="string" name="PREC">Accurate</i>
  <i type="string" name="ALGO">Fast</i>
  <i type="int" name="ISPIN">     2</i>
  <i type="int" name="NELM">   200</i>
  <i name="EDIFF">      0.00001000</i>
  <i type="int" name="NSW">     0</i>
  <i name="ENCUT">    680.00000000</i>
  <i name="ENAUG">   1360.00000000</i>
  <v name="MAGMOM">      0.60000000      0.60000000      0.60000000      0.60000000      0.60000000      0.60000000</v>
  <i type="logical" name="LREAL"> F  </i>
  <i type="int" name="ISMEAR">    -5</i>
  <i name="SIGMA">      0.20000000</i>
  <i type="int" name="LMAXMIX">     4</i>
  <i type="logical" name="LWAVE"> T  </i>
  <i type="logical" name="LCHARG"> T  </i>
  <i type="logical" name="LVTOT"> T  </i>
  <i type="int" name="LORBIT">    11</i>
  <i type="logical" name="LELF"> F  </i>
  <i type="logical" name="LASPH"> T  </i>
  <i type="logical" name="LAECHG"> T  </i>
  <i type="string" name="GGA">Ps</i>
  <i type="logical" name="LMIXTAU"> T  </i>
 </incar>
 <primitive_cell>
  <structure name="primitive_cell" >
   <crystal>
    <varray name="basis" >
     <v>       4.24669932       0.00000000       0.00000000 </v>
     <v>      -0.00000000       4.24669932       0.00000000 </v>
     <v>       0.00000000       0.00000000       4.24669932 </v>
    </varray>
    <i name="volume">     76.58690827 </i>
    <varray name="rec_basis" >
     <v>       0.23547700       0.00000000       0.00000000 </v>
     <v>       0.00000000       0.23547700       0.00000000 </v>
     <v>      -0.00000000      -0.00000000       0.23547700 </v>
    </varray>
   </crystal>
   <varray name="positions" >
    <v>       0.50000000       0.50000000       1.00000000 </v>
    <v>       0.00000000       0.50000000       0.50000000 </v>
    <v>       0.50000000       0.00000000       0.50000000 </v>
    <v>       0.00000000       0.00000000       0.00000000 </v>
    <v>       0.75000000       0.75000000       0.75000000 </v>
    <v>       0.25000000       0.25000000       0.25000000 </v>
   </varray>
  </structure>
  <varray name="primitive_index" >
   <v type="int" >        1 </v>
   <v type="int" >        2 </v>
   <v type="int" >        3 </v>
   <v type="int" >        4 </v>
   <v type="int" >        5 </v>
   <v type="int" >        6 </v>
  </varray>
 </primitive_cell>
 <kpoints>
  <generation param="Gamma">
   <v type="int" name="divisions">       5        5        5 </v>
   <v name="usershift">      0.00000000       0.00000000       0.00000000 </v>
   <v name="genvec1">      0.20000000      -0.00000000       0.00000000 </v>
   <v name="genvec2">      0.00000000       0.20000000       0.00000000 </v>
   <v name="genvec3">      0.00000000       0.00000000       0.20000000 </v>
   <v name="shift">      0.00000000       0.00000000       0.00000000 </v>
  </generation>
  <varray name="kpointlist" >
   <v>       0.00000000       0.00000000       0.00000000 </v>
   <v>       0.20000000       0.00000000       0.00000000 </v>
   <v>       0.40000000       0.00000000       0.00000000 </v>
   <v>       0.20000000       0.20000000       0.00000000 </v>
   <v>       0.40000000       0.20000000       0.00000000 </v>
   <v>       0.40000000       0.40000000       0.00000000 </v>
   <v>       0.20000000       0.20000000       0.20000000 </v>
   <v>       0.40000000       0.20000000       0.20000000 </v>
   <v>       0.40000000       0.40000000       0.20000000 </v>
   <v>       0.40000000       0.40000000       0.40000000 </v>
  </varray>
  <varray name="weights" >
   <v>       0.00800000 </v>
   <v>       0.04800000 </v>
   <v>       0.04800000 </v>
   <v>       0.09600000 </v>
   <v>       0.19200000 </v>
   <v>       0.09600000 </v>
   <v>       0.06400000 </v>
   <v>       0.19200000 </v>
   <v>       0.19200000 </v>
   <v>       0.06400000 </v>
  </varray>
  <varray name="tetrahedronlist"  type="int" >
   <v type="int" >       12        7        8        8        9 </v>
   <v type="int" >       18        8        8        9        9 </v>
   <v type="int" >       24        8        9        9       10 </v>
   <v type="int" >       12        8        9        9        9 </v>
   <v type="int" >       24        9        9        9       10 </v>
   <v type="int" >       18        9        9       10       10 </v>
   <v type="int" >       24        4        5        7        8 </v>
   <v type="int" >       12        5        7        8        8 </v>
   <v type="int" >       24        5        8        8        9 </v>
   <v type="int" >       24        4        5        5        8 </v>
   <v type="int" >       24        5        5        6        8 </v>
   <v type="int" >       12        5        6        8        9 </v>
   <v type="int" >       12        9       10       10       10 </v>
   <v type="int" >       12        8        8        9       10 </v>
   <v type="int" >       12        8        9       10       10 </v>
   <v type="int" >       12        5        5        8        9 </v>
   <v type="int" >       12        5        8        9        9 </v>
   <v type="int" >       12        5        5        6        9 </v>
   <v type="int" >       12        5        6        6        9 </v>
   <v type="int" >       12        5        6        9        9 </v>
   <v type="int" >       12        5        6        8        8 </v>
   <v type="int" >       12        5        6        6        8 </v>
   <v type="int" >       12        6        8        8        9 </v>
   <v type="int" >       12        6        8        9        9 </v>
   <v type="int" >       12        6        6        8        9 </v>
   <v type="int" >       12        7        8        9       10 </v>
   <v type="int" >       12        4        5        8        9 </v>
   <v type="int" >       12        4        7        8        9 </v>
   <v type="int" >       12        4        5        6        9 </v>
   <v type="int" >       12        5        6        7        8 </v>
   <v type="int" >       12        4        5        6        7 </v>
   <v type="int" >       12        6        7        8        9 </v>
   <v type="int" >       12        2        4        7        8 </v>
   <v type="int" >       12        2        4        5        8 </v>
   <v type="int" >       12        2        3        5        8 </v>
   <v type="int" >       12        4        4        5        7 </v>
   <v type="int" >       12        2        4        4        5 </v>
   <v type="int" >       12        2        3        4        5 </v>
   <v type="int" >       12        3        4        5        5 </v>
   <v type="int" >       12        2        3        4        7 </v>
   <v type="int" >       12        3        4        5        7 </v>
   <v type="int" >       12        3        5        7        8 </v>
   <v type="int" >        6       10       10       10       10 </v>
   <v type="int" >       12        6        6        9        9 </v>
   <v type="int" >       12        6        9        9        9 </v>
   <v type="int" >       12        6        6        6        9 </v>
   <v type="int" >       12        3        5        8        8 </v>
   <v type="int" >       12        3        5        5        8 </v>
   <v type="int" >       12        3        3        5        8 </v>
   <v type="int" >       12        5        5        5        8 </v>
   <v type="int" >       12        3        5        5        5 </v>
   <v type="int" >        6        3        3        5        5 </v>
   <v type="int" >        6        5        5        8        8 </v>
   <v type="int" >       12        2        4        4        7 </v>
   <v type="int" >       12        2        2        4        4 </v>
   <v type="int" >       12        1        2        2        4 </v>
   <v type="int" >       12        1        2        4        7 </v>
  </varray>
  <i name="volumeweight">      0.00133333 </i>
 </kpoints>
 <parameters>
  <separator name="general" >
   <i type="string" name="SYSTEM">unknown system</i>
   <i type="logical" name="LCOMPAT"> F  </i>
  </separator>
  <separator name="electronic" >
   <i type="string" name="PREC">accura</i>
   <i name="ENMAX">    680.00000000</i>
   <i name="ENAUG">   1360.00000000</i>
   <i name="EDIFF">      0.00001000</i>
   <i type="int" name="IALGO">    68</i>
   <i type="int" name="IWAVPR">    10</i>
   <i type="int" name="NBANDS">    36</i>
   <i type="int" name="NBANDSLOW">    -1</i>
   <i type="int" name="NBANDSHIGH">    -1</i>
   <i name="NELECT">     56.00000000</i>
   <i type="int" name="TURBO">     0</i>
   <i type="int" name="IRESTART">     0</i>
   <i type="int" name="NREBOOT">     0</i>
   <i type="int" name="NMIN">     0</i>
   <i name="EREF">      0.00000000</i>
   <separator name="electronic smearing" >
    <i type="int" name="ISMEAR">    -5</i>
    <i name="SIGMA">      0.20000000</i>
    <i name="KSPACING">      0.50000000</i>
    <i type="logical" name="KGAMMA"> T  </i>
    <i type="logical" name="KBLOWUP"> T  </i>
   </separator>
   <separator name="electronic projectors" >
    <i type="logical" name="LREAL"> F  </i>
    <v name="ROPT">      0.00000000      0.00000000</v>
    <i type="int" name="LMAXPAW">  -100</i>
    <i type="int" name="LMAXMIX">     4</i>
    <i type="logical" name="NLSPLINE"> F  </i>
   </separator>
   <separator name="electronic startup" >
    <i type="int" name="ISTART">     0</i>
    <i type="int" name="ICHARG">     2</i>
    <i type="int" name="INIWAV">     1</i>
   </separator>
   <separator name="electronic spin" >
    <i type="int" name="ISPIN">     2</i>
    <i type="logical" name="LNONCOLLINEAR"> F  </i>
    <v name="MAGMOM">      0.60000000      0.60000000      0.60000000      0.60000000      0.60000000      0.60000000</v>
    <i name="NUPDOWN">     -1.00000000</i>
    <i type="logical" name="LSORBIT"> F  </i>
    <v name="SAXIS">      0.00000000      0.00000000      1.00000000</v>
    <i type="logical" name="LSPIRAL"> F  </i>
    <v name="QSPIRAL">      0.00000000      0.00000000      0.00000000</v>
    <i type="logical" name="LZEROZ"> F  </i>
   </separator>
   <separator name="electronic exchange-correlation" >
    <i type="logical" name="LASPH"> T  </i>
    <i type="logical" name="LMETAGGA"> F  </i>
   </separator>
   <separator name="electronic convergence" >
    <i type="int" name="NELM">   200</i>
    <i type="int" name="NELMDL">    -5</i>
    <i type="int" name="NELMIN">     2</i>
    <i name="ENINI">    680.00000000</i>
    <separator name="electronic convergence detail" >
     <i type="logical" name="LDIAG"> T  </i>
     <i type="logical" name="LSUBROT"> F  </i>
     <i name="WEIMIN">      0.00000000</i>
     <i name="EBREAK">      0.00000007</i>
     <i name="DEPER">      0.30000000</i>
     <i type="int" name="NRMM">     4</i>
     <i name="TIME">      0.40000000</i>
    </separator>
   </separator>
   <separator name="electronic mixer" >
    <i name="AMIX">      0.40000000</i>
    <i name="BMIX">      1.00000000</i>
    <i name="AMIN">      0.10000000</i>
    <i name="AMIX_MAG">      1.60000000</i>
    <i name="BMIX_MAG">      1.00000000</i>
    <separator name="electronic mixer details" >
     <i type="int" name="IMIX">     4</i>
     <i type="logical" name="MIXFIRST"> F  </i>
     <i type="int" name="MAXMIX">   -45</i>
     <i name="WC">    100.00000000</i>
     <i type="int" name="INIMIX">     1</i>
     <i type="int" name="MIXPRE">     1</i>
     <i type="int" name="MREMOVE">     5</i>
    </separator>
   </separator>
   <separator name="electronic dipolcorrection" >
    <i type="logical" name="LDIPOL"> F  </i>
    <i type="logical" name="LMONO"> F  </i>
    <i type="int" name="IDIPOL">     0</i>
    <i name="EPSILON">      1.00000000</i>
    <v name="DIPOL">   -100.00000000   -100.00000000   -100.00000000</v>
    <i name="EFIELD">      0.00000000</i>
   </separator>
  </separator>
  <separator name="grids" >
   <i type="int" name="NGX">    36</i>
   <i type="int" name="NGY">    36</i>
   <i type="int" name="NGZ">    36</i>
   <i type="int" name="NGXF">    72</i>
   <i type="int" name="NGYF">    72</i>
   <i type="int" name="NGZF">    72</i>
   <i type="logical" name="ADDGRID"> F  </i>
  </separator>
  <separator name="ionic" >
   <i type="int" name="NSW">     0</i>
   <i type="int" name="IBRION">    -1</i>
   <i type="int" name="MDALGO">     0</i>
   <i type="int" name="ISIF">     2</i>
   <i name="PSTRESS">      0.00000000</i>
   <i name="EDIFFG">      0.00010000</i>
   <i type="int" name="NFREE">     0</i>
   <i name="POTIM">      0.50000000</i>
   <i name="SMASS">     -3.00000000</i>
   <i name="SCALEE">      1.00000000</i>
  </separator>
  <separator name="ionic md" >
   <i name="TEBEG">      0.00010000</i>
   <i name="TEEND">      0.00010000</i>
   <i type="int" name="NBLOCK">     1</i>
   <i type="int" name="KBLOCK">     1</i>
   <i type="int" name="NPACO">   256</i>
   <i name="APACO">     10.00000000</i>
  </separator>
  <separator name="symmetry" >
   <i type="int" name="ISYM">     2</i>
   <i name="SYMPREC">      0.00001000</i>
  </separator>
  <separator name="dos" >
   <i type="int" name="LORBIT">    11</i>
   <v name="RWIGS">     -1.00000000     -1.00000000</v>
   <i type="int" name="NEDOS">   301</i>
   <i name="EMIN">     10.00000000</i>
   <i name="EMAX">    -10.00000000</i>
   <i name="EFERMI">      0.00000000</i>
  </separator>
  <separator name="writing" >
   <i type="int" name="NWRITE">     2</i>
   <i type="logical" name="LWAVE"> T  </i>
   <i type="logical" name="LDOWNSAMPLE"> F  </i>
   <i type="logical" name="LCHARG"> T  </i>
   <i type="logical" name="LPARD"> F  </i>
   <i type="logical" name="LVTOT"> T  </i>
   <i type="logical" name="LVHAR"> F  </i>
   <i type="logical" name="LELF"> F  </i>
   <i type="logical" name="LOPTICS"> F  </i>
   <v name="STM">      0.00000000      0.00000000      0.00000000      0.00000000      0.00000000      0.00000000      0.00000000</v>
  </separator>
  <separator name="performance" >
   <i type="int" name="NPAR">    12</i>
   <i type="int" name="NSIM">     4</i>
   <i type="int" name="NBLK">    -1</i>
   <i type="logical" name="LPLANE"> T  </i>
   <i type="logical" name="LSCALAPACK"> T  </i>
   <i type="logical" name="LSCAAWARE"> T  </i>
   <i type="logical" name="LSCALU"> F  </i>
   <i type="logical" name="LASYNC"> F  </i>
   <i type="logical" name="LORBITALREAL"> F  </i>
  </separator>
  <separator name="miscellaneous" >
   <i type="int" name="IDIOT">     3</i>
   <i type="int" name="PHON_NSTRUCT">    -1</i>
   <i type="logical" name="LMUSIC"> F  </i>
   <v name="POMASS">     63.54600000     16.00000000</v>
   <v name="DARWINR">      0.00000000      0.00000000</v>
   <v name="DARWINV">      1.00000000      1.00000000</v>
   <i type="logical" name="LCORR"> T  </i>
  </separator>
  <i type="logical" name="GGA_COMPAT"> T  </i>
  <i type="logical" name="LBERRY"> F  </i>
  <i type="int" name="ICORELEVEL">     0</i>
  <i type="logical" name="LDAU"> F  </i>
  <i type="int" name="I_CONSTRAINED_M">     0</i>
  <separator name="electronic exchange-correlation" >
   <i type="string" name="GGA">PS</i>
   <i type="int" name="VOSKOWN">     0</i>
   <i type="logical" name="LHFCALC"> F  </i>
   <i type="string" name="PRECFOCK"></i>
   <i type="logical" name="LSYMGRAD"> F  </i>
   <i type="logical" name="LHFONE"> F  </i>
   <i type="logical" name="LRHFCALC"> F  </i>
   <i type="logical" name="LTHOMAS"> F  </i>
   <i type="logical" name="LMODELHF"> F  </i>
   <i type="logical" name="LFOCKACE"> F  </i>
   <i name="ENCUT4O">     -1.00000000</i>
   <i type="int" name="EXXOEP">     0</i>
   <i type="int" name="FOURORBIT">     0</i>
   <i name="AEXX">      0.00000000</i>
   <i name="HFALPHA">      0.00000000</i>
   <i name="MCALPHA">      0.00000000</i>
   <i name="ALDAX">      1.00000000</i>
   <i name="AGGAX">      1.00000000</i>
   <i name="ALDAC">      1.00000000</i>
   <i name="AGGAC">      1.00000000</i>
   <i type="int" name="NKREDX">     1</i>
   <i type="int" name="NKREDY">     1</i>
   <i type="int" name="NKREDZ">     1</i>
   <i type="logical" name="SHIFTRED"> F  </i>
   <i type="logical" name="ODDONLY"> F  </i>
   <i type="logical" name="EVENONLY"> F  </i>
   <i type="int" name="LMAXFOCK">     0</i>
   <i type="int" name="NMAXFOCKAE">     0</i>
   <i type="logical" name="LFOCKAEDFT"> F  </i>
   <i name="HFSCREEN">      0.00000000</i>
   <i name="HFSCREENC">      0.00000000</i>
   <i type="int" name="NBANDSGWLOW">     0</i>
  </separator>
  <separator name="vdW DFT" >
   <i type="logical" name="LUSE_VDW"> F  </i>
   <i type="int" name="IVDW_NL">     1</i>
   <i type="logical" name="LSPIN_VDW"> F  </i>
   <i name="Zab_VDW">     -0.84910000</i>
   <i name="PARAM1">      0.12340000</i>
   <i name="PARAM2">      1.00000000</i>
   <i name="PARAM3">      0.00000000</i>
  </separator>
  <separator name="model GW" >
   <i type="int" name="MODEL_GW">     0</i>
   <i name="MODEL_EPS0">      7.65869083</i>
   <i name="MODEL_ALPHA">      1.00000000</i>
  </separator>
  <separator name="linear response parameters" >
   <i type="logical" name="LEPSILON"> F  </i>
   <i type="logical" name="LRPA"> F  </i>
   <i type="logical" name="LNABLA"> F  </i>
   <i type="logical" name="LVEL"> F  </i>
   <i name="CSHIFT">      0.10000000</i>
   <i name="OMEGAMAX">     -1.00000000</i>
   <i name="DEG_THRESHOLD">      0.00200000</i>
   <i name="RTIME">     -0.10000000</i>
   <i name="WPLASMAI">      0.00000000</i>
   <v name="DFIELD">      0.00000000      0.00000000      0.00000000</v>
   <v name="WPLASMA">      0.00000000      0.00000000      0.00000000      0.00000000      0.00000000      0.00000000      0.00000000      0.00000000      0.00000000</v>
  </separator>
  <separator name="orbital magnetization" >
   <i type="logical" name="NUCIND"> F  </i>
   <v name="MAGPOS">      0.00000000      0.00000000      0.00000000</v>
   <i type="logical" name="LNICSALL"> T  </i>
   <i type="logical" name="ORBITALMAG"> F  </i>
   <i type="logical" name="LMAGBLOCH"> F  </i>
   <i type="logical" name="LCHIMAG"> F  </i>
   <i type="logical" name="LGAUGE"> T  </i>
   <i type="int" name="MAGATOM">     0</i>
   <v name="MAGDIPOL">      0.00000000      0.00000000      0.00000000</v>
   <v name="AVECCONST">      0.00000000      0.00000000      0.00000000</v>
  </separator>
  <separator name="response functions" >
   <i type="logical" name="LALL_IN_ONE"> F  </i>
   <i type="int" name="IALL_IN_ONE">    -1</i>
   <i type="int" name="NBANDS_WAVE">    -1</i>
   <i type="logical" name="LFINITE_TEMPERATURE"> F  </i>
   <i type="logical" name="LADDER"> F  </i>
   <i type="logical" name="LRPAFORCE"> F  </i>
   <i type="logical" name="LFXC"> F  </i>
   <i type="logical" name="LHARTREE"> T  </i>
   <i type="int" name="IBSE">     0</i>
   <v type="int" name="KPOINT">    -1     0     0     0</v>
   <i type="logical" name="LTCTC"> F  </i>
   <i type="logical" name="LTCTE"> F  </i>
   <i type="logical" name="LTETE"> F  </i>
   <i type="logical" name="LTRIPLET"> F  </i>
   <i type="logical" name="LFXCEPS"> F  </i>
   <i type="logical" name="LFXHEG"> F  </i>
   <i type="int" name="NATURALO">     2</i>
   <i type="logical" name="LHOLEGF"> F  </i>
   <i type="logical" name="L2ORDER"> F  </i>
   <i type="logical" name="LDMP1"> F  </i>
   <i type="logical" name="LMP2LT"> F  </i>
   <i type="logical" name="LSMP2LT"> F  </i>
   <i type="logical" name="LGWLF"> F  </i>
   <i name="ENCUTGW">     -1.60000002</i>
   <i name="ENCUTGWSOFT">     -1.60000002</i>
   <i name="ENCUTLF">     -1.00000000</i>
   <i type="logical" name="LESF_SPLINES"> F  </i>
   <i type="int" name="LMAXMP2">    -1</i>
   <i name="SCISSOR">      0.00000000</i>
   <i type="int" name="NOMEGA">     0</i>
   <i type="int" name="NOMEGAR">     0</i>
   <i type="int" name="NBANDSGW">    -1</i>
   <i type="int" name="NBANDSO">    -1</i>
   <i type="int" name="NBANDSV">    -1</i>
   <i type="int" name="NELMGW">     1</i>
   <i type="int" name="NELMHF">     1</i>
   <i type="int" name="DIM">     3</i>
   <i type="int" name="IESPILON">     4</i>
   <i type="int" name="ANTIRES">     0</i>
   <i name="OMEGAMAX">    -30.00000000</i>
   <i name="OMEGAMIN">    -30.00000000</i>
   <i name="OMEGATL">   -200.00000000</i>
   <i type="int" name="OMEGAGRID">     0</i>
   <i name="CSHIFT">     -0.10000000</i>
   <i type="logical" name="LSELFENERGY"> F  </i>
   <i type="logical" name="LSPECTRAL"> F  </i>
   <i type="logical" name="LSPECTRALGW"> F  </i>
   <i type="logical" name="LSINGLES"> F  </i>
   <i type="logical" name="LFERMIGW"> F  </i>
   <i type="logical" name="ODDONLYGW"> F  </i>
   <i type="logical" name="EVENONLYGW"> F  </i>
   <i type="int" name="NKREDLFX">     1</i>
   <i type="int" name="NKREDLFY">     1</i>
   <i type="int" name="NKREDLFZ">     1</i>
   <i type="int" name="MAXMEM">  2800</i>
   <i type="int" name="TELESCOPE">     0</i>
   <i type="int" name="NTAUPAR">    -1</i>
   <i type="int" name="NOMEGAPAR">    -1</i>
   <i name="DAMP_NEWTON">      0.80000001</i>
   <i name="LAMBDA">      1.00000000</i>
  </separator>
  <separator name="External order field" >
   <i name="OFIELD_KAPPA">      0.00000000</i>
   <v name="OFIELD_K">      0.00000000      0.00000000      0.00000000</v>
   <i name="OFIELD_Q6_NEAR">      0.00000000</i>
   <i name="OFIELD_Q6_FAR">      0.00000000</i>
   <i name="OFIELD_A">      0.00000000</i>
  </separator>
  <separator name="optional k-points parameters" >
   <i type="int" name="KPOINTS_OPT_MODE">     1</i>
   <i type="logical" name="LKPOINTS_OPT"> F  </i>
  </separator>
 </parameters>
 <atominfo>
  <atoms>       6 </atoms>
  <types>       2 </types>
  <array name="atoms" >
   <dimension dim="1">ion</dimension>
   <field type="string">element</field>
   <field type="int">atomtype</field>
   <set>
    <rc><c>Cu</c><c>   1</c></rc>
    <rc><c>Cu</c><c>   1</c></rc>
    <rc><c>Cu</c><c>   1</c></rc>
    <rc><c>Cu</c><c>   1</c></rc>
    <rc><c>O </c><c>   2</c></rc>
    <rc><c>O </c><c>   2</c></rc>
   </set>
  </array>
  <array name="atomtypes" >
   <dimension dim="1">type</dimension>
   <field type="int">atomspertype</field>
   <field type="string">element</field>
   <field>mass</field>
   <field>valence</field>
   <field type="string">pseudopotential</field>
   <set>
    <rc><c>   4</c><c>Cu</c><c>     63.54600000</c><c>     11.00000000</c><c>  PAW_PBE Cu 22Jun2005                  </c></rc>
    <rc><c>   2</c><c>O </c><c>     16.00000000</c><c>      6.00000000</c><c>  PAW_PBE O 08Apr2002                   </c></rc>
   </set>
  </array>
 </atominfo>
 <structure name="initialpos" >
  <crystal>
   <varray name="basis" >
    <v>       4.24669932       0.00000000       0.00000000 </v>
    <v>      -0.00000000       4.24669932       0.00000000 </v>
    <v>       0.00000000       0.00000000       4.24669932 </v>
   </varray>
   <i name="volume">     76.58690827 </i>
   <varray name="rec_basis" >
    <v>       0.23547700       0.00000000       0.00000000 </v>
    <v>       0.00000000       0.23547700       0.00000000 </v>
    <v>      -0.00000000      -0.00000000       0.23547700 </v>
   </varray>
  </crystal>
  <varray name="positions" >
   <v>       0.50000000       0.50000000       0.00000000 </v>
   <v>       0.00000000       0.50000000       0.50000000 </v>
   <v>       0.50000000       0.00000000       0.50000000 </v>
   <v>       0.00000000       0.00000000       0.00000000 </v>
   <v>       0.75000000       0.75000000       0.75000000 </v>
   <v>       0.25000000       0.25000000       0.25000000 </v>
  </varray>
 </structure>
 <calculation>
  <scstep>
   <time name="dav">    0.24    0.24</time>
   <time name="total">    0.66    0.66</time>
   <energy>
    <i name="alphaZ">    228.31989324 </i>
    <i name="ewald">  -4565.41384850 </i>
    <i name="hartreedc">  -2003.93564795 </i>
    <i name="XCdc">    241.37256407 </i>
    <i name="pawpsdc">   5601.83489210 </i>
    <i name="pawaedc">  -6028.89639310 </i>
    <i name="eentropy">      0.00000000 </i>
    <i name="bandstr">    628.23132861 </i>
    <i name="atom">   6422.53809314 </i>
    <i name="e_fr_energy">    524.05088162 </i>
    <i name="e_wo_entrp">    524.05088162 </i>
    <i name="e_0_energy">    524.05088162 </i>
   </energy>
  </scstep>
  <scstep>
   <time name="dav">    0.22    0.22</time>
   <time name="total">    0.22    0.22</time>
   <energy>
    <i name="e_fr_energy">     36.47432967 </i>
    <i name="e_wo_entrp">     36.47432967 </i>
    <i name="e_0_energy">     36.47432967 </i>
   </energy>
  </scstep>
  <scstep>
   <time name="dav">    0.26    0.28</time>
   <time name="total">    0.27    0.28</time>
   <energy>
    <i name="e_fr_energy">    -33.71933007 </i>
    <i name="e_wo_entrp">    -33.71933007 </i>
    <i name="e_0_energy">    -33.71933007 </i>
   </energy>
  </scstep>
  <scstep>
   <time name="dav">    0.22    0.23</time>
   <time name="total">    0.23    0.24</time>
   <energy>
    <i name="e_fr_energy">    -35.69405594 </i>
    <i name="e_wo_entrp">    -35.69405594 </i>
    <i name="e_0_energy">    -35.69405594 </i>
   </energy>
  </scstep>
  <scstep>
   <time name="dav">    0.25    0.27</time>
   <time name="total">    0.28    0.30</time>
   <energy>
    <i name="e_fr_energy">    -35.72150056 </i>
    <i name="e_wo_entrp">    -35.72150056 </i>
    <i name="e_0_energy">    -35.72150056 </i>
   </energy>
  </scstep>
  <scstep>
   <time name="diag">    0.08    0.08</time>
   <time name="diis">    0.04    0.04</time>
   <time name="orth">    0.01    0.01</time>
   <time name="total">    0.54    0.56</time>
   <energy>
    <i name="e_fr_energy">    -33.27029309 </i>
    <i name="e_wo_entrp">    -33.27029309 </i>
    <i name="e_0_energy">    -33.27029309 </i>
   </energy>
  </scstep>
  <scstep>
   <time name="diag">    0.08    0.08</time>
   <time name="diis">    0.03    0.03</time>
   <time name="orth">    0.01    0.01</time>
   <time name="total">    0.53    0.54</time>
   <energy>
    <i name="e_fr_energy">    -29.99816949 </i>
    <i name="e_wo_entrp">    -29.99816949 </i>
    <i name="e_0_energy">    -29.99816949 </i>
   </energy>
  </scstep>
  <scstep>
   <time name="diag">    0.08    0.08</time>
   <time name="diis">    0.03    0.03</time>
   <time name="orth">    0.01    0.01</time>
   <time name="total">    0.54    0.55</time>
   <energy>
    <i name="e_fr_energy">    -30.01494821 </i>
    <i name="e_wo_entrp">    -30.01494821 </i>
    <i name="e_0_energy">    -30.01494821 </i>
   </energy>
  </scstep>
  <scstep>
   <time name="diag">    0.08    0.08</time>
   <time name="diis">    0.03    0.03</time>
   <time name="orth">    0.01    0.01</time>
   <time name="total">    0.53    0.54</time>
   <energy>
    <i name="e_fr_energy">    -30.01093262 </i>
    <i name="e_wo_entrp">    -30.01093262 </i>
    <i name="e_0_energy">    -30.01093262 </i>
   </energy>
  </scstep>
  <scstep>
   <time name="diag">    0.08    0.08</time>
   <time name="diis">    0.03    0.03</time>
   <time name="orth">    0.01    0.01</time>
   <time name="total">    0.53    0.54</time>
   <energy>
    <i name="e_fr_energy">    -29.97233567 </i>
    <i name="e_wo_entrp">    -29.97233567 </i>
    <i name="e_0_energy">    -29.97233567 </i>
   </energy>
  </scstep>
  <scstep>
   <time name="diag">    0.08    0.08</time>
   <time name="diis">    0.03    0.03</time>
   <time name="orth">    0.01    0.01</time>
   <time name="total">    0.53    0.55</time>
   <energy>
    <i name="e_fr_energy">    -29.96956044 </i>
    <i name="e_wo_entrp">    -29.96956044 </i>
    <i name="e_0_energy">    -29.96956044 </i>
   </energy>
  </scstep>
  <scstep>
   <time name="diag">    0.08    0.08</time>
   <time name="diis">    0.03    0.03</time>
   <time name="orth">    0.01    0.01</time>
   <time name="total">    0.53    0.54</time>
   <energy>
    <i name="e_fr_energy">    -29.96891425 </i>
    <i name="e_wo_entrp">    -29.96891425 </i>
    <i name="e_0_energy">    -29.96891425 </i>
   </energy>
  </scstep>
  <scstep>
   <time name="diag">    0.08    0.08</time>
   <time name="diis">    0.03    0.03</time>
   <time name="orth">    0.01    0.01</time>
   <time name="total">    0.53    0.54</time>
   <energy>
    <i name="e_fr_energy">    -29.96906655 </i>
    <i name="e_wo_entrp">    -29.96906655 </i>
    <i name="e_0_energy">    -29.96906655 </i>
   </energy>
  </scstep>
  <scstep>
   <time name="diag">    0.08    0.08</time>
   <time name="diis">    0.03    0.03</time>
   <time name="orth">    0.01    0.01</time>
   <time name="total">    0.53    0.54</time>
   <energy>
    <i name="e_fr_energy">    -29.96888612 </i>
    <i name="e_wo_entrp">    -29.96888612 </i>
    <i name="e_0_energy">    -29.96888612 </i>
   </energy>
  </scstep>
  <scstep>
   <time name="diag">    0.08    0.08</time>
   <time name="diis">    0.03    0.03</time>
   <time name="orth">    0.01    0.01</time>
   <time name="total">    0.53    0.55</time>
   <energy>
    <i name="e_fr_energy">    -29.96887416 </i>
    <i name="e_wo_entrp">    -29.96887416 </i>
    <i name="e_0_energy">    -29.96887416 </i>
   </energy>
  </scstep>
  <scstep>
   <time name="diag">    0.08    0.08</time>
   <time name="diis">    0.02    0.02</time>
   <time name="orth">    0.01    0.01</time>
   <time name="total">    0.52    0.53</time>
   <energy>
    <i name="alphaZ">    228.31989324 </i>
    <i name="ewald">  -4565.41384850 </i>
    <i name="hartreedc">  -1945.05456147 </i>
    <i name="XCdc">    238.82377414 </i>
    <i name="pawpsdc">   6222.24537368 </i>
    <i name="pawaedc">  -6658.37446031 </i>
    <i name="eentropy">      0.00000000 </i>
    <i name="bandstr">     26.94686608 </i>
    <i name="atom">   6422.53809314 </i>
    <i name="e_fr_energy">    -29.96886999 </i>
    <i name="e_wo_entrp">    -29.96886999 </i>
    <i name="e_0_energy">    -29.96886999 </i>
   </energy>
  </scstep>
  <structure>
   <crystal>
    <varray name="basis" >
     <v>       4.24669932       0.00000000       0.00000000 </v>
     <v>      -0.00000000       4.24669932       0.00000000 </v>
     <v>       0.00000000       0.00000000       4.24669932 </v>
    </varray>
    <i name="volume">     76.58690827 </i>
    <varray name="rec_basis" >
     <v>       0.23547700       0.00000000       0.00000000 </v>
     <v>       0.00000000       0.23547700       0.00000000 </v>
     <v>      -0.00000000      -0.00000000       0.23547700 </v>
    </varray>
   </crystal>
   <varray name="positions" >
    <v>       0.50000000       0.50000000       0.00000000 </v>
    <v>       0.00000000       0.50000000       0.50000000 </v>
    <v>       0.50000000       0.00000000       0.50000000 </v>
    <v>       0.00000000       0.00000000       0.00000000 </v>
    <v>       0.75000000       0.75000000       0.75000000 </v>
    <v>       0.25000000       0.25000000       0.25000000 </v>
   </varray>
  </structure>
  <varray name="forces" >
   <v>      -0.00000000       0.00000000      -0.00000000 </v>
   <v>      -0.00000000      -0.00000000       0.00000000 </v>
   <v>       0.00000000      -0.00000000       0.00000000 </v>
   <v>       0.00000000       0.00000000       0.00000000 </v>
   <v>       0.00000000      -0.00000000       0.00000000 </v>
   <v>      -0.00000000      -0.00000000      -0.00000000 </v>
  </varray>
  <varray name="stress" >
   <v>     -13.58664061       0.00000000       0.00000000 </v>
   <v>       0.00000000     -13.58664061      -0.00000000 </v>
   <v>      -0.00000000      -0.00000000     -13.58664061 </v>
  </varray>
  <energy>
   <i name="e_fr_energy">    -29.96886999 </i>
   <i name="e_wo_entrp">    -29.96886999 </i>
   <i name="e_0_energy">    -29.96886999 </i>
  </energy>
  <time name="totalsc">    9.07    9.36</time>
  <eigenvalues>
   <array>
    <dimension dim="1">band</dimension>
    <dimension dim="2">kpoint</dimension>
    <dimension dim="3">spin</dimension>
    <field>eigene</field>
    <field>occ</field>
    <set>
     <set comment="spin 1">
      <set comment="kpoint 1">
       <r>  -15.4617    1.0000 </r>
       <r>  -14.6862    1.0000 </r>
       <r>   -2.6732    1.0000 </r>
       <r>   -2.6732    1.0000 </r>
       <r>   -2.6732    1.0000 </r>
       <r>   -0.2522    1.0000 </r>
       <r>   -0.1829    1.0000 </r>
       <r>   -0.1829    1.0000 </r>
       <r>   -0.1829    1.0000 </r>
       <r>    1.6361    1.0000 </r>
       <r>    1.6361    1.0000 </r>
       <r>    1.7565    1.0000 </r>
       <r>    1.7565    1.0000 </r>
       <r>    1.7565    1.0000 </r>
       <r>    2.6689    1.0000 </r>
       <r>    2.6689    1.0000 </r>
       <r>    2.7775    1.0000 </r>
       <r>    2.7775    1.0000 </r>
       <r>    2.7775    1.0000 </r>
       <r>    2.9331    1.0000 </r>
       <r>    2.9331    1.0000 </r>
       <r>    2.9331    1.0000 </r>
       <r>    3.1245    1.0000 </r>
       <r>    3.1245    1.0000 </r>
       <r>    3.1245    1.0000 </r>
       <r>    4.7130    1.0000 </r>
       <r>    4.7130    1.0000 </r>
       <r>    4.7130    1.0000 </r>
       <r>    5.2388    0.0000 </r>
       <r>    5.8619    0.0000 </r>
       <r>    5.8619    0.0000 </r>
       <r>   12.6725    0.0000 </r>
       <r>   12.6725    0.0000 </r>
       <r>   12.6725    0.0000 </r>
       <r>   14.0140    0.0000 </r>
       <r>   14.0140    0.0000 </r>
      </set>
      <set comment="kpoint 2">
       <r>  -15.3869    1.0000 </r>
       <r>  -14.7590    1.0000 </r>
       <r>   -2.5703    1.0000 </r>
       <r>   -2.5243    1.0000 </r>
       <r>   -2.5243    1.0000 </r>
       <r>   -0.9247    1.0000 </r>
       <r>   -0.5488    1.0000 </r>
       <r>   -0.5488    1.0000 </r>
       <r>    0.2992    1.0000 </r>
       <r>    1.7076    1.0000 </r>
       <r>    1.7535    1.0000 </r>
       <r>    1.8552    1.0000 </r>
       <r>    2.0233    1.0000 </r>
       <r>    2.0233    1.0000 </r>
       <r>    2.6504    1.0000 </r>
       <r>    2.6903    1.0000 </r>
       <r>    2.6973    1.0000 </r>
       <r>    2.7723    1.0000 </r>
       <r>    2.8189    1.0000 </r>
       <r>    2.8189    1.0000 </r>
       <r>    2.9646    1.0000 </r>
       <r>    3.0166    1.0000 </r>
       <r>    3.0166    1.0000 </r>
       <r>    3.1013    1.0000 </r>
       <r>    3.1013    1.0000 </r>
       <r>    3.6067    1.0000 </r>
       <r>    4.6133    1.0000 </r>
       <r>    4.6133    1.0000 </r>
       <r>    5.5854    0.0000 </r>
       <r>    6.4851    0.0000 </r>
       <r>    7.0296    0.0000 </r>
       <r>   12.1042    0.0000 </r>
       <r>   12.2756    0.0000 </r>
       <r>   12.4879    0.0000 </r>
       <r>   12.4883    0.0000 </r>
       <r>   13.2316    0.0000 </r>
      </set>
      <set comment="kpoint 3">
       <r>  -15.1915    1.0000 </r>
       <r>  -14.9513    1.0000 </r>
       <r>   -2.2438    1.0000 </r>
       <r>   -2.1572    1.0000 </r>
       <r>   -2.1572    1.0000 </r>
       <r>   -1.6749    1.0000 </r>
       <r>   -1.1689    1.0000 </r>
       <r>   -1.1689    1.0000 </r>
       <r>    0.8809    1.0000 </r>
       <r>    1.5258    1.0000 </r>
       <r>    1.9288    1.0000 </r>
       <r>    2.1756    1.0000 </r>
       <r>    2.3059    1.0000 </r>
       <r>    2.3989    1.0000 </r>
       <r>    2.3989    1.0000 </r>
       <r>    2.4308    1.0000 </r>
       <r>    2.6202    1.0000 </r>
       <r>    2.7146    1.0000 </r>
       <r>    2.7146    1.0000 </r>
       <r>    2.7674    1.0000 </r>
       <r>    2.7724    1.0000 </r>
       <r>    2.8679    1.0000 </r>
       <r>    3.0136    1.0000 </r>
       <r>    3.0136    1.0000 </r>
       <r>    3.4130    1.0000 </r>
       <r>    3.4130    1.0000 </r>
       <r>    4.3714    1.0000 </r>
       <r>    4.3714    1.0000 </r>
       <r>    6.4738    0.0000 </r>
       <r>    7.3560    0.0000 </r>
       <r>    7.9570    0.0000 </r>
       <r>    9.9395    0.0000 </r>
       <r>   12.1974    0.0000 </r>
       <r>   12.2025    0.0000 </r>
       <r>   12.4345    0.0000 </r>
       <r>   12.4390    0.0000 </r>
      </set>
      <set comment="kpoint 4">
       <r>  -15.3239    1.0000 </r>
       <r>  -14.8151    1.0000 </r>
       <r>   -2.7076    1.0000 </r>
       <r>   -2.4140    1.0000 </r>
       <r>   -2.1789    1.0000 </r>
       <r>   -1.4162    1.0000 </r>
       <r>   -0.7779    1.0000 </r>
       <r>   -0.5082    1.0000 </r>
       <r>    0.4653    1.0000 </r>
       <r>    1.7619    1.0000 </r>
       <r>    1.8269    1.0000 </r>
       <r>    1.9615    1.0000 </r>
       <r>    2.0443    1.0000 </r>
       <r>    2.2011    1.0000 </r>
       <r>    2.6289    1.0000 </r>
       <r>    2.6306    1.0000 </r>
       <r>    2.6454    1.0000 </r>
       <r>    2.6631    1.0000 </r>
       <r>    2.8175    1.0000 </r>
       <r>    2.8923    1.0000 </r>
       <r>    2.9308    1.0000 </r>
       <r>    2.9492    1.0000 </r>
       <r>    2.9777    1.0000 </r>
       <r>    3.0890    1.0000 </r>
       <r>    3.1281    1.0000 </r>
       <r>    3.5919    1.0000 </r>
       <r>    4.2086    1.0000 </r>
       <r>    4.5214    1.0000 </r>
       <r>    5.8880    0.0000 </r>
       <r>    7.0332    0.0000 </r>
       <r>    7.4921    0.0000 </r>
       <r>   10.8851    0.0000 </r>
       <r>   11.0814    0.0000 </r>
       <r>   12.3010    0.0000 </r>
       <r>   12.6570    0.0000 </r>
       <r>   13.7447    0.0000 </r>
      </set>
      <set comment="kpoint 5">
       <r>  -15.1613    1.0000 </r>
       <r>  -14.9665    1.0000 </r>
       <r>   -2.6072    1.0000 </r>
       <r>   -2.3219    1.0000 </r>
       <r>   -1.7916    1.0000 </r>
       <r>   -1.7323    1.0000 </r>
       <r>   -1.1968    1.0000 </r>
       <r>   -0.9442    1.0000 </r>
       <r>    1.0069    1.0000 </r>
       <r>    1.6195    1.0000 </r>
       <r>    1.9223    1.0000 </r>
       <r>    2.1586    1.0000 </r>
       <r>    2.2056    1.0000 </r>
       <r>    2.3315    1.0000 </r>
       <r>    2.3897    1.0000 </r>
       <r>    2.4023    1.0000 </r>
       <r>    2.5673    1.0000 </r>
       <r>    2.6880    1.0000 </r>
       <r>    2.7429    1.0000 </r>
       <r>    2.8030    1.0000 </r>
       <r>    2.8479    1.0000 </r>
       <r>    2.8712    1.0000 </r>
       <r>    3.0449    1.0000 </r>
       <r>    3.1638    1.0000 </r>
       <r>    3.3766    1.0000 </r>
       <r>    3.4124    1.0000 </r>
       <r>    4.1783    1.0000 </r>
       <r>    4.2951    1.0000 </r>
       <r>    6.5997    0.0000 </r>
       <r>    7.2720    0.0000 </r>
       <r>    8.1487    0.0000 </r>
       <r>    9.2961    0.0000 </r>
       <r>   11.4612    0.0000 </r>
       <r>   11.9855    0.0000 </r>
       <r>   12.0574    0.0000 </r>
       <r>   12.6666    0.0000 </r>
      </set>
      <set comment="kpoint 6">
       <r>  -15.0891    1.0000 </r>
       <r>  -15.0144    1.0000 </r>
       <r>   -2.7845    1.0000 </r>
       <r>   -2.6610    1.0000 </r>
       <r>   -1.6938    1.0000 </r>
       <r>   -1.5524    1.0000 </r>
       <r>   -1.0930    1.0000 </r>
       <r>   -0.8861    1.0000 </r>
       <r>    1.3755    1.0000 </r>
       <r>    1.7164    1.0000 </r>
       <r>    1.9194    1.0000 </r>
       <r>    1.9463    1.0000 </r>
       <r>    2.3091    1.0000 </r>
       <r>    2.3394    1.0000 </r>
       <r>    2.3744    1.0000 </r>
       <r>    2.3916    1.0000 </r>
       <r>    2.5155    1.0000 </r>
       <r>    2.5711    1.0000 </r>
       <r>    2.7443    1.0000 </r>
       <r>    2.7888    1.0000 </r>
       <r>    2.8143    1.0000 </r>
       <r>    2.8302    1.0000 </r>
       <r>    3.1628    1.0000 </r>
       <r>    3.2478    1.0000 </r>
       <r>    3.4302    1.0000 </r>
       <r>    3.4591    1.0000 </r>
       <r>    4.0353    1.0000 </r>
       <r>    4.1319    1.0000 </r>
       <r>    6.6474    0.0000 </r>
       <r>    6.8017    0.0000 </r>
       <r>    8.4657    0.0000 </r>
       <r>    8.6653    0.0000 </r>
       <r>   11.6115    0.0000 </r>
       <r>   11.6229    0.0000 </r>
       <r>   12.1429    0.0000 </r>
       <r>   13.0806    0.0000 </r>
      </set>
      <set comment="kpoint 7">
       <r>  -15.2765    1.0000 </r>
       <r>  -14.8521    1.0000 </r>
       <r>   -2.5807    1.0000 </r>
       <r>   -2.5807    1.0000 </r>
       <r>   -1.9523    1.0000 </r>
       <r>   -1.6705    1.0000 </r>
       <r>   -0.7404    1.0000 </r>
       <r>   -0.7404    1.0000 </r>
       <r>    0.6432    1.0000 </r>
       <r>    1.7846    1.0000 </r>
       <r>    1.7846    1.0000 </r>
       <r>    2.1652    1.0000 </r>
       <r>    2.1909    1.0000 </r>
       <r>    2.1909    1.0000 </r>
       <r>    2.5260    1.0000 </r>
       <r>    2.5260    1.0000 </r>
       <r>    2.5956    1.0000 </r>
       <r>    2.5956    1.0000 </r>
       <r>    2.7917    1.0000 </r>
       <r>    2.9176    1.0000 </r>
       <r>    2.9176    1.0000 </r>
       <r>    2.9916    1.0000 </r>
       <r>    3.0464    1.0000 </r>
       <r>    3.0464    1.0000 </r>
       <r>    3.0766    1.0000 </r>
       <r>    3.8569    1.0000 </r>
       <r>    3.8569    1.0000 </r>
       <r>    4.3941    1.0000 </r>
       <r>    6.1768    0.0000 </r>
       <r>    7.5994    0.0000 </r>
       <r>    7.5994    0.0000 </r>
       <r>    9.9643    0.0000 </r>
       <r>   10.7987    0.0000 </r>
       <r>   10.7987    0.0000 </r>
       <r>   13.6821    0.0000 </r>
       <r>   13.6821    0.0000 </r>
      </set>
      <set comment="kpoint 8">
       <r>  -15.1694    1.0000 </r>
       <r>  -14.9424    1.0000 </r>
       <r>   -2.6371    1.0000 </r>
       <r>   -2.3009    1.0000 </r>
       <r>   -2.2394    1.0000 </r>
       <r>   -1.3810    1.0000 </r>
       <r>   -1.1596    1.0000 </r>
       <r>   -0.9490    1.0000 </r>
       <r>    1.1062    1.0000 </r>
       <r>    1.6393    1.0000 </r>
       <r>    1.8413    1.0000 </r>
       <r>    2.2082    1.0000 </r>
       <r>    2.2311    1.0000 </r>
       <r>    2.3354    1.0000 </r>
       <r>    2.3872    1.0000 </r>
       <r>    2.4382    1.0000 </r>
       <r>    2.4586    1.0000 </r>
       <r>    2.6606    1.0000 </r>
       <r>    2.7241    1.0000 </r>
       <r>    2.8863    1.0000 </r>
       <r>    2.8999    1.0000 </r>
       <r>    2.9356    1.0000 </r>
       <r>    2.9717    1.0000 </r>
       <r>    3.2270    1.0000 </r>
       <r>    3.2940    1.0000 </r>
       <r>    3.5311    1.0000 </r>
       <r>    4.1196    1.0000 </r>
       <r>    4.1582    1.0000 </r>
       <r>    6.7916    0.0000 </r>
       <r>    7.5921    0.0000 </r>
       <r>    7.9028    0.0000 </r>
       <r>    9.3372    0.0000 </r>
       <r>    9.8518    0.0000 </r>
       <r>   10.6296    0.0000 </r>
       <r>   13.8786    0.0000 </r>
       <r>   15.0043    0.0000 </r>
      </set>
      <set comment="kpoint 9">
       <r>  -15.1788    1.0000 </r>
       <r>  -14.9068    1.0000 </r>
       <r>   -2.7013    1.0000 </r>
       <r>   -2.6227    1.0000 </r>
       <r>   -2.1593    1.0000 </r>
       <r>   -1.2496    1.0000 </r>
       <r>   -1.0891    1.0000 </r>
       <r>   -0.9635    1.0000 </r>
       <r>    1.3499    1.0000 </r>
       <r>    1.6134    1.0000 </r>
       <r>    1.6839    1.0000 </r>
       <r>    2.1922    1.0000 </r>
       <r>    2.2798    1.0000 </r>
       <r>    2.3823    1.0000 </r>
       <r>    2.3876    1.0000 </r>
       <r>    2.4727    1.0000 </r>
       <r>    2.5222    1.0000 </r>
       <r>    2.5634    1.0000 </r>
       <r>    2.7279    1.0000 </r>
       <r>    2.8303    1.0000 </r>
       <r>    2.9161    1.0000 </r>
       <r>    2.9401    1.0000 </r>
       <r>    3.0893    1.0000 </r>
       <r>    3.1081    1.0000 </r>
       <r>    3.5115    1.0000 </r>
       <r>    3.6488    1.0000 </r>
       <r>    3.9522    1.0000 </r>
       <r>    4.0919    1.0000 </r>
       <r>    6.6100    0.0000 </r>
       <r>    7.6151    0.0000 </r>
       <r>    8.1703    0.0000 </r>
       <r>    8.4958    0.0000 </r>
       <r>    9.9378    0.0000 </r>
       <r>   10.1896    0.0000 </r>
       <r>   14.2063    0.0000 </r>
       <r>   14.5175    0.0000 </r>
      </set>
      <set comment="kpoint 10">
       <r>  -15.2442    1.0000 </r>
       <r>  -14.8122    1.0000 </r>
       <r>   -2.5663    1.0000 </r>
       <r>   -2.5508    1.0000 </r>
       <r>   -2.5508    1.0000 </r>
       <r>   -1.0963    1.0000 </r>
       <r>   -1.0963    1.0000 </r>
       <r>   -1.0742    1.0000 </r>
       <r>    1.3772    1.0000 </r>
       <r>    1.5011    1.0000 </r>
       <r>    1.5011    1.0000 </r>
       <r>    2.1947    1.0000 </r>
       <r>    2.1947    1.0000 </r>
       <r>    2.3816    1.0000 </r>
       <r>    2.3816    1.0000 </r>
       <r>    2.4419    1.0000 </r>
       <r>    2.6560    1.0000 </r>
       <r>    2.7180    1.0000 </r>
       <r>    2.7180    1.0000 </r>
       <r>    2.9489    1.0000 </r>
       <r>    2.9618    1.0000 </r>
       <r>    2.9618    1.0000 </r>
       <r>    3.0239    1.0000 </r>
       <r>    3.0239    1.0000 </r>
       <r>    3.7422    1.0000 </r>
       <r>    3.8380    1.0000 </r>
       <r>    4.0439    1.0000 </r>
       <r>    4.0439    1.0000 </r>
       <r>    7.1305    0.0000 </r>
       <r>    7.3741    0.0000 </r>
       <r>    7.3741    0.0000 </r>
       <r>    9.0352    0.0000 </r>
       <r>    9.5682    0.0000 </r>
       <r>    9.5682    0.0000 </r>
       <r>   12.7281    0.0000 </r>
       <r>   13.2643    0.0000 </r>
      </set>
     </set>
     <set comment="spin 2">
      <set comment="kpoint 1">
       <r>  -15.4617    1.0000 </r>
       <r>  -14.6863    1.0000 </r>
       <r>   -2.6732    1.0000 </r>
       <r>   -2.6732    1.0000 </r>
       <r>   -2.6732    1.0000 </r>
       <r>   -0.2522    1.0000 </r>
       <r>   -0.1830    1.0000 </r>
       <r>   -0.1830    1.0000 </r>
       <r>   -0.1830    1.0000 </r>
       <r>    1.6361    1.0000 </r>
       <r>    1.6361    1.0000 </r>
       <r>    1.7565    1.0000 </r>
       <r>    1.7565    1.0000 </r>
       <r>    1.7565    1.0000 </r>
       <r>    2.6689    1.0000 </r>
       <r>    2.6689    1.0000 </r>
       <r>    2.7775    1.0000 </r>
       <r>    2.7775    1.0000 </r>
       <r>    2.7775    1.0000 </r>
       <r>    2.9331    1.0000 </r>
       <r>    2.9331    1.0000 </r>
       <r>    2.9331    1.0000 </r>
       <r>    3.1245    1.0000 </r>
       <r>    3.1245    1.0000 </r>
       <r>    3.1245    1.0000 </r>
       <r>    4.7131    1.0000 </r>
       <r>    4.7131    1.0000 </r>
       <r>    4.7131    1.0000 </r>
       <r>    5.2388    0.0000 </r>
       <r>    5.8619    0.0000 </r>
       <r>    5.8619    0.0000 </r>
       <r>   12.6725    0.0000 </r>
       <r>   12.6725    0.0000 </r>
       <r>   12.6725    0.0000 </r>
       <r>   14.0140    0.0000 </r>
       <r>   14.0140    0.0000 </r>
      </set>
      <set comment="kpoint 2">
       <r>  -15.3870    1.0000 </r>
       <r>  -14.7591    1.0000 </r>
       <r>   -2.5703    1.0000 </r>
       <r>   -2.5243    1.0000 </r>
       <r>   -2.5243    1.0000 </r>
       <r>   -0.9247    1.0000 </r>
       <r>   -0.5489    1.0000 </r>
       <r>   -0.5489    1.0000 </r>
       <r>    0.2992    1.0000 </r>
       <r>    1.7076    1.0000 </r>
       <r>    1.7535    1.0000 </r>
       <r>    1.8552    1.0000 </r>
       <r>    2.0233    1.0000 </r>
       <r>    2.0233    1.0000 </r>
       <r>    2.6504    1.0000 </r>
       <r>    2.6903    1.0000 </r>
       <r>    2.6973    1.0000 </r>
       <r>    2.7723    1.0000 </r>
       <r>    2.8189    1.0000 </r>
       <r>    2.8189    1.0000 </r>
       <r>    2.9646    1.0000 </r>
       <r>    3.0166    1.0000 </r>
       <r>    3.0166    1.0000 </r>
       <r>    3.1014    1.0000 </r>
       <r>    3.1014    1.0000 </r>
       <r>    3.6067    1.0000 </r>
       <r>    4.6134    1.0000 </r>
       <r>    4.6134    1.0000 </r>
       <r>    5.5854    0.0000 </r>
       <r>    6.4851    0.0000 </r>
       <r>    7.0296    0.0000 </r>
       <r>   12.1042    0.0000 </r>
       <r>   12.2756    0.0000 </r>
       <r>   12.4879    0.0000 </r>
       <r>   12.4883    0.0000 </r>
       <r>   13.2316    0.0000 </r>
      </set>
      <set comment="kpoint 3">
       <r>  -15.1915    1.0000 </r>
       <r>  -14.9514    1.0000 </r>
       <r>   -2.2439    1.0000 </r>
       <r>   -2.1572    1.0000 </r>
       <r>   -2.1572    1.0000 </r>
       <r>   -1.6750    1.0000 </r>
       <r>   -1.1689    1.0000 </r>
       <r>   -1.1689    1.0000 </r>
       <r>    0.8809    1.0000 </r>
       <r>    1.5259    1.0000 </r>
       <r>    1.9288    1.0000 </r>
       <r>    2.1756    1.0000 </r>
       <r>    2.3059    1.0000 </r>
       <r>    2.3989    1.0000 </r>
       <r>    2.3989    1.0000 </r>
       <r>    2.4308    1.0000 </r>
       <r>    2.6202    1.0000 </r>
       <r>    2.7146    1.0000 </r>
       <r>    2.7146    1.0000 </r>
       <r>    2.7674    1.0000 </r>
       <r>    2.7724    1.0000 </r>
       <r>    2.8680    1.0000 </r>
       <r>    3.0136    1.0000 </r>
       <r>    3.0136    1.0000 </r>
       <r>    3.4130    1.0000 </r>
       <r>    3.4130    1.0000 </r>
       <r>    4.3714    1.0000 </r>
       <r>    4.3714    1.0000 </r>
       <r>    6.4738    0.0000 </r>
       <r>    7.3560    0.0000 </r>
       <r>    7.9570    0.0000 </r>
       <r>    9.9395    0.0000 </r>
       <r>   12.1974    0.0000 </r>
       <r>   12.1974    0.0000 </r>
       <r>   12.4345    0.0000 </r>
       <r>   12.4352    0.0000 </r>
      </set>
      <set comment="kpoint 4">
       <r>  -15.3239    1.0000 </r>
       <r>  -14.8152    1.0000 </r>
       <r>   -2.7076    1.0000 </r>
       <r>   -2.4140    1.0000 </r>
       <r>   -2.1790    1.0000 </r>
       <r>   -1.4163    1.0000 </r>
       <r>   -0.7780    1.0000 </r>
       <r>   -0.5082    1.0000 </r>
       <r>    0.4653    1.0000 </r>
       <r>    1.7619    1.0000 </r>
       <r>    1.8269    1.0000 </r>
       <r>    1.9615    1.0000 </r>
       <r>    2.0443    1.0000 </r>
       <r>    2.2011    1.0000 </r>
       <r>    2.6289    1.0000 </r>
       <r>    2.6306    1.0000 </r>
       <r>    2.6454    1.0000 </r>
       <r>    2.6631    1.0000 </r>
       <r>    2.8175    1.0000 </r>
       <r>    2.8923    1.0000 </r>
       <r>    2.9309    1.0000 </r>
       <r>    2.9492    1.0000 </r>
       <r>    2.9777    1.0000 </r>
       <r>    3.0890    1.0000 </r>
       <r>    3.1281    1.0000 </r>
       <r>    3.5920    1.0000 </r>
       <r>    4.2086    1.0000 </r>
       <r>    4.5215    1.0000 </r>
       <r>    5.8880    0.0000 </r>
       <r>    7.0332    0.0000 </r>
       <r>    7.4921    0.0000 </r>
       <r>   10.8851    0.0000 </r>
       <r>   11.0814    0.0000 </r>
       <r>   12.3010    0.0000 </r>
       <r>   12.6573    0.0000 </r>
       <r>   13.6661    0.0000 </r>
      </set>
      <set comment="kpoint 5">
       <r>  -15.1613    1.0000 </r>
       <r>  -14.9665    1.0000 </r>
       <r>   -2.6072    1.0000 </r>
       <r>   -2.3220    1.0000 </r>
       <r>   -1.7916    1.0000 </r>
       <r>   -1.7324    1.0000 </r>
       <r>   -1.1969    1.0000 </r>
       <r>   -0.9442    1.0000 </r>
       <r>    1.0069    1.0000 </r>
       <r>    1.6195    1.0000 </r>
       <r>    1.9223    1.0000 </r>
       <r>    2.1586    1.0000 </r>
       <r>    2.2056    1.0000 </r>
       <r>    2.3315    1.0000 </r>
       <r>    2.3897    1.0000 </r>
       <r>    2.4023    1.0000 </r>
       <r>    2.5673    1.0000 </r>
       <r>    2.6880    1.0000 </r>
       <r>    2.7429    1.0000 </r>
       <r>    2.8031    1.0000 </r>
       <r>    2.8479    1.0000 </r>
       <r>    2.8712    1.0000 </r>
       <r>    3.0449    1.0000 </r>
       <r>    3.1638    1.0000 </r>
       <r>    3.3766    1.0000 </r>
       <r>    3.4124    1.0000 </r>
       <r>    4.1783    1.0000 </r>
       <r>    4.2952    1.0000 </r>
       <r>    6.5997    0.0000 </r>
       <r>    7.2720    0.0000 </r>
       <r>    8.1487    0.0000 </r>
       <r>    9.2960    0.0000 </r>
       <r>   11.4612    0.0000 </r>
       <r>   11.9855    0.0000 </r>
       <r>   12.0574    0.0000 </r>
       <r>   12.6666    0.0000 </r>
      </set>
      <set comment="kpoint 6">
       <r>  -15.0891    1.0000 </r>
       <r>  -15.0144    1.0000 </r>
       <r>   -2.7845    1.0000 </r>
       <r>   -2.6610    1.0000 </r>
       <r>   -1.6939    1.0000 </r>
       <r>   -1.5524    1.0000 </r>
       <r>   -1.0931    1.0000 </r>
       <r>   -0.8862    1.0000 </r>
       <r>    1.3755    1.0000 </r>
       <r>    1.7165    1.0000 </r>
       <r>    1.9194    1.0000 </r>
       <r>    1.9464    1.0000 </r>
       <r>    2.3091    1.0000 </r>
       <r>    2.3394    1.0000 </r>
       <r>    2.3744    1.0000 </r>
       <r>    2.3916    1.0000 </r>
       <r>    2.5155    1.0000 </r>
       <r>    2.5711    1.0000 </r>
       <r>    2.7444    1.0000 </r>
       <r>    2.7888    1.0000 </r>
       <r>    2.8143    1.0000 </r>
       <r>    2.8302    1.0000 </r>
       <r>    3.1629    1.0000 </r>
       <r>    3.2478    1.0000 </r>
       <r>    3.4302    1.0000 </r>
       <r>    3.4591    1.0000 </r>
       <r>    4.0354    1.0000 </r>
       <r>    4.1319    1.0000 </r>
       <r>    6.6474    0.0000 </r>
       <r>    6.8016    0.0000 </r>
       <r>    8.4657    0.0000 </r>
       <r>    8.6653    0.0000 </r>
       <r>   11.6115    0.0000 </r>
       <r>   11.6229    0.0000 </r>
       <r>   12.1429    0.0000 </r>
       <r>   13.0806    0.0000 </r>
      </set>
      <set comment="kpoint 7">
       <r>  -15.2765    1.0000 </r>
       <r>  -14.8521    1.0000 </r>
       <r>   -2.5807    1.0000 </r>
       <r>   -2.5807    1.0000 </r>
       <r>   -1.9523    1.0000 </r>
       <r>   -1.6705    1.0000 </r>
       <r>   -0.7405    1.0000 </r>
       <r>   -0.7405    1.0000 </r>
       <r>    0.6432    1.0000 </r>
       <r>    1.7846    1.0000 </r>
       <r>    1.7846    1.0000 </r>
       <r>    2.1652    1.0000 </r>
       <r>    2.1909    1.0000 </r>
       <r>    2.1909    1.0000 </r>
       <r>    2.5260    1.0000 </r>
       <r>    2.5260    1.0000 </r>
       <r>    2.5956    1.0000 </r>
       <r>    2.5956    1.0000 </r>
       <r>    2.7917    1.0000 </r>
       <r>    2.9177    1.0000 </r>
       <r>    2.9177    1.0000 </r>
       <r>    2.9916    1.0000 </r>
       <r>    3.0464    1.0000 </r>
       <r>    3.0464    1.0000 </r>
       <r>    3.0767    1.0000 </r>
       <r>    3.8570    1.0000 </r>
       <r>    3.8570    1.0000 </r>
       <r>    4.3941    1.0000 </r>
       <r>    6.1768    0.0000 </r>
       <r>    7.5994    0.0000 </r>
       <r>    7.5994    0.0000 </r>
       <r>    9.9643    0.0000 </r>
       <r>   10.7986    0.0000 </r>
       <r>   10.7986    0.0000 </r>
       <r>   13.6821    0.0000 </r>
       <r>   13.6821    0.0000 </r>
      </set>
      <set comment="kpoint 8">
       <r>  -15.1694    1.0000 </r>
       <r>  -14.9424    1.0000 </r>
       <r>   -2.6372    1.0000 </r>
       <r>   -2.3009    1.0000 </r>
       <r>   -2.2394    1.0000 </r>
       <r>   -1.3810    1.0000 </r>
       <r>   -1.1596    1.0000 </r>
       <r>   -0.9490    1.0000 </r>
       <r>    1.1062    1.0000 </r>
       <r>    1.6394    1.0000 </r>
       <r>    1.8413    1.0000 </r>
       <r>    2.2082    1.0000 </r>
       <r>    2.2311    1.0000 </r>
       <r>    2.3354    1.0000 </r>
       <r>    2.3872    1.0000 </r>
       <r>    2.4382    1.0000 </r>
       <r>    2.4586    1.0000 </r>
       <r>    2.6606    1.0000 </r>
       <r>    2.7241    1.0000 </r>
       <r>    2.8863    1.0000 </r>
       <r>    2.8999    1.0000 </r>
       <r>    2.9356    1.0000 </r>
       <r>    2.9717    1.0000 </r>
       <r>    3.2270    1.0000 </r>
       <r>    3.2941    1.0000 </r>
       <r>    3.5311    1.0000 </r>
       <r>    4.1196    1.0000 </r>
       <r>    4.1582    1.0000 </r>
       <r>    6.7916    0.0000 </r>
       <r>    7.5921    0.0000 </r>
       <r>    7.9028    0.0000 </r>
       <r>    9.3372    0.0000 </r>
       <r>    9.8518    0.0000 </r>
       <r>   10.6296    0.0000 </r>
       <r>   13.8786    0.0000 </r>
       <r>   15.0354    0.0000 </r>
      </set>
      <set comment="kpoint 9">
       <r>  -15.1788    1.0000 </r>
       <r>  -14.9068    1.0000 </r>
       <r>   -2.7013    1.0000 </r>
       <r>   -2.6227    1.0000 </r>
       <r>   -2.1594    1.0000 </r>
       <r>   -1.2497    1.0000 </r>
       <r>   -1.0891    1.0000 </r>
       <r>   -0.9636    1.0000 </r>
       <r>    1.3500    1.0000 </r>
       <r>    1.6134    1.0000 </r>
       <r>    1.6839    1.0000 </r>
       <r>    2.1922    1.0000 </r>
       <r>    2.2798    1.0000 </r>
       <r>    2.3823    1.0000 </r>
       <r>    2.3876    1.0000 </r>
       <r>    2.4727    1.0000 </r>
       <r>    2.5222    1.0000 </r>
       <r>    2.5634    1.0000 </r>
       <r>    2.7279    1.0000 </r>
       <r>    2.8303    1.0000 </r>
       <r>    2.9161    1.0000 </r>
       <r>    2.9401    1.0000 </r>
       <r>    3.0893    1.0000 </r>
       <r>    3.1081    1.0000 </r>
       <r>    3.5115    1.0000 </r>
       <r>    3.6488    1.0000 </r>
       <r>    3.9523    1.0000 </r>
       <r>    4.0919    1.0000 </r>
       <r>    6.6100    0.0000 </r>
       <r>    7.6151    0.0000 </r>
       <r>    8.1703    0.0000 </r>
       <r>    8.4958    0.0000 </r>
       <r>    9.9378    0.0000 </r>
       <r>   10.1896    0.0000 </r>
       <r>   14.2054    0.0000 </r>
       <r>   14.5165    0.0000 </r>
      </set>
      <set comment="kpoint 10">
       <r>  -15.2442    1.0000 </r>
       <r>  -14.8122    1.0000 </r>
       <r>   -2.5663    1.0000 </r>
       <r>   -2.5508    1.0000 </r>
       <r>   -2.5508    1.0000 </r>
       <r>   -1.0963    1.0000 </r>
       <r>   -1.0963    1.0000 </r>
       <r>   -1.0743    1.0000 </r>
       <r>    1.3772    1.0000 </r>
       <r>    1.5011    1.0000 </r>
       <r>    1.5011    1.0000 </r>
       <r>    2.1947    1.0000 </r>
       <r>    2.1947    1.0000 </r>
       <r>    2.3816    1.0000 </r>
       <r>    2.3816    1.0000 </r>
       <r>    2.4419    1.0000 </r>
       <r>    2.6561    1.0000 </r>
       <r>    2.7180    1.0000 </r>
       <r>    2.7180    1.0000 </r>
       <r>    2.9489    1.0000 </r>
       <r>    2.9618    1.0000 </r>
       <r>    2.9618    1.0000 </r>
       <r>    3.0239    1.0000 </r>
       <r>    3.0239    1.0000 </r>
       <r>    3.7422    1.0000 </r>
       <r>    3.8381    1.0000 </r>
       <r>    4.0440    1.0000 </r>
       <r>    4.0440    1.0000 </r>
       <r>    7.1305    0.0000 </r>
       <r>    7.3741    0.0000 </r>
       <r>    7.3741    0.0000 </r>
       <r>    9.0352    0.0000 </r>
       <r>    9.5682    0.0000 </r>
       <r>    9.5682    0.0000 </r>
       <r>   12.7280    0.0000 </r>
       <r>   13.2643    0.0000 </r>
      </set>
     </set>
    </set>
   </array>
  </eigenvalues>
  <separator name="orbital magnetization" >
   <v name="MAGDIPOLOUT">      0.00000000      0.00000000      0.00000000</v>
  </separator>
  <dos>
   <i name="efermi">      4.76018919 </i>
   <total>
    <array>
     <dimension dim="1">gridpoints</dimension>
     <dimension dim="2">spin</dimension>
     <field>energy</field>
     <field>total</field>
     <field>integrated</field>
     <set>
      <set comment="spin 1">
       <r>   -17.4617     0.0000     0.0000 </r>
       <r>   -17.3467     0.0000     0.0000 </r>
       <r>   -17.2318     0.0000     0.0000 </r>
       <r>   -17.1168     0.0000     0.0000 </r>
       <r>   -17.0018     0.0000     0.0000 </r>
       <r>   -16.8868     0.0000     0.0000 </r>
       <r>   -16.7718     0.0000     0.0000 </r>
       <r>   -16.6568     0.0000     0.0000 </r>
       <r>   -16.5418     0.0000     0.0000 </r>
       <r>   -16.4268     0.0000     0.0000 </r>
       <r>   -16.3118     0.0000     0.0000 </r>
       <r>   -16.1968     0.0000     0.0000 </r>
       <r>   -16.0818     0.0000     0.0000 </r>
       <r>   -15.9669     0.0000     0.0000 </r>
       <r>   -15.8519     0.0000     0.0000 </r>
       <r>   -15.7369     0.0000     0.0000 </r>
       <r>   -15.6219     0.0000     0.0000 </r>
       <r>   -15.5069     0.0000     0.0000 </r>
       <r>   -15.3919     0.4261     0.0099 </r>
       <r>   -15.2769     1.6533     0.1291 </r>
       <r>   -15.1619    15.0149     0.7948 </r>
       <r>   -15.0469     0.0000     1.0000 </r>
       <r>   -14.9319     8.9838     1.4323 </r>
       <r>   -14.8169     1.8978     1.9177 </r>
       <r>   -14.7020     0.2337     1.9999 </r>
       <r>   -14.5870     0.0000     2.0000 </r>
       <r>   -14.4720     0.0000     2.0000 </r>
       <r>   -14.3570     0.0000     2.0000 </r>
       <r>   -14.2420     0.0000     2.0000 </r>
       <r>   -14.1270     0.0000     2.0000 </r>
       <r>   -14.0120     0.0000     2.0000 </r>
       <r>   -13.8970     0.0000     2.0000 </r>
       <r>   -13.7820     0.0000     2.0000 </r>
       <r>   -13.6670     0.0000     2.0000 </r>
       <r>   -13.5521     0.0000     2.0000 </r>
       <r>   -13.4371     0.0000     2.0000 </r>
       <r>   -13.3221     0.0000     2.0000 </r>
       <r>   -13.2071     0.0000     2.0000 </r>
       <r>   -13.0921     0.0000     2.0000 </r>
       <r>   -12.9771     0.0000     2.0000 </r>
       <r>   -12.8621     0.0000     2.0000 </r>
       <r>   -12.7471     0.0000     2.0000 </r>
       <r>   -12.6321     0.0000     2.0000 </r>
       <r>   -12.5171     0.0000     2.0000 </r>
       <r>   -12.4021     0.0000     2.0000 </r>
       <r>   -12.2872     0.0000     2.0000 </r>
       <r>   -12.1722     0.0000     2.0000 </r>
       <r>   -12.0572     0.0000     2.0000 </r>
       <r>   -11.9422     0.0000     2.0000 </r>
       <r>   -11.8272     0.0000     2.0000 </r>
       <r>   -11.7122     0.0000     2.0000 </r>
       <r>   -11.5972     0.0000     2.0000 </r>
       <r>   -11.4822     0.0000     2.0000 </r>
       <r>   -11.3672     0.0000     2.0000 </r>
       <r>   -11.2522     0.0000     2.0000 </r>
       <r>   -11.1373     0.0000     2.0000 </r>
       <r>   -11.0223     0.0000     2.0000 </r>
       <r>   -10.9073     0.0000     2.0000 </r>
       <r>   -10.7923     0.0000     2.0000 </r>
       <r>   -10.6773     0.0000     2.0000 </r>
       <r>   -10.5623     0.0000     2.0000 </r>
       <r>   -10.4473     0.0000     2.0000 </r>
       <r>   -10.3323     0.0000     2.0000 </r>
       <r>   -10.2173     0.0000     2.0000 </r>
       <r>   -10.1023     0.0000     2.0000 </r>
       <r>    -9.9873     0.0000     2.0000 </r>
       <r>    -9.8724     0.0000     2.0000 </r>
       <r>    -9.7574     0.0000     2.0000 </r>
       <r>    -9.6424     0.0000     2.0000 </r>
       <r>    -9.5274     0.0000     2.0000 </r>
       <r>    -9.4124     0.0000     2.0000 </r>
       <r>    -9.2974     0.0000     2.0000 </r>
       <r>    -9.1824     0.0000     2.0000 </r>
       <r>    -9.0674     0.0000     2.0000 </r>
       <r>    -8.9524     0.0000     2.0000 </r>
       <r>    -8.8374     0.0000     2.0000 </r>
       <r>    -8.7225     0.0000     2.0000 </r>
       <r>    -8.6075     0.0000     2.0000 </r>
       <r>    -8.4925     0.0000     2.0000 </r>
       <r>    -8.3775     0.0000     2.0000 </r>
       <r>    -8.2625     0.0000     2.0000 </r>
       <r>    -8.1475     0.0000     2.0000 </r>
       <r>    -8.0325     0.0000     2.0000 </r>
       <r>    -7.9175     0.0000     2.0000 </r>
       <r>    -7.8025     0.0000     2.0000 </r>
       <r>    -7.6875     0.0000     2.0000 </r>
       <r>    -7.5725     0.0000     2.0000 </r>
       <r>    -7.4576     0.0000     2.0000 </r>
       <r>    -7.3426     0.0000     2.0000 </r>
       <r>    -7.2276     0.0000     2.0000 </r>
       <r>    -7.1126     0.0000     2.0000 </r>
       <r>    -6.9976     0.0000     2.0000 </r>
       <r>    -6.8826     0.0000     2.0000 </r>
       <r>    -6.7676     0.0000     2.0000 </r>
       <r>    -6.6526     0.0000     2.0000 </r>
       <r>    -6.5376     0.0000     2.0000 </r>
       <r>    -6.4226     0.0000     2.0000 </r>
       <r>    -6.3076     0.0000     2.0000 </r>
       <r>    -6.1927     0.0000     2.0000 </r>
       <r>    -6.0777     0.0000     2.0000 </r>
       <r>    -5.9627     0.0000     2.0000 </r>
       <r>    -5.8477     0.0000     2.0000 </r>
       <r>    -5.7327     0.0000     2.0000 </r>
       <r>    -5.6177     0.0000     2.0000 </r>
       <r>    -5.5027     0.0000     2.0000 </r>
       <r>    -5.3877     0.0000     2.0000 </r>
       <r>    -5.2727     0.0000     2.0000 </r>
       <r>    -5.1577     0.0000     2.0000 </r>
       <r>    -5.0428     0.0000     2.0000 </r>
       <r>    -4.9278     0.0000     2.0000 </r>
       <r>    -4.8128     0.0000     2.0000 </r>
       <r>    -4.6978     0.0000     2.0000 </r>
       <r>    -4.5828     0.0000     2.0000 </r>
       <r>    -4.4678     0.0000     2.0000 </r>
       <r>    -4.3528     0.0000     2.0000 </r>
       <r>    -4.2378     0.0000     2.0000 </r>
       <r>    -4.1228     0.0000     2.0000 </r>
       <r>    -4.0078     0.0000     2.0000 </r>
       <r>    -3.8928     0.0000     2.0000 </r>
       <r>    -3.7779     0.0000     2.0000 </r>
       <r>    -3.6629     0.0000     2.0000 </r>
       <r>    -3.5479     0.0000     2.0000 </r>
       <r>    -3.4329     0.0000     2.0000 </r>
       <r>    -3.3179     0.0000     2.0000 </r>
       <r>    -3.2029     0.0000     2.0000 </r>
       <r>    -3.0879     0.0000     2.0000 </r>
       <r>    -2.9729     0.0000     2.0000 </r>
       <r>    -2.8579     0.0000     2.0000 </r>
       <r>    -2.7429     1.5321     2.0424 </r>
       <r>    -2.6280    10.4871     2.6794 </r>
       <r>    -2.5130     4.2880     3.2876 </r>
       <r>    -2.3980     3.4643     3.7014 </r>
       <r>    -2.2830     2.2858     4.0879 </r>
       <r>    -2.1680     2.8225     4.3441 </r>
       <r>    -2.0530     1.9093     4.5790 </r>
       <r>    -1.9380     1.5407     4.7798 </r>
       <r>    -1.8230     1.0855     4.9305 </r>
       <r>    -1.7080     1.2265     5.0226 </r>
       <r>    -1.5930     1.9267     5.2006 </r>
       <r>    -1.4780     2.0746     5.4422 </r>
       <r>    -1.3631     1.6440     5.6566 </r>
       <r>    -1.2481     1.4018     5.8279 </r>
       <r>    -1.1331     6.5344     6.2275 </r>
       <r>    -1.0181     4.1553     6.8069 </r>
       <r>    -0.9031     5.2952     7.4698 </r>
       <r>    -0.7881     1.3846     7.7005 </r>
       <r>    -0.6731     0.9534     7.8362 </r>
       <r>    -0.5581     0.6028     7.9241 </r>
       <r>    -0.4431     0.3352     7.9831 </r>
       <r>    -0.3281     0.0603     7.9971 </r>
       <r>    -0.2132     0.0026     8.0000 </r>
       <r>    -0.0982     0.0036     8.0001 </r>
       <r>     0.0168     0.0201     8.0013 </r>
       <r>     0.1318     0.0500     8.0052 </r>
       <r>     0.2468     0.0932     8.0133 </r>
       <r>     0.3618     0.2573     8.0309 </r>
       <r>     0.4768     0.3449     8.0675 </r>
       <r>     0.5918     0.3913     8.1093 </r>
       <r>     0.7068     0.4872     8.1595 </r>
       <r>     0.8218     0.6044     8.2221 </r>
       <r>     0.9368     1.0571     8.3084 </r>
       <r>     1.0517     1.3614     8.4614 </r>
       <r>     1.1667     1.2929     8.6064 </r>
       <r>     1.2817     1.3908     8.7617 </r>
       <r>     1.3967     1.1131     9.0000 </r>
       <r>     1.5117     0.9723     9.0241 </r>
       <r>     1.6267    13.2460     9.4244 </r>
       <r>     1.7417     4.4567    10.1529 </r>
       <r>     1.8567     5.8990    10.6538 </r>
       <r>     1.9717     1.5293    11.0957 </r>
       <r>     2.0867     4.1151    11.3973 </r>
       <r>     2.2016    15.2426    12.3592 </r>
       <r>     2.3166     6.7342    13.3355 </r>
       <r>     2.4316    21.9130    14.9830 </r>
       <r>     2.5466    11.9858    16.2398 </r>
       <r>     2.6616    12.9591    17.5132 </r>
       <r>     2.7766    10.5595    18.8316 </r>
       <r>     2.8916    25.3640    20.6123 </r>
       <r>     3.0066    16.1906    22.1912 </r>
       <r>     3.1216    12.0380    23.4105 </r>
       <r>     3.2366     3.1015    24.1921 </r>
       <r>     3.3516     3.7388    24.4473 </r>
       <r>     3.4665     6.1636    24.9842 </r>
       <r>     3.5815     3.7679    25.5049 </r>
       <r>     3.6965     1.9106    25.8354 </r>
       <r>     3.8115     0.5605    25.9631 </r>
       <r>     3.9265     0.3593    25.9926 </r>
       <r>     4.0415     4.3802    26.3227 </r>
       <r>     4.1565     6.6219    27.0400 </r>
       <r>     4.2715     3.0435    27.4940 </r>
       <r>     4.3865     1.7011    27.7685 </r>
       <r>     4.5015     0.9187    27.9040 </r>
       <r>     4.6165     0.5483    27.9868 </r>
       <r>     4.7314     0.0000    28.0000 </r>
       <r>     4.8464     0.0000    28.0000 </r>
       <r>     4.9614     0.0000    28.0000 </r>
       <r>     5.0764     0.0000    28.0000 </r>
       <r>     5.1914     0.0000    28.0000 </r>
       <r>     5.3064     0.0039    28.0001 </r>
       <r>     5.4214     0.0281    28.0017 </r>
       <r>     5.5364     0.0746    28.0074 </r>
       <r>     5.6514     0.1445    28.0199 </r>
       <r>     5.7664     0.2007    28.0399 </r>
       <r>     5.8813     0.2325    28.0651 </r>
       <r>     5.9963     0.2624    28.0932 </r>
       <r>     6.1113     0.3235    28.1266 </r>
       <r>     6.2263     0.4149    28.1688 </r>
       <r>     6.3413     0.5291    28.2229 </r>
       <r>     6.4563     0.6643    28.2913 </r>
       <r>     6.5713     1.2782    28.4000 </r>
       <r>     6.6863     3.5399    28.7837 </r>
       <r>     6.8013     0.6000    28.9657 </r>
       <r>     6.9163     0.6804    29.0420 </r>
       <r>     7.0313     0.7789    29.1251 </r>
       <r>     7.1462     1.0085    29.2337 </r>
       <r>     7.2612     1.4015    29.3670 </r>
       <r>     7.3762     2.2891    29.5942 </r>
       <r>     7.4912     2.1817    29.8293 </r>
       <r>     7.6062     4.2269    30.1288 </r>
       <r>     7.7212     0.7149    30.2274 </r>
       <r>     7.8362     0.9251    30.3216 </r>
       <r>     7.9512     1.6215    30.4526 </r>
       <r>     8.0662     1.8191    30.6553 </r>
       <r>     8.1812     1.0234    30.8432 </r>
       <r>     8.2961     0.6149    30.9366 </r>
       <r>     8.4111     0.2885    30.9878 </r>
       <r>     8.5261     0.5749    31.0166 </r>
       <r>     8.6411     0.7990    31.0954 </r>
       <r>     8.7561     0.6097    31.1687 </r>
       <r>     8.8711     0.6587    31.2417 </r>
       <r>     8.9861     0.6987    31.3198 </r>
       <r>     9.1011     0.6834    31.4033 </r>
       <r>     9.2161     0.5937    31.4727 </r>
       <r>     9.3311     0.7155    31.5638 </r>
       <r>     9.4461     0.4774    31.6222 </r>
       <r>     9.5610     0.4216    31.6740 </r>
       <r>     9.6760     0.8930    31.7670 </r>
       <r>     9.7910     0.9317    31.8635 </r>
       <r>     9.9060     1.6276    32.0007 </r>
       <r>    10.0210     0.7045    32.1082 </r>
       <r>    10.1360     0.7535    32.1919 </r>
       <r>    10.2510     0.7799    32.2805 </r>
       <r>    10.3660     0.8003    32.3714 </r>
       <r>    10.4810     0.8160    32.4644 </r>
       <r>    10.5960     0.8269    32.5589 </r>
       <r>    10.7109     0.8197    32.6536 </r>
       <r>    10.8259     0.8457    32.7490 </r>
       <r>    10.9409     0.9133    32.8497 </r>
       <r>    11.0559     1.0194    32.9605 </r>
       <r>    11.1709     1.0654    33.0815 </r>
       <r>    11.2859     1.0683    33.2044 </r>
       <r>    11.4009     1.0495    33.3264 </r>
       <r>    11.5159     0.9788    33.4450 </r>
       <r>    11.6309     0.7950    33.5485 </r>
       <r>    11.7459     0.7229    33.6359 </r>
       <r>    11.8609     0.6367    33.7143 </r>
       <r>    11.9758     0.5364    33.7818 </r>
       <r>    12.0908     0.8155    33.8627 </r>
       <r>    12.2058     0.7573    33.9560 </r>
       <r>    12.3208     0.7558    34.0421 </r>
       <r>    12.4358     0.7646    34.1307 </r>
       <r>    12.5508     0.9085    34.2243 </r>
       <r>    12.6658     0.8551    34.3282 </r>
       <r>    12.7808     0.8064    34.4166 </r>
       <r>    12.8958     0.7832    34.5040 </r>
       <r>    13.0108     0.8323    34.5969 </r>
       <r>    13.1258     0.9054    34.6968 </r>
       <r>    13.2407     0.9278    34.8019 </r>
       <r>    13.3557     1.1110    34.9246 </r>
       <r>    13.4707     1.0940    35.0476 </r>
       <r>    13.5857     1.1221    35.1753 </r>
       <r>    13.7007     1.1111    35.3047 </r>
       <r>    13.8157     0.9340    35.4177 </r>
       <r>    13.9307     0.9054    35.5242 </r>
       <r>    14.0457     0.8387    35.6246 </r>
       <r>    14.1607     0.7386    35.7157 </r>
       <r>    14.2757     0.4478    35.7795 </r>
       <r>    14.3906     0.4375    35.8304 </r>
       <r>    14.5056     0.4248    35.8800 </r>
       <r>    14.6206     0.3549    35.9247 </r>
       <r>    14.7356     0.2722    35.9610 </r>
       <r>    14.8506     0.1692    35.9865 </r>
       <r>    14.9656     0.0460    35.9991 </r>
       <r>    15.0806     0.0000    36.0000 </r>
       <r>    15.1956     0.0000    36.0000 </r>
       <r>    15.3106     0.0000    36.0000 </r>
       <r>    15.4256     0.0000    36.0000 </r>
       <r>    15.5406     0.0000    36.0000 </r>
       <r>    15.6555     0.0000    36.0000 </r>
       <r>    15.7705     0.0000    36.0000 </r>
       <r>    15.8855     0.0000    36.0000 </r>
       <r>    16.0005     0.0000    36.0000 </r>
       <r>    16.1155     0.0000    36.0000 </r>
       <r>    16.2305     0.0000    36.0000 </r>
       <r>    16.3455     0.0000    36.0000 </r>
       <r>    16.4605     0.0000    36.0000 </r>
       <r>    16.5755     0.0000    36.0000 </r>
       <r>    16.6905     0.0000    36.0000 </r>
       <r>    16.8054     0.0000    36.0000 </r>
       <r>    16.9204     0.0000    36.0000 </r>
       <r>    17.0354     0.0000    36.0000 </r>
      </set>
      <set comment="spin 2">
       <r>   -17.4617     0.0000     0.0000 </r>
       <r>   -17.3467     0.0000     0.0000 </r>
       <r>   -17.2318     0.0000     0.0000 </r>
       <r>   -17.1168     0.0000     0.0000 </r>
       <r>   -17.0018     0.0000     0.0000 </r>
       <r>   -16.8868     0.0000     0.0000 </r>
       <r>   -16.7718     0.0000     0.0000 </r>
       <r>   -16.6568     0.0000     0.0000 </r>
       <r>   -16.5418     0.0000     0.0000 </r>
       <r>   -16.4268     0.0000     0.0000 </r>
       <r>   -16.3118     0.0000     0.0000 </r>
       <r>   -16.1968     0.0000     0.0000 </r>
       <r>   -16.0818     0.0000     0.0000 </r>
       <r>   -15.9669     0.0000     0.0000 </r>
       <r>   -15.8519     0.0000     0.0000 </r>
       <r>   -15.7369     0.0000     0.0000 </r>
       <r>   -15.6219     0.0000     0.0000 </r>
       <r>   -15.5069     0.0000     0.0000 </r>
       <r>   -15.3919     0.4264     0.0099 </r>
       <r>   -15.2769     1.6537     0.1291 </r>
       <r>   -15.1619    15.0095     0.7951 </r>
       <r>   -15.0469     0.0000     1.0000 </r>
       <r>   -14.9319     8.9834     1.4325 </r>
       <r>   -14.8169     1.8975     1.9178 </r>
       <r>   -14.7020     0.2336     1.9999 </r>
       <r>   -14.5870     0.0000     2.0000 </r>
       <r>   -14.4720     0.0000     2.0000 </r>
       <r>   -14.3570     0.0000     2.0000 </r>
       <r>   -14.2420     0.0000     2.0000 </r>
       <r>   -14.1270     0.0000     2.0000 </r>
       <r>   -14.0120     0.0000     2.0000 </r>
       <r>   -13.8970     0.0000     2.0000 </r>
       <r>   -13.7820     0.0000     2.0000 </r>
       <r>   -13.6670     0.0000     2.0000 </r>
       <r>   -13.5521     0.0000     2.0000 </r>
       <r>   -13.4371     0.0000     2.0000 </r>
       <r>   -13.3221     0.0000     2.0000 </r>
       <r>   -13.2071     0.0000     2.0000 </r>
       <r>   -13.0921     0.0000     2.0000 </r>
       <r>   -12.9771     0.0000     2.0000 </r>
       <r>   -12.8621     0.0000     2.0000 </r>
       <r>   -12.7471     0.0000     2.0000 </r>
       <r>   -12.6321     0.0000     2.0000 </r>
       <r>   -12.5171     0.0000     2.0000 </r>
       <r>   -12.4021     0.0000     2.0000 </r>
       <r>   -12.2872     0.0000     2.0000 </r>
       <r>   -12.1722     0.0000     2.0000 </r>
       <r>   -12.0572     0.0000     2.0000 </r>
       <r>   -11.9422     0.0000     2.0000 </r>
       <r>   -11.8272     0.0000     2.0000 </r>
       <r>   -11.7122     0.0000     2.0000 </r>
       <r>   -11.5972     0.0000     2.0000 </r>
       <r>   -11.4822     0.0000     2.0000 </r>
       <r>   -11.3672     0.0000     2.0000 </r>
       <r>   -11.2522     0.0000     2.0000 </r>
       <r>   -11.1373     0.0000     2.0000 </r>
       <r>   -11.0223     0.0000     2.0000 </r>
       <r>   -10.9073     0.0000     2.0000 </r>
       <r>   -10.7923     0.0000     2.0000 </r>
       <r>   -10.6773     0.0000     2.0000 </r>
       <r>   -10.5623     0.0000     2.0000 </r>
       <r>   -10.4473     0.0000     2.0000 </r>
       <r>   -10.3323     0.0000     2.0000 </r>
       <r>   -10.2173     0.0000     2.0000 </r>
       <r>   -10.1023     0.0000     2.0000 </r>
       <r>    -9.9873     0.0000     2.0000 </r>
       <r>    -9.8724     0.0000     2.0000 </r>
       <r>    -9.7574     0.0000     2.0000 </r>
       <r>    -9.6424     0.0000     2.0000 </r>
       <r>    -9.5274     0.0000     2.0000 </r>
       <r>    -9.4124     0.0000     2.0000 </r>
       <r>    -9.2974     0.0000     2.0000 </r>
       <r>    -9.1824     0.0000     2.0000 </r>
       <r>    -9.0674     0.0000     2.0000 </r>
       <r>    -8.9524     0.0000     2.0000 </r>
       <r>    -8.8374     0.0000     2.0000 </r>
       <r>    -8.7225     0.0000     2.0000 </r>
       <r>    -8.6075     0.0000     2.0000 </r>
       <r>    -8.4925     0.0000     2.0000 </r>
       <r>    -8.3775     0.0000     2.0000 </r>
       <r>    -8.2625     0.0000     2.0000 </r>
       <r>    -8.1475     0.0000     2.0000 </r>
       <r>    -8.0325     0.0000     2.0000 </r>
       <r>    -7.9175     0.0000     2.0000 </r>
       <r>    -7.8025     0.0000     2.0000 </r>
       <r>    -7.6875     0.0000     2.0000 </r>
       <r>    -7.5725     0.0000     2.0000 </r>
       <r>    -7.4576     0.0000     2.0000 </r>
       <r>    -7.3426     0.0000     2.0000 </r>
       <r>    -7.2276     0.0000     2.0000 </r>
       <r>    -7.1126     0.0000     2.0000 </r>
       <r>    -6.9976     0.0000     2.0000 </r>
       <r>    -6.8826     0.0000     2.0000 </r>
       <r>    -6.7676     0.0000     2.0000 </r>
       <r>    -6.6526     0.0000     2.0000 </r>
       <r>    -6.5376     0.0000     2.0000 </r>
       <r>    -6.4226     0.0000     2.0000 </r>
       <r>    -6.3076     0.0000     2.0000 </r>
       <r>    -6.1927     0.0000     2.0000 </r>
       <r>    -6.0777     0.0000     2.0000 </r>
       <r>    -5.9627     0.0000     2.0000 </r>
       <r>    -5.8477     0.0000     2.0000 </r>
       <r>    -5.7327     0.0000     2.0000 </r>
       <r>    -5.6177     0.0000     2.0000 </r>
       <r>    -5.5027     0.0000     2.0000 </r>
       <r>    -5.3877     0.0000     2.0000 </r>
       <r>    -5.2727     0.0000     2.0000 </r>
       <r>    -5.1577     0.0000     2.0000 </r>
       <r>    -5.0428     0.0000     2.0000 </r>
       <r>    -4.9278     0.0000     2.0000 </r>
       <r>    -4.8128     0.0000     2.0000 </r>
       <r>    -4.6978     0.0000     2.0000 </r>
       <r>    -4.5828     0.0000     2.0000 </r>
       <r>    -4.4678     0.0000     2.0000 </r>
       <r>    -4.3528     0.0000     2.0000 </r>
[...]
        <r>  0.0571  0.0001  0.0002  0.0000  0.0076  0.0395  0.0068  0.0383  0.0000 </r>
        <r>  0.0000  0.0017  0.0000  0.0018  0.0000  0.0086  0.0000  0.0081  0.0089 </r>
        <r>  0.0000  0.1064  0.0001  0.1133  0.0000  0.0000  0.0000  0.0000  0.0000 </r>
        <r>  0.0000  0.1064  0.0001  0.1133  0.0000  0.0000  0.0000  0.0000  0.0000 </r>
       </set>
       <set comment="band 5">
        <r>  0.0786  0.0000  0.0002  0.0000  0.0527  0.0271  0.0021  0.0291  0.0000 </r>
        <r>  0.0179  0.0004  0.0002  0.0000  0.0301  0.0120  0.0091  0.0002  0.0064 </r>
        <r>  0.0215  0.0001  0.0002  0.0004  0.0319  0.0000  0.0083  0.0144  0.0064 </r>
        <r>  0.0000  0.0007  0.0024  0.0005  0.0111  0.0025  0.0089  0.0030  0.0000 </r>
        <r>  0.0000  0.0401  0.1464  0.0333  0.0000  0.0000  0.0000  0.0000  0.0000 </r>
        <r>  0.0000  0.0401  0.1464  0.0333  0.0000  0.0000  0.0000  0.0000  0.0000 </r>
       </set>
       <set comment="band 6">
        <r>  0.0000  0.0296  0.0127  0.0303  0.0001  0.0006  0.0000  0.0006  0.0000 </r>
        <r>  0.0000  0.0304  0.0000  0.0031  0.0009  0.0000  0.0003  0.0000  0.0001 </r>
        <r>  0.0000  0.0033  0.0000  0.0311  0.0009  0.0000  0.0003  0.0000  0.0001 </r>
        <r>  0.0000  0.0029  0.0112  0.0027  0.0088  0.0021  0.0260  0.0023  0.0000 </r>
        <r>  0.0000  0.0453  0.1751  0.0423  0.0000  0.0000  0.0000  0.0000  0.0000 </r>
        <r>  0.0000  0.0453  0.1751  0.0423  0.0000  0.0000  0.0000  0.0000  0.0000 </r>
       </set>
       <set comment="band 7">
        <r>  0.0000  0.0109  0.0000  0.0102  0.0000  0.0004  0.0000  0.0004  0.0005 </r>
        <r>  0.0000  0.0101  0.0404  0.0096  0.0001  0.0001  0.0001  0.0010  0.0001 </r>
        <r>  0.0000  0.0094  0.0405  0.0094  0.0001  0.0010  0.0001  0.0001  0.0001 </r>
        <r>  0.0000  0.0083  0.0000  0.0085  0.0000  0.0067  0.0000  0.0065  0.0260 </r>
        <r>  0.0000  0.1298  0.0000  0.1328  0.0000  0.0000  0.0000  0.0000  0.0000 </r>
        <r>  0.0000  0.1298  0.0000  0.1328  0.0000  0.0000  0.0000  0.0000  0.0000 </r>
       </set>
       <set comment="band 8">
        <r>  0.0003  0.0000  0.0205  0.0000  0.0005  0.0093  0.0084  0.0093  0.0000 </r>
        <r>  0.0003  0.0000  0.0000  0.0205  0.0093  0.0005  0.0021  0.0093  0.0063 </r>
        <r>  0.0003  0.0205  0.0000  0.0000  0.0093  0.0093  0.0021  0.0005  0.0063 </r>
        <r>  0.0010  0.0266  0.0266  0.0266  0.0007  0.0007  0.0000  0.0007  0.0000 </r>
        <r>  0.0002  0.0878  0.0878  0.0878  0.0000  0.0000  0.0000  0.0000  0.0000 </r>
        <r>  0.0002  0.0878  0.0878  0.0878  0.0000  0.0000  0.0000  0.0000  0.0000 </r>
       </set>
       <set comment="band 9">
        <r>  0.0068  0.0005  0.0003  0.0005  0.1405  0.0004  0.0096  0.0004  0.0000 </r>
        <r>  0.0068  0.0005  0.0005  0.0003  0.0004  0.1405  0.0024  0.0004  0.0072 </r>
        <r>  0.0068  0.0003  0.0005  0.0005  0.0004  0.0004  0.0024  0.1405  0.0072 </r>
        <r>  0.0399  0.0000  0.0000  0.0000  0.0956  0.0956  0.0000  0.0956  0.0000 </r>
        <r>  0.0002  0.0013  0.0013  0.0013  0.0000  0.0000  0.0000  0.0000  0.0000 </r>
        <r>  0.0002  0.0013  0.0013  0.0013  0.0000  0.0000  0.0000  0.0000  0.0000 </r>
       </set>
       <set comment="band 10">
        <r>  0.0000  0.0005  0.0000  0.0005  0.0000  0.0784  0.0000  0.0677  0.0045 </r>
        <r>  0.0219  0.0006  0.0000  0.0007  0.1774  0.0292  0.0016  0.0188  0.0000 </r>
        <r>  0.0235  0.0007  0.0000  0.0006  0.1739  0.0260  0.0014  0.0313  0.0000 </r>
        <r>  0.0000  0.0002  0.0000  0.0002  0.0001  0.0762  0.0000  0.0817  0.0114 </r>
        <r>  0.0000  0.0016  0.0000  0.0015  0.0000  0.0000  0.0000  0.0000  0.0000 </r>
        <r>  0.0000  0.0016  0.0000  0.0015  0.0000  0.0000  0.0000  0.0000  0.0000 </r>
       </set>
       <set comment="band 11">
        <r>  0.0303  0.0002  0.0009  0.0003  0.0403  0.1023  0.0005  0.1130  0.0000 </r>
        <r>  0.0084  0.0001  0.0007  0.0003  0.0033  0.0112  0.0019  0.1619  0.0015 </r>
        <r>  0.0068  0.0002  0.0007  0.0001  0.0068  0.1548  0.0021  0.0091  0.0015 </r>
        <r>  0.0000  0.0001  0.0003  0.0001  0.1052  0.0291  0.0114  0.0236  0.0000 </r>
        <r>  0.0000  0.0005  0.0021  0.0006  0.0000  0.0000  0.0000  0.0000  0.0000 </r>
        <r>  0.0000  0.0005  0.0021  0.0006  0.0000  0.0000  0.0000  0.0000  0.0000 </r>
       </set>
       <set comment="band 12">
        <r>  0.0003  0.0001  0.0001  0.0002  0.0993  0.0251  0.1152  0.0264  0.0000 </r>
        <r>  0.0001  0.0007  0.0002  0.0000  0.0670  0.0240  0.1380  0.0102  0.0005 </r>
        <r>  0.0001  0.0000  0.0002  0.0007  0.0674  0.0093  0.1377  0.0257  0.0002 </r>
        <r>  0.0000  0.0003  0.0010  0.0002  0.0410  0.0099  0.1186  0.0106  0.0000 </r>
        <r>  0.0000  0.0002  0.0008  0.0002  0.0000  0.0000  0.0000  0.0000  0.0000 </r>
        <r>  0.0000  0.0002  0.0008  0.0002  0.0000  0.0000  0.0000  0.0000  0.0000 </r>
       </set>
       <set comment="band 13">
        <r>  0.0000  0.0005  0.0000  0.0005  0.0000  0.0434  0.0000  0.0420  0.1458 </r>
        <r>  0.0003  0.0000  0.0005  0.0001  0.0015  0.0754  0.0002  0.0582  0.1224 </r>
        <r>  0.0003  0.0001  0.0005  0.0000  0.0011  0.0592  0.0005  0.0736  0.1226 </r>
        <r>  0.0000  0.0008  0.0000  0.0008  0.0000  0.0311  0.0000  0.0304  0.1186 </r>
        <r>  0.0000  0.0006  0.0000  0.0006  0.0000  0.0000  0.0000  0.0000  0.0000 </r>
        <r>  0.0000  0.0006  0.0000  0.0006  0.0000  0.0000  0.0000  0.0000  0.0000 </r>
       </set>
       <set comment="band 14">
        <r>  0.0000  0.0000  0.0000  0.0000  0.0000  0.0151  0.0000  0.0154  0.0242 </r>
        <r>  0.0001  0.0000  0.0000  0.0003  0.0306  0.0546  0.0839  0.0028  0.1205 </r>
        <r>  0.0001  0.0003  0.0000  0.0000  0.0308  0.0026  0.0838  0.0540  0.1187 </r>
        <r>  0.0000  0.0000  0.0000  0.0000  0.0000  0.0664  0.0000  0.0657  0.1726 </r>
        <r>  0.0000  0.0002  0.0000  0.0002  0.0000  0.0000  0.0000  0.0000  0.0000 </r>
        <r>  0.0000  0.0002  0.0000  0.0002  0.0000  0.0000  0.0000  0.0000  0.0000 </r>
       </set>
       <set comment="band 15">
        <r>  0.0001  0.0000  0.0004  0.0000  0.0724  0.0173  0.2632  0.0170  0.0000 </r>
        <r>  0.0000  0.0000  0.0000  0.0001  0.0018  0.0178  0.0001  0.0296  0.0829 </r>
        <r>  0.0000  0.0001  0.0000  0.0000  0.0016  0.0298  0.0002  0.0184  0.0848 </r>
        <r>  0.0000  0.0000  0.0000  0.0000  0.0881  0.0217  0.1726  0.0224  0.0000 </r>
        <r>  0.0000  0.0001  0.0003  0.0001  0.0000  0.0000  0.0000  0.0000  0.0000 </r>
        <r>  0.0000  0.0001  0.0003  0.0001  0.0000  0.0000  0.0000  0.0000  0.0000 </r>
       </set>
       <set comment="band 16">
        <r>  0.0000  0.0001  0.0000  0.0001  0.0000  0.0500  0.0000  0.0500  0.2159 </r>
        <r>  0.0000  0.0001  0.0001  0.0000  0.0500  0.0000  0.1619  0.0500  0.0540 </r>
        <r>  0.0000  0.0000  0.0001  0.0001  0.0500  0.0500  0.1619  0.0000  0.0540 </r>
        <r>  0.0000  0.0000  0.0000  0.0000  0.0000  0.0000  0.0000  0.0000  0.0000 </r>
        <r>  0.0000  0.0000  0.0000  0.0000  0.0000  0.0000  0.0000  0.0000  0.0000 </r>
        <r>  0.0000  0.0000  0.0000  0.0000  0.0000  0.0000  0.0000  0.0000  0.0000 </r>
       </set>
       <set comment="band 17">
        <r>  0.0001  0.0003  0.0017  0.0003  0.0003  0.0187  0.2464  0.0187  0.0000 </r>
        <r>  0.0001  0.0003  0.0003  0.0017  0.0187  0.0003  0.0616  0.0187  0.1848 </r>
        <r>  0.0001  0.0017  0.0003  0.0003  0.0187  0.0187  0.0616  0.0003  0.1848 </r>
        <r>  0.0024  0.0002  0.0002  0.0002  0.0268  0.0268  0.0000  0.0268  0.0000 </r>
        <r>  0.0006  0.0004  0.0004  0.0004  0.0000  0.0000  0.0000  0.0000  0.0000 </r>
        <r>  0.0006  0.0004  0.0004  0.0004  0.0000  0.0000  0.0000  0.0000  0.0000 </r>
       </set>
       <set comment="band 18">
        <r>  0.0018  0.0001  0.0001  0.0001  0.0030  0.0457  0.0260  0.0464  0.0001 </r>
        <r>  0.0004  0.0003  0.0001  0.0000  0.0257  0.0007  0.1707  0.0025  0.1085 </r>
        <r>  0.0005  0.0000  0.0001  0.0003  0.0270  0.0030  0.1637  0.0008  0.1081 </r>
        <r>  0.0000  0.0001  0.0004  0.0001  0.0050  0.0012  0.2206  0.0013  0.0000 </r>
        <r>  0.0000  0.0001  0.0005  0.0001  0.0000  0.0000  0.0000  0.0000  0.0000 </r>
        <r>  0.0000  0.0001  0.0005  0.0001  0.0000  0.0000  0.0000  0.0000  0.0000 </r>
       </set>
       <set comment="band 19">
        <r>  0.0000  0.0003  0.0000  0.0003  0.0000  0.0044  0.0000  0.0037  0.3586 </r>
        <r>  0.0014  0.0000  0.0002  0.0001  0.0244  0.0023  0.1049  0.0477  0.0006 </r>
        <r>  0.0013  0.0001  0.0003  0.0000  0.0231  0.0471  0.1118  0.0022  0.0011 </r>
        <r>  0.0000  0.0003  0.0000  0.0003  0.0000  0.0038  0.0000  0.0037  0.2206 </r>
        <r>  0.0000  0.0004  0.0000  0.0004  0.0000  0.0000  0.0000  0.0000  0.0000 </r>
        <r>  0.0000  0.0004  0.0000  0.0004  0.0000  0.0000  0.0000  0.0000  0.0000 </r>
       </set>
       <set comment="band 20">
        <r>  0.0000  0.0000  0.0000  0.0000  0.0000  0.1119  0.0000  0.1119  0.1044 </r>
        <r>  0.0000  0.0000  0.0000  0.0000  0.1119  0.0000  0.0783  0.1119  0.0261 </r>
        <r>  0.0000  0.0000  0.0000  0.0000  0.1119  0.1119  0.0783  0.0000  0.0261 </r>
        <r>  0.0000  0.0000  0.0000  0.0000  0.0000  0.0000  0.0000  0.0000  0.0000 </r>
        <r>  0.0000  0.0000  0.0000  0.0000  0.0000  0.0000  0.0000  0.0000  0.0000 </r>
        <r>  0.0000  0.0000  0.0000  0.0000  0.0000  0.0000  0.0000  0.0000  0.0000 </r>
       </set>
       <set comment="band 21">
        <r>  0.0000  0.0006  0.0005  0.0006  0.1181  0.0257  0.1139  0.0247  0.0000 </r>
        <r>  0.0000  0.0006  0.0000  0.0001  0.0037  0.0285  0.0030  0.0469  0.0256 </r>
        <r>  0.0000  0.0001  0.0000  0.0006  0.0032  0.0474  0.0033  0.0306  0.0272 </r>
        <r>  0.0000  0.0000  0.0001  0.0000  0.1853  0.0447  0.1847  0.0480  0.0000 </r>
        <r>  0.0000  0.0011  0.0044  0.0011  0.0000  0.0000  0.0000  0.0000  0.0000 </r>
        <r>  0.0000  0.0011  0.0044  0.0011  0.0000  0.0000  0.0000  0.0000  0.0000 </r>
       </set>
       <set comment="band 22">
        <r>  0.0000  0.0002  0.0000  0.0002  0.0000  0.0248  0.0000  0.0258  0.0014 </r>
        <r>  0.0000  0.0002  0.0008  0.0004  0.0468  0.0896  0.0266  0.0036  0.0602 </r>
        <r>  0.0000  0.0004  0.0008  0.0002  0.0473  0.0031  0.0262  0.0875  0.0586 </r>
        <r>  0.0000  0.0000  0.0000  0.0001  0.0000  0.1406  0.0000  0.1373  0.1847 </r>
        <r>  0.0000  0.0032  0.0000  0.0033  0.0000  0.0000  0.0000  0.0000  0.0000 </r>
        <r>  0.0000  0.0032  0.0000  0.0033  0.0000  0.0000  0.0000  0.0000  0.0000 </r>
       </set>
       <set comment="band 23">
        <r>  0.0000  0.0001  0.0000  0.0001  0.0000  0.0661  0.0000  0.0654  0.0522 </r>
        <r>  0.0003  0.0002  0.0001  0.0003  0.0000  0.0836  0.0024  0.0621  0.0970 </r>
        <r>  0.0002  0.0003  0.0001  0.0002  0.0001  0.0629  0.0022  0.0826  0.0967 </r>
        <r>  0.0000  0.0000  0.0000  0.0000  0.0000  0.0478  0.0000  0.0473  0.2019 </r>
        <r>  0.0000  0.0020  0.0000  0.0020  0.0000  0.0000  0.0000  0.0000  0.0000 </r>
        <r>  0.0000  0.0020  0.0000  0.0020  0.0000  0.0000  0.0000  0.0000  0.0000 </r>
       </set>
       <set comment="band 24">
        <r>  0.0003  0.0002  0.0005  0.0002  0.1108  0.0194  0.1148  0.0201  0.0000 </r>
        <r>  0.0001  0.0000  0.0002  0.0001  0.0855  0.0272  0.0654  0.0234  0.0021 </r>
        <r>  0.0001  0.0001  0.0002  0.0000  0.0854  0.0226  0.0657  0.0282  0.0024 </r>
        <r>  0.0000  0.0000  0.0000  0.0000  0.0634  0.0156  0.2019  0.0161  0.0000 </r>
        <r>  0.0000  0.0007  0.0026  0.0006  0.0000  0.0000  0.0000  0.0000  0.0000 </r>
        <r>  0.0000  0.0007  0.0026  0.0006  0.0000  0.0000  0.0000  0.0000  0.0000 </r>
       </set>
       <set comment="band 25">
        <r>  0.0001  0.0002  0.0010  0.0002  0.1421  0.0163  0.0011  0.0163  0.0000 </r>
        <r>  0.0001  0.0002  0.0002  0.0010  0.0163  0.1421  0.0003  0.0163  0.0008 </r>
        <r>  0.0001  0.0010  0.0002  0.0002  0.0163  0.0163  0.0003  0.1421  0.0008 </r>
        <r>  0.0310  0.0000  0.0000  0.0000  0.1237  0.1237  0.0000  0.1237  0.0000 </r>
        <r>  0.0104  0.0023  0.0023  0.0023  0.0000  0.0000  0.0000  0.0000  0.0000 </r>
        <r>  0.0104  0.0023  0.0023  0.0023  0.0000  0.0000  0.0000  0.0000  0.0000 </r>
       </set>
       <set comment="band 26">
        <r>  0.0173  0.0008  0.0004  0.0008  0.0177  0.0968  0.0298  0.0968  0.0000 </r>
        <r>  0.0173  0.0008  0.0008  0.0004  0.0968  0.0177  0.0074  0.0968  0.0223 </r>
        <r>  0.0173  0.0004  0.0008  0.0008  0.0968  0.0968  0.0074  0.0177  0.0223 </r>
        <r>  0.0202  0.0031  0.0031  0.0031  0.0000  0.0000  0.0000  0.0000  0.0000 </r>
        <r>  0.0009  0.0187  0.0187  0.0187  0.0000  0.0000  0.0000  0.0000  0.0000 </r>
        <r>  0.0009  0.0187  0.0187  0.0187  0.0000  0.0000  0.0000  0.0000  0.0000 </r>
       </set>
       <set comment="band 27">
        <r>  0.0013  0.0004  0.0000  0.0007  0.0026  0.0870  0.0000  0.0660  0.0211 </r>
        <r>  0.0575  0.0011  0.0002  0.0002  0.0005  0.1161  0.0049  0.0533  0.0001 </r>
        <r>  0.0416  0.0002  0.0000  0.0012  0.0041  0.0779  0.0095  0.0838  0.0002 </r>
        <r>  0.0000  0.0008  0.0000  0.0011  0.0026  0.1138  0.0002  0.0822  0.0082 </r>
        <r>  0.0000  0.0170  0.0005  0.0235  0.0000  0.0000  0.0000  0.0000  0.0000 </r>
        <r>  0.0000  0.0170  0.0005  0.0235  0.0000  0.0000  0.0000  0.0000  0.0000 </r>
       </set>
       <set comment="band 28">
        <r>  0.0656  0.0008  0.0003  0.0005  0.1324  0.0093  0.0023  0.0303  0.0004 </r>
        <r>  0.0094  0.0002  0.0010  0.0000  0.0958  0.0189  0.0118  0.0430  0.0070 </r>
        <r>  0.0254  0.0001  0.0012  0.0000  0.0922  0.0184  0.0073  0.0512  0.0070 </r>
        <r>  0.0000  0.0005  0.0013  0.0002  0.1298  0.0186  0.0082  0.0502  0.0002 </r>
        <r>  0.0000  0.0104  0.0268  0.0038  0.0000  0.0000  0.0000  0.0000  0.0000 </r>
        <r>  0.0000  0.0104  0.0268  0.0038  0.0000  0.0000  0.0000  0.0000  0.0000 </r>
       </set>
       <set comment="band 29">
        <r>  0.0126  0.0125  0.0307  0.0125  0.0005  0.0118  0.0001  0.0118  0.0000 </r>
        <r>  0.0126  0.0125  0.0125  0.0307  0.0118  0.0005  0.0000  0.0118  0.0001 </r>
        <r>  0.0126  0.0307  0.0125  0.0125  0.0118  0.0118  0.0000  0.0005  0.0001 </r>
        <r>  0.0328  0.0002  0.0002  0.0002  0.0144  0.0144  0.0000  0.0144  0.0000 </r>
        <r>  0.0118  0.0290  0.0290  0.0290  0.0000  0.0000  0.0000  0.0000  0.0000 </r>
        <r>  0.0118  0.0290  0.0290  0.0290  0.0000  0.0000  0.0000  0.0000  0.0000 </r>
       </set>
       <set comment="band 30">
        <r>  0.0010  0.0002  0.0133  0.0001  0.0005  0.0100  0.0002  0.0101  0.0000 </r>
        <r>  0.0002  0.0314  0.0356  0.0032  0.0100  0.0001  0.0001  0.0000  0.0002 </r>
        <r>  0.0003  0.0034  0.0350  0.0307  0.0102  0.0000  0.0001  0.0001  0.0002 </r>
        <r>  0.0000  0.0153  0.0595  0.0145  0.0000  0.0000  0.0004  0.0000  0.0000 </r>
        <r>  0.0000  0.0169  0.0657  0.0160  0.0000  0.0000  0.0000  0.0000  0.0000 </r>
        <r>  0.0000  0.0169  0.0657  0.0160  0.0000  0.0000  0.0000  0.0000  0.0000 </r>
       </set>
       <set comment="band 31">
        <r>  0.0000  0.0441  0.0000  0.0442  0.0000  0.0035  0.0000  0.0033  0.0004 </r>
        <r>  0.0008  0.0129  0.0087  0.0101  0.0034  0.0004  0.0002  0.0134  0.0000 </r>
        <r>  0.0007  0.0099  0.0093  0.0136  0.0032  0.0134  0.0002  0.0004  0.0000 </r>
        <r>  0.0000  0.0442  0.0000  0.0451  0.0000  0.0000  0.0000  0.0000  0.0004 </r>
        <r>  0.0000  0.0488  0.0000  0.0497  0.0000  0.0000  0.0000  0.0000  0.0000 </r>
        <r>  0.0000  0.0488  0.0000  0.0497  0.0000  0.0000  0.0000  0.0000  0.0000 </r>
       </set>
       <set comment="band 32">
        <r>  0.0074  0.0002  0.0101  0.0002  0.0194  0.0003  0.0207  0.0003  0.0000 </r>
        <r>  0.0074  0.0002  0.0002  0.0101  0.0003  0.0194  0.0052  0.0003  0.0155 </r>
        <r>  0.0074  0.0101  0.0002  0.0002  0.0003  0.0003  0.0052  0.0194  0.0155 </r>
        <r>  0.1441  0.0018  0.0018  0.0018  0.0369  0.0369  0.0000  0.0369  0.0000 </r>
        <r>  0.0175  0.0249  0.0249  0.0249  0.0000  0.0000  0.0000  0.0000  0.0000 </r>
        <r>  0.0175  0.0249  0.0249  0.0249  0.0000  0.0000  0.0000  0.0000  0.0000 </r>
       </set>
       <set comment="band 33">
        <r>  0.0000  0.0000  0.0000  0.0000  0.0000  0.0064  0.0000  0.0070  0.0193 </r>
        <r>  0.0890  0.0015  0.0011  0.0066  0.0474  0.0222  0.0067  0.0187  0.0000 </r>
        <r>  0.0872  0.0065  0.0011  0.0015  0.0471  0.0180  0.0070  0.0218  0.0000 </r>
        <r>  0.0000  0.0027  0.0000  0.0028  0.0000  0.0076  0.0000  0.0074  0.0120 </r>
        <r>  0.0000  0.0577  0.0000  0.0588  0.0000  0.0000  0.0000  0.0000  0.0000 </r>
        <r>  0.0000  0.0577  0.0000  0.0588  0.0000  0.0000  0.0000  0.0000  0.0000 </r>
       </set>
       <set comment="band 34">
        <r>  0.1175  0.0018  0.0088  0.0018  0.0293  0.0418  0.0027  0.0412  0.0000 </r>
        <r>  0.0285  0.0003  0.0006  0.0021  0.0008  0.0071  0.0085  0.0295  0.0068 </r>
        <r>  0.0302  0.0023  0.0007  0.0003  0.0011  0.0302  0.0082  0.0076  0.0068 </r>
        <r>  0.0000  0.0009  0.0037  0.0009  0.0100  0.0024  0.0120  0.0026  0.0000 </r>
        <r>  0.0000  0.0200  0.0776  0.0188  0.0000  0.0000  0.0000  0.0000  0.0000 </r>
        <r>  0.0000  0.0200  0.0776  0.0188  0.0000  0.0000  0.0000  0.0000  0.0000 </r>
       </set>
       <set comment="band 35">
        <r>  0.0002  0.0118  0.0095  0.0118  0.0037  0.0000  0.0000  0.0000  0.0000 </r>
        <r>  0.0002  0.0118  0.0118  0.0095  0.0000  0.0037  0.0000  0.0000  0.0000 </r>
        <r>  0.0002  0.0095  0.0118  0.0118  0.0000  0.0000  0.0000  0.0037  0.0000 </r>
        <r>  0.0386  0.0104  0.0104  0.0104  0.0049  0.0049  0.0000  0.0049  0.0000 </r>
        <r>  0.0379  0.0116  0.0116  0.0116  0.0000  0.0000  0.0000  0.0000  0.0000 </r>
        <r>  0.0379  0.0116  0.0116  0.0116  0.0000  0.0000  0.0000  0.0000  0.0000 </r>
       </set>
       <set comment="band 36">
        <r>  0.1290  0.0058  0.0076  0.0058  0.0012  0.0003  0.0002  0.0003  0.0000 </r>
        <r>  0.1290  0.0058  0.0058  0.0076  0.0003  0.0012  0.0000  0.0003  0.0001 </r>
        <r>  0.1290  0.0075  0.0058  0.0058  0.0003  0.0003  0.0000  0.0012  0.0001 </r>
        <r>  0.0952  0.0005  0.0005  0.0005  0.0012  0.0012  0.0000  0.0012  0.0000 </r>
        <r>  0.0568  0.0072  0.0072  0.0072  0.0000  0.0000  0.0000  0.0000  0.0000 </r>
        <r>  0.0568  0.0072  0.0072  0.0072  0.0000  0.0000  0.0000  0.0000  0.0000 </r>
       </set>
      </set>
     </set>
    </set>
   </array>
  </projected>
 </calculation>
 <structure name="finalpos" >
  <crystal>
   <varray name="basis" >
    <v>       4.24669932       0.00000000       0.00000000 </v>
    <v>      -0.00000000       4.24669932       0.00000000 </v>
    <v>       0.00000000       0.00000000       4.24669932 </v>
   </varray>
   <i name="volume">     76.58690827 </i>
   <varray name="rec_basis" >
    <v>       0.23547700       0.00000000       0.00000000 </v>
    <v>       0.00000000       0.23547700       0.00000000 </v>
    <v>      -0.00000000      -0.00000000       0.23547700 </v>
   </varray>
  </crystal>
  <varray name="positions" >
   <v>       0.50000000       0.50000000       0.00000000 </v>
   <v>       0.00000000       0.50000000       0.50000000 </v>
   <v>       0.50000000       0.00000000       0.50000000 </v>
   <v>       0.00000000       0.00000000       0.00000000 </v>
   <v>       0.75000000       0.75000000       0.75000000 </v>
   <v>       0.25000000       0.25000000       0.25000000 </v>
  </varray>
 </structure>
</modeling>
