 vasp.6.4.2 20Jul23 (build Mar 15 2024 16:31:38) complex                        
  
 executed on             LinuxIFC date 2025.03.27  12:24:07
 running  120 mpi-ranks, on    3 nodes
 distrk:  each k-point on  120 cores,    1 groups
 distr:  one band on NCORE=  20 cores,    6 groups


--------------------------------------------------------------------------------------------------------


 INCAR:
   ALGO = Normal
   EDIFF = 1e-05
   ENAUG = 1360
   ENCUT = 680
   GGA = Pe
   HFSCREEN = 0.2
   ISMEAR = -5
   ISPIN = 2
   LAECHG = True
   LASPH = True
   LCHARG = True
   LDAU = False
   LELF = False
   LHFCALC = True
   LMAXMIX = 4
   LMIXTAU = True
   LORBIT = 11
   LREAL = False
   LVTOT = True
   LWAVE = False
   MAGMOM = 8*0.6
   NCORE = 20
   NELM = 200
   NSW = 0
   PREC = Accurate
   PRECFOCK = Accurate
   SIGMA = 0.2

 POTCAR:    PAW_PBE Zn 06Sep2000                  
 POTCAR:    PAW_PBE Cu 22Jun2005                  
 POTCAR:    PAW_PBE Sn_d 06Sep2000                
 POTCAR:    PAW_PBE S 06Sep2000                   
 WARNING: For LVTOT=.TRUE., VASP.5.x writes the TOTAL local potential to the
     file LOCPOT. If you want only the Hartree contributions, use LVHAR=.TRUE.
     instead. 

 POTCAR:    PAW_PBE Zn 06Sep2000                  
   VRHFIN =Zn: d10 p2                                                                               
   LEXCH  = PE                                                                                      
   EATOM  =  1748.8345 eV,  128.5357 Ry                                                             
                                                                                                    
   TITEL  = PAW_PBE Zn 06Sep2000                                                                    
   LULTRA =        F    use ultrasoft PP ?                                                          
   IUNSCR =        1    unscreen: 0-lin 1-nonlin 2-no                                               
   RPACOR =    2.000    partial core radius                                                         
   POMASS =   65.390; ZVAL   =   12.000    mass and valenz                                          
   RCORE  =    2.300    outmost cutoff radius                                                       
   RWIGS  =    2.400; RWIGS  =    1.270    wigner-seitz radius (au A)                               
   ENMAX  =  276.723; ENMIN  =  207.542 eV                                                          
   RCLOC  =    1.828    cutoff for local pot                                                        
   LCOR   =        T    correct aug charges                                                         
   LPAW   =        T    paw PP                                                                      
   EAUG   =  575.892                                                                                
   DEXC   =    0.000                                                                                
   RMAX   =    2.347    core radius for proj-oper                                                   
   RAUG   =    1.300    factor for augmentation sphere                                              
   RDEP   =    2.324    radius for radial grids                                                     
   RDEPT  =    1.788    core radius for aug-charge                                                  
                                                                                                    
   Atomic configuration                                                                             
    9 entries                                                                                       
     n  l   j            E        occ.                                                              
     1  0  0.50     -9524.6913   2.0000                                                             
     2  0  0.50     -1158.1882   2.0000                                                             
     2  1  1.50     -1003.8506   6.0000                                                             
     3  0  0.50      -129.2194   2.0000                                                             
     3  1  1.50       -83.3890   6.0000                                                             
     3  2  2.50       -10.1410  10.0000                                                             
     4  0  0.50        -5.9785   2.0000                                                             
     4  1  0.50        -4.0817   0.0000                                                             
     4  3  2.50        -1.3606   0.0000                                                             
   Description                                                                                      
     l       E           TYP  RCUT    TYP  RCUT                                                     
     2    -10.1410010     23  2.300                                                                 
     2    -11.5015836     23  2.300                                                                 
     0     -5.9785163     23  2.300                                                                 
     0      1.1858015     23  2.300                                                                 
     1     -2.7211652     23  2.300                                                                 
     1     13.2444212     23  2.300                                                                 
  local pseudopotential read in
  partial core-charges read in
  partial kinetic energy density read in
  atomic valenz-charges read in
  non local Contribution for L=           2  read in
    real space projection operators read in
  non local Contribution for L=           2  read in
    real space projection operators read in
  non local Contribution for L=           0  read in
    real space projection operators read in
  non local Contribution for L=           0  read in
    real space projection operators read in
  non local Contribution for L=           1  read in
    real space projection operators read in
  non local Contribution for L=           1  read in
    real space projection operators read in
    PAW grid and wavefunctions read in
 
   number of l-projection  operators is LMAX  =           6
   number of lm-projection operators is LMMAX =          18
 
 POTCAR:    PAW_PBE Cu 22Jun2005                  
   VRHFIN =Cu: d10 p1                                                                               
   LEXCH  = PE                                                                                      
   EATOM  =  1390.9808 eV,  102.2342 Ry                                                             
                                                                                                    
   TITEL  = PAW_PBE Cu 22Jun2005                                                                    
   LULTRA =        F    use ultrasoft PP ?                                                          
   IUNSCR =        1    unscreen: 0-lin 1-nonlin 2-no                                               
   RPACOR =    2.000    partial core radius                                                         
   POMASS =   63.546; ZVAL   =   11.000    mass and valenz                                          
   RCORE  =    2.300    outmost cutoff radius                                                       
   RWIGS  =    2.200; RWIGS  =    1.164    wigner-seitz radius (au A)                               
   ENMAX  =  295.446; ENMIN  =  221.585 eV                                                          
   ICORE  =        3    local potential                                                             
   LCOR   =        T    correct aug charges                                                         
   LPAW   =        T    paw PP                                                                      
   EAUG   =  586.980                                                                                
   DEXC   =    0.000                                                                                
   RMAX   =    2.344    core radius for proj-oper                                                   
   RAUG   =    1.300    factor for augmentation sphere                                              
   RDEP   =    2.302    radius for radial grids                                                     
   RDEPT  =    1.771    core radius for aug-charge                                                  
                                                                                                    
   Atomic configuration                                                                             
    9 entries                                                                                       
     n  l   j            E        occ.                                                              
     1  0  0.50     -8850.2468   2.0000                                                             
     2  0  0.50     -1062.3498   2.0000                                                             
     2  1  1.50      -916.8226   6.0000                                                             
     3  0  0.50      -114.6929   2.0000                                                             
     3  1  1.50       -72.1325   6.0000                                                             
     3  2  2.50        -5.0394  10.0000                                                             
     4  0  0.50        -4.6097   1.0000                                                             
     4  1  0.50        -4.0817   0.0000                                                             
     4  3  2.50        -1.3606   0.0000                                                             
   Description                                                                                      
     l       E           TYP  RCUT    TYP  RCUT                                                     
     2     -5.0393973     23  2.200                                                                 
     2     10.8846608     23  2.200                                                                 
     0     -4.6097109     23  2.200                                                                 
     0      8.2520465     23  2.200                                                                 
     1     -2.7211652     23  2.200                                                                 
     1     21.7055443     23  2.200                                                                 
     3      2.7211652     23  2.300                                                                 
  local pseudopotential read in
  partial core-charges read in
  partial kinetic energy density read in
  atomic valenz-charges read in
  non local Contribution for L=           2  read in
    real space projection operators read in
  non local Contribution for L=           2  read in
    real space projection operators read in
  non local Contribution for L=           0  read in
    real space projection operators read in
  non local Contribution for L=           0  read in
    real space projection operators read in
  non local Contribution for L=           1  read in
    real space projection operators read in
  non local Contribution for L=           1  read in
    real space projection operators read in
    PAW grid and wavefunctions read in
 
   number of l-projection  operators is LMAX  =           6
   number of lm-projection operators is LMMAX =          18
 
 POTCAR:    PAW_PBE Sn_d 06Sep2000                
   VRHFIN =Sn: s2p2                                                                                 
   LEXCH  = PE                                                                                      
   EATOM  =  1893.1092 eV,  139.1396 Ry                                                             
                                                                                                    
   TITEL  = PAW_PBE Sn_d 06Sep2000                                                                  
   LULTRA =        F    use ultrasoft PP ?                                                          
   IUNSCR =        1    unscreen: 0-lin 1-nonlin 2-no                                               
   RPACOR =    2.300    partial core radius                                                         
   POMASS =  118.710; ZVAL   =   14.000    mass and valenz                                          
   RCORE  =    2.500    outmost cutoff radius                                                       
   RWIGS  =    2.960; RWIGS  =    1.566    wigner-seitz radius (au A)                               
   ENMAX  =  241.083; ENMIN  =  180.812 eV                                                          
   ICORE  =        3    local potential                                                             
   LCOR   =        T    correct aug charges                                                         
   LPAW   =        T    paw PP                                                                      
   EAUG   =  439.825                                                                                
   DEXC   =    0.000                                                                                
   RMAX   =    2.560    core radius for proj-oper                                                   
   RAUG   =    1.300    factor for augmentation sphere                                              
   RDEP   =    2.659    radius for radial grids                                                     
   RDEPT  =    2.046    core radius for aug-charge                                                  
                                                                                                    
   Atomic configuration                                                                             
   12 entries                                                                                       
     n  l   j            E        occ.                                                              
     1  0  0.50    -29007.2859   2.0000                                                             
     2  0  0.50     -4378.8056   2.0000                                                             
     2  1  1.50     -3930.4293   6.0000                                                             
     3  0  0.50      -845.0264   2.0000                                                             
     3  1  1.50      -698.5725   6.0000                                                             
     3  2  2.50      -473.2839  10.0000                                                             
     4  0  0.50      -133.9036   2.0000                                                             
     4  1  1.50       -89.6752   6.0000                                                             
     4  2  2.50       -25.8375  10.0000                                                             
     5  0  0.50       -10.5484   2.0000                                                             
     5  1  0.50        -3.6940   2.0000                                                             
     4  3  2.50        -2.7416   0.0000                                                             
   Description                                                                                      
     l       E           TYP  RCUT    TYP  RCUT                                                     
     2    -25.8374624     23  2.500                                                                 
     2     -5.4423304     23  2.500                                                                 
     0    -10.5483727     23  2.500                                                                 
     0     13.6058260     23  2.500                                                                 
     1     -3.6939829     23  2.500                                                                 
     1      1.9821976     23  2.500                                                                 
     3     -1.3605826      7  2.500                                                                 
  local pseudopotential read in
  partial core-charges read in
  partial kinetic energy density read in
  atomic valenz-charges read in
  non local Contribution for L=           2  read in
    real space projection operators read in
  non local Contribution for L=           2  read in
    real space projection operators read in
  non local Contribution for L=           0  read in
    real space projection operators read in
  non local Contribution for L=           0  read in
    real space projection operators read in
  non local Contribution for L=           1  read in
    real space projection operators read in
  non local Contribution for L=           1  read in
    real space projection operators read in
    PAW grid and wavefunctions read in
 
   number of l-projection  operators is LMAX  =           6
   number of lm-projection operators is LMMAX =          18
 
 POTCAR:    PAW_PBE S 06Sep2000                   
   VRHFIN =S : s2p4                                                                                 
   LEXCH  = PE                                                                                      
   EATOM  =   276.8230 eV,   20.3459 Ry                                                             
                                                                                                    
   TITEL  = PAW_PBE S 06Sep2000                                                                     
   LULTRA =        F    use ultrasoft PP ?                                                          
   IUNSCR =        1    unscreen: 0-lin 1-nonlin 2-no                                               
   RPACOR =    1.500    partial core radius                                                         
   POMASS =   32.066; ZVAL   =    6.000    mass and valenz                                          
   RCORE  =    1.900    outmost cutoff radius                                                       
   RWIGS  =    2.200; RWIGS  =    1.164    wigner-seitz radius (au A)                               
   ENMAX  =  258.689; ENMIN  =  194.016 eV                                                          
   ICORE  =        2    local potential                                                             
   LCOR   =        T    correct aug charges                                                         
   LPAW   =        T    paw PP                                                                      
   EAUG   =  335.092                                                                                
   DEXC   =    0.000                                                                                
   RMAX   =    1.942    core radius for proj-oper                                                   
   RAUG   =    1.300    factor for augmentation sphere                                              
   RDEP   =    1.954    radius for radial grids                                                     
   RDEPT  =    1.744    core radius for aug-charge                                                  
                                                                                                    
   Atomic configuration                                                                             
    6 entries                                                                                       
     n  l   j            E        occ.                                                              
     1  0  0.50     -2405.8406   2.0000                                                             
     2  0  0.50      -211.7007   2.0000                                                             
     2  1  1.50      -156.4958   6.0000                                                             
     3  0  0.50       -17.2562   2.0000                                                             
     3  1  0.50        -7.0085   4.0000                                                             
     3  2  1.50        -6.8029   0.0000                                                             
   Description                                                                                      
     l       E           TYP  RCUT    TYP  RCUT                                                     
     0    -17.2561641     23  1.900                                                                 
     0    -15.8743224     23  1.900                                                                 
     1     -7.0085400     23  1.900                                                                 
     1     -2.7779785     23  1.900                                                                 
     2     -6.8029130     23  1.900                                                                 
  local pseudopotential read in
  partial core-charges read in
  partial kinetic energy density read in
  atomic valenz-charges read in
  non local Contribution for L=           0  read in
    real space projection operators read in
  non local Contribution for L=           0  read in
    real space projection operators read in
  non local Contribution for L=           1  read in
    real space projection operators read in
  non local Contribution for L=           1  read in
    real space projection operators read in
    PAW grid and wavefunctions read in
 
   number of l-projection  operators is LMAX  =           4
   number of lm-projection operators is LMMAX =           8
 
  PAW_PBE Zn 06Sep2000                  :
 energy of atom  1       EATOM=-1748.8345
 kinetic energy error for atom=    0.0008 (will be added to EATOM!!)
  PAW_PBE Cu 22Jun2005                  :
 energy of atom  2       EATOM=-1390.9808
 kinetic energy error for atom=    0.0018 (will be added to EATOM!!)
  PAW_PBE Sn_d 06Sep2000                :
 energy of atom  3       EATOM=-1893.1092
 kinetic energy error for atom=    0.0008 (will be added to EATOM!!)
  PAW_PBE S 06Sep2000                   :
 energy of atom  4       EATOM= -276.8230
 kinetic energy error for atom=    0.0008 (will be added to EATOM!!)
 
 
 POSCAR: Zn1 Cu2 Sn1 S4
  positions in direct lattice
  No initial velocities read in
 exchange correlation table for  LEXCH =        8
   RHO(1)=    0.500       N(1)  =     2000
   RHO(2)=  100.500       N(2)  =     4000
 


--------------------------------------------------------------------------------------------------------


 ion  position               nearest neighbor table
   1  0.750  0.250  0.500-   6 2.34   8 2.34   7 2.34   5 2.34
   2  0.000  0.000  0.000-   7 2.30   5 2.30   8 2.30   6 2.30
   3  0.250  0.750  0.500-   6 2.30   5 2.30   8 2.30   7 2.30
   4  0.500  0.500  0.000-   5 2.44   6 2.44   8 2.44   7 2.44
   5  0.364  0.371  0.478-   3 2.30   2 2.30   1 2.34   4 2.44
   6  0.894  0.887  0.522-   3 2.30   2 2.30   1 2.34   4 2.44
   7  0.113  0.636  0.007-   3 2.30   2 2.30   1 2.34   4 2.44
   8  0.629  0.106  0.993-   3 2.30   2 2.30   1 2.34   4 2.44
 
  LATTYP: Found a body centered tetragonal cell.
 ALAT       =     5.4102945305
 C/A-ratio  =     2.0003379298
  
  Lattice vectors:
  
 A1 = (   4.9390118450,   0.0000000000,  -4.4184821860)
 A2 = (  -0.9875353717,   4.8392780344,  -4.4184821860)
 A3 = (   0.0000000000,   0.0000000000,   6.6269769000)


Analysis of symmetry for initial positions (statically):
=====================================================================
 Subroutine PRICEL returns:
 Original cell was already a primitive cell.
 

 Routine SETGRP: Setting up the symmetry group for a 
 body centered tetragonal supercell.


 Subroutine GETGRP returns: Found  4 space group operations
 (whereof  4 operations were pure point group operations)
 out of a pool of 16 trial point group operations.


The static configuration has the point symmetry S_4 .


Analysis of symmetry for dynamics (positions and initial velocities):
=====================================================================
 Subroutine PRICEL returns:
 Original cell was already a primitive cell.
 

 Routine SETGRP: Setting up the symmetry group for a 
 body centered tetragonal supercell.


 Subroutine GETGRP returns: Found  4 space group operations
 (whereof  4 operations were pure point group operations)
 out of a pool of 16 trial point group operations.


The dynamic configuration has the point symmetry S_4 .


Analysis of structural, dynamic, and magnetic symmetry:
=====================================================================
 Subroutine PRICEL returns:
 Original cell was already a primitive cell.
 

 Routine SETGRP: Setting up the symmetry group for a 
 body centered tetragonal supercell.


 Subroutine GETGRP returns: Found  4 space group operations
 (whereof  4 operations were pure point group operations)
 out of a pool of 16 trial point group operations.


The overall configuration has the point symmetry S_4 .


 Subroutine INISYM returns: Found  4 space group operations
 (whereof  4 operations are pure point group operations),
 and found     1 'primitive' translations


----------------------------------------------------------------------------------------

                                     Primitive cell                                     

  volume of cell :     158.3930

  direct lattice vectors                    reciprocal lattice vectors
     4.939011845  0.000000000 -4.418482186     0.202469650  0.041317308  0.000000000
    -0.987535372  4.839278034 -4.418482186     0.000000000  0.206642394  0.000000000
     0.000000000  0.000000000  6.626976900     0.134994969  0.165325086  0.150898368

  length of vectors
     6.626976900  6.626976900  6.626976900     0.206642394  0.206642394  0.261393082

  position of ions in fractional coordinates (direct lattice)
     0.750000000  0.250000000  0.500000000
     0.000000000  0.000000000  0.000000000
     0.250000000  0.750000000  0.500000000
     0.500000000  0.500000000  0.000000000
     0.364327140  0.371240320  0.477580560
     0.893659770  0.886747590  0.522419440
     0.113252410  0.635672860  0.006912180
     0.628759680  0.106340230  0.993087820

  ion indices of the primitive-cell ions
   primitive index   ion index
                 1           1
                 2           2
                 3           3
                 4           4
                 5           5
                 6           6
                 7           7
                 8           8

----------------------------------------------------------------------------------------

 
 
 KPOINTS: pymatgen with grid density = 802 / numbe

Automatic generation of k-mesh.
 Grid dimensions read from file:
 generate k-points for:    4    4    4

 Generating k-lattice:

  Cartesian coordinates                     Fractional coordinates (reciprocal lattice)
     0.050617413  0.010329327  0.000000000     0.250000000 -0.000000000  0.000000000
     0.000000000  0.051660599  0.000000000     0.000000000  0.250000000  0.000000000
     0.033748742  0.041331272  0.037724592     0.000000000  0.000000000  0.250000000

  Length of vectors
     0.051660599  0.051660599  0.065348271

  Shift w.r.t. Gamma in fractional coordinates (k-lattice)
     0.000000000  0.000000000  0.000000000

 TETIRR: Found    117 inequivalent tetrahedra from      384
 
 Subroutine IBZKPT returns following result:
 ===========================================
 
 Found     14 irreducible k-points:
 
 Following reciprocal coordinates:
            Coordinates               Weight
  0.000000  0.000000  0.000000      1.000000
  0.250000  0.000000  0.000000      8.000000
  0.500000  0.000000  0.000000      4.000000
  0.250000  0.250000  0.000000      8.000000
  0.500000  0.250000  0.000000      8.000000
  0.500000 -0.250000 -0.250000      8.000000
 -0.250000  0.250000  0.000000      4.000000
  0.500000  0.500000  0.000000      2.000000
  0.250000  0.250000  0.250000      2.000000
 -0.250000  0.250000  0.250000      4.000000
  0.500000  0.500000  0.250000      4.000000
 -0.250000  0.500000  0.250000      8.000000
 -0.250000 -0.250000  0.250000      2.000000
  0.500000  0.500000  0.500000      1.000000
 
 Following cartesian coordinates:
            Coordinates               Weight
  0.000000  0.000000  0.000000      1.000000
  0.050617  0.010329  0.000000      8.000000
  0.101235  0.020659  0.000000      4.000000
  0.050617  0.061990  0.000000      8.000000
  0.101235  0.072319  0.000000      8.000000
  0.067486 -0.072333 -0.037725      8.000000
 -0.050617  0.041331  0.000000      4.000000
  0.101235  0.123980  0.000000      2.000000
  0.084366  0.103321  0.037725      2.000000
 -0.016869  0.082663  0.037725      4.000000
  0.134984  0.165311  0.037725      4.000000
 -0.016869  0.134323  0.037725      8.000000
 -0.016869 -0.020659  0.037725      2.000000
  0.168732  0.206642  0.075449      1.000000
 
 
 Subroutine IBZKPT_HF returns following result:
 ==============================================
 
 Found     64 k-points in 1st BZ
 the following     64 k-points will be used (e.g. in the exchange kernel)
 Following reciprocal coordinates:   # in IRBZ
  0.000000  0.000000  0.000000    0.01562500   1 t-inv F
  0.250000  0.000000  0.000000    0.01562500   2 t-inv F
  0.500000  0.000000  0.000000    0.01562500   3 t-inv F
  0.250000  0.250000  0.000000    0.01562500   4 t-inv F
  0.500000  0.250000  0.000000    0.01562500   5 t-inv F
  0.500000 -0.250000 -0.250000    0.01562500   6 t-inv F
 -0.250000  0.250000  0.000000    0.01562500   7 t-inv F
  0.500000  0.500000  0.000000    0.01562500   8 t-inv F
  0.250000  0.250000  0.250000    0.01562500   9 t-inv F
 -0.250000  0.250000  0.250000    0.01562500  10 t-inv F
  0.500000  0.500000  0.250000    0.01562500  11 t-inv F
 -0.250000  0.500000  0.250000    0.01562500  12 t-inv F
 -0.250000 -0.250000  0.250000    0.01562500  13 t-inv F
  0.500000  0.500000  0.500000    0.01562500  14 t-inv F
 -0.250000  0.000000  0.250000    0.01562500   2 t-inv F
  0.000000  0.250000 -0.250000    0.01562500   2 t-inv F
  0.000000 -0.250000  0.000000    0.01562500   2 t-inv F
 -0.500000  0.000000  0.500000    0.01562500   3 t-inv F
  0.000000  0.500000 -0.500000    0.01562500   3 t-inv F
  0.000000 -0.500000  0.000000    0.01562500   3 t-inv F
 -0.500000  0.000000  0.250000    0.01562500   4 t-inv F
  0.250000  0.250000 -0.500000    0.01562500   4 t-inv F
  0.000000 -0.500000  0.250000    0.01562500   4 t-inv F
 -0.750000  0.000000  0.500000    0.01562500   5 t-inv F
  0.250000  0.500000 -0.750000    0.01562500   5 t-inv F
  0.000000 -0.750000  0.250000    0.01562500   5 t-inv F
  0.000000 -0.250000  0.500000    0.01562500   6 t-inv F
 -0.250000  0.500000  0.000000    0.01562500   6 t-inv F
 -0.250000  0.000000 -0.250000    0.01562500   6 t-inv F
 -0.000000  0.000000 -0.250000    0.01562500   7 t-inv F
  0.250000 -0.250000 -0.000000    0.01562500   7 t-inv F
  0.000000 -0.000000  0.250000    0.01562500   7 t-inv F
 -1.000000  0.000000  0.500000    0.01562500   8 t-inv F
 -0.250000  0.250000 -0.250000    0.01562500  10 t-inv F
  0.250000 -0.250000 -0.250000    0.01562500  10 t-inv F
  0.250000 -0.250000  0.250000    0.01562500  10 t-inv F
 -1.250000  0.250000  0.500000    0.01562500  11 t-inv F
  0.500000  0.500000 -1.250000    0.01562500  11 t-inv F
  0.250000 -1.250000  0.500000    0.01562500  11 t-inv F
 -0.500000  0.250000 -0.250000    0.01562500  12 t-inv F
  0.500000 -0.250000 -0.500000    0.01562500  12 t-inv F
  0.250000 -0.500000  0.500000    0.01562500  12 t-inv F
  0.250000  0.250000 -0.250000    0.01562500  13 t-inv F
 -0.250000 -0.000000  0.000000    0.01562500   2 t-inv T
  0.250000  0.000000 -0.250000    0.01562500   2 t-inv T
 -0.000000 -0.250000  0.250000    0.01562500   2 t-inv T
  0.000000  0.250000 -0.000000    0.01562500   2 t-inv T
 -0.250000 -0.250000  0.000000    0.01562500   4 t-inv T
  0.500000  0.000000 -0.250000    0.01562500   4 t-inv T
 -0.250000 -0.250000  0.500000    0.01562500   4 t-inv T
  0.000000  0.500000 -0.250000    0.01562500   4 t-inv T
 -0.500000 -0.250000  0.000000    0.01562500   5 t-inv T
  0.750000  0.000000 -0.500000    0.01562500   5 t-inv T
 -0.250000 -0.500000  0.750000    0.01562500   5 t-inv T
  0.000000  0.750000 -0.250000    0.01562500   5 t-inv T
 -0.500000  0.250000  0.250000    0.01562500   6 t-inv T
 -0.000000  0.250000 -0.500000    0.01562500   6 t-inv T
  0.250000 -0.500000 -0.000000    0.01562500   6 t-inv T
  0.250000 -0.000000  0.250000    0.01562500   6 t-inv T
 -0.250000 -0.250000 -0.250000    0.01562500   9 t-inv T
  0.250000 -0.500000 -0.250000    0.01562500  12 t-inv T
  0.500000 -0.250000  0.250000    0.01562500  12 t-inv T
 -0.500000  0.250000  0.500000    0.01562500  12 t-inv T
 -0.250000  0.500000 -0.500000    0.01562500  12 t-inv T


--------------------------------------------------------------------------------------------------------




 Dimension of arrays:
   k-points           NKPTS =     14   k-points in BZ     NKDIM =     64   number of bands    NBANDS=     48
   number of dos      NEDOS =    301   number of ions     NIONS =      8
   non local maximal  LDIM  =      6   non local SUM 2l+1 LMDIM =     18
   total plane-waves  NPLWV = 175616
   max r-space proj   IRMAX =      1   max aug-charges    IRDMAX=  49708
   dimension x,y,z NGX =    56 NGY =   56 NGZ =   56
   dimension x,y,z NGXF=   112 NGYF=  112 NGZF=  112
   support grid    NGXF=   112 NGYF=  112 NGZF=  112
   ions per type =               1   2   1   4
   NGX,Y,Z   is equivalent  to a cutoff of  14.05, 14.05, 14.05 a.u.
   NGXF,Y,Z  is equivalent  to a cutoff of  28.10, 28.10, 28.10 a.u.

 SYSTEM =  unknown system                          
 POSCAR =  Zn1 Cu2 Sn1 S4                          

 Startparameter for this run:
   NWRITE =      2    write-flag & timer
   PREC   = accura    normal or accurate (medium, high low for compatibility)
   ISTART =      0    job   : 0-new  1-cont  2-samecut
   ICHARG =      2    charge: 1-file 2-atom 10-const
   ISPIN  =      2    spin polarized calculation?
   LNONCOLLINEAR =      F non collinear calculations
   LSORBIT =      F    spin-orbit coupling
   INIWAV =      1    electr: 0-lowe 1-rand  2-diag
   LASPH  =      T    aspherical Exc in radial PAW
 Electronic Relaxation 1
   ENCUT  =  680.0 eV  49.98 Ry    7.07 a.u.  14.09 14.09 14.09*2*pi/ulx,y,z
   ENINI  =  680.0     initial cutoff
   ENAUG  = 1360.0 eV  augmentation charge cutoff
   NELM   =    200;   NELMIN=  2; NELMDL= -5     # of ELM steps 
   EDIFF  = 0.1E-04   stopping-criterion for ELM
   LREAL  =      F    real-space projection
   NLSPLINE    = F    spline interpolate recip. space projectors
   LCOMPAT=      F    compatible to vasp.4.4
   GGA_COMPAT  = T    GGA compatible to vasp.4.4-vasp.4.6
   LMAXPAW     = -100 max onsite density
   LMAXMIX     =    4 max onsite mixed and CHGCAR
   VOSKOWN=      0    Vosko Wilk Nusair interpolation
   ROPT   =    0.00000   0.00000   0.00000   0.00000
 Ionic relaxation
   EDIFFG = 0.1E-03   stopping-criterion for IOM
   NSW    =      0    number of steps for IOM
   NBLOCK =      1;   KBLOCK =      1    inner block; outer block 
   IBRION =     -1    ionic relax: 0-MD 1-quasi-New 2-CG
   NFREE  =      0    steps in history (QN), initial steepest desc. (CG)
   ISIF   =      0    stress and relaxation
   IWAVPR =     10    prediction:  0-non 1-charg 2-wave 3-comb
   ISYM   =      3    0-nonsym 1-usesym 2-fastsym
   LCORR  =      T    Harris-Foulkes like correction to forces

   POTIM  = 0.5000    time-step for ionic-motion
   TEIN   =    0.0    initial temperature
   TEBEG  =    0.0;   TEEND  =   0.0 temperature during run
   SMASS  =  -3.00    Nose mass-parameter (am)
   estimated Nose-frequenzy (Omega)   =  0.10E-29 period in steps = 0.13E+47 mass=  -0.100E-26a.u.
   SCALEE = 1.0000    scale energy and forces
   NPACO  =    256;   APACO  = 10.0  distance and # of slots for P.C.
   PSTRESS=    0.0 pullay stress

  Mass of Ions in am
   POMASS =  65.39 63.55118.71 32.07
  Ionic Valenz
   ZVAL   =  12.00 11.00 14.00  6.00
  Atomic Wigner-Seitz radii
   RWIGS  =  -1.00 -1.00 -1.00 -1.00
  virtual crystal weights 
   VCA    =   1.00  1.00  1.00  1.00
   NELECT =      72.0000    total number of electrons
   NUPDOWN=      -1.0000    fix difference up-down

 DOS related values:
   EMIN   =  10.00;   EMAX   =-10.00  energy-range for DOS
   EFERMI =   0.00;   METHOD = LEGACY      
   ISMEAR =    -5;   SIGMA  =   0.20  broadening in eV -4-tet -1-fermi 0-gaus

 Electronic relaxation 2 (details)
   IALGO  =     38    algorithm
   LDIAG  =      T    sub-space diagonalisation (order eigenvalues)
   LSUBROT=      F    optimize rotation matrix (better conditioning)
   TURBO    =      0    0=normal 1=particle mesh
   IRESTART =      0    0=no restart 2=restart with 2 vectors
   NREBOOT  =      0    no. of reboots
   NMIN     =      0    reboot dimension
   EREF     =   0.00    reference energy to select bands
   IMIX   =      1    mixing-type and parameters
     AMIX     =   0.40;   BMIX     =  1.00
     AMIX_MAG =   1.60;   BMIX_MAG =  1.00
     AMIN     =   0.10
     WC   =   100.;   INIMIX=   1;  MIXPRE=   1;  MAXMIX= -45

 Intra band minimization:
   WEIMIN = 0.0000     energy-eigenvalue tresh-hold
   EBREAK =  0.52E-07  absolut break condition
   DEPER  =   0.30     relativ break condition  

   TIME   =   0.40     timestep for ELM

  volume/ion in A,a.u.               =      19.80       133.61
  Fermi-wavevector in a.u.,A,eV,Ry     =   1.258752  2.378697 21.557853  1.584457
  Thomas-Fermi vector in A             =   2.392346
 
 Write flags
   LWAVE        =      F    write WAVECAR
   LDOWNSAMPLE  =      F    k-point downsampling of WAVECAR
   LCHARG       =      T    write CHGCAR
   LVTOT        =      T    write LOCPOT, total local potential
   LVHAR        =      F    write LOCPOT, Hartree potential only
   LELF         =      F    write electronic localiz. function (ELF)
   LORBIT       =     11    0 simple, 1 ext, 2 COOP (PROOUT), +10 PAW based schemes


 Dipole corrections
   LMONO  =      F    monopole corrections only (constant potential shift)
   LDIPOL =      F    correct potential (dipole corrections)
   IDIPOL =      0    1-x, 2-y, 3-z, 4-all directions 
   EPSILON=  1.0000000 bulk dielectric constant

 Exchange correlation treatment:
   GGA     =    PE    GGA type
   LEXCH   =     8    internal setting for exchange type
   LIBXC   =     F    Libxc                    
   VOSKOWN =     0    Vosko Wilk Nusair interpolation
   EXXOEP  =     0    0=HF, 1=EXX-LHF (local Hartree Fock) 2=EXX OEP
   LHFCALC =     T    Hartree Fock is set to
   LSYMGRAD=     F    symmetrize gradient (conserves proper symmetry)
   PRECFOCK=accur.    Normal, Fast or Accurate (Low or Medium for compatibility)
   LRHFCALC=     F    long range Hartree Fock
   LRSCOR  =     F    long range correlation only (use DFT for short range part)
   LTHOMAS =     F    Thomas Fermi screening in HF
   LMODELHF=     F    short range full HF, long range fraction AEXX
   FOCKCORR=     1    mode to apply convergence corrections
   LFOCKACE=     T    use Adeptively-Compressed-Exchange operator
   ENCUT4O =  -1.0   cutoff for four orbital integrals eV
   LMAXFOCK=     4    L truncation for augmentation on plane wave grid
   LMAXFOCKAE=  -1    L truncation for all-electron charge restoration on plane wave grid
   NMAXFOCKAE=   1    number of basis functions for all-electron charge restoration
   LFOCKAEDFT=     F  apply the AE augmentation even for DFT
   NKREDX  =     1    reduce k-point grid by
   NKREDY  =     1    reduce k-point grid by
   NKREDZ  =     1    reduce k-point grid by
   SHIFTRED=     F    shift reduced grid of Gamma
   HFKIDENT=     F    idential grid for each k-point
   ODDONLY =     F    use only odd q-grid points
   EVENONLY=     F    use only even q-grid points
   HFALPHA =   -1.0000 decay constant for conv. correction
   MCALPHA =    0.0000 extent of test-charge in conv. correction in multipole expansion
   AEXX    =    0.2500 exact exchange contribution
   HFSCREEN=    0.2000 screening length (either q_TF or 0.3 A-1)
   HFSCREENC=   0.2000 screening length for correlation (either q_TF or 0.3 A-1)
   HFRCUT  =    0.0000 spherical cutoff for potential kernel
   ALDAX   =    0.7500 LDA exchange part
   AGGAX   =    0.7500 GGA exchange part
   ALDAC   =    1.0000 LDA correlation
   AGGAC   =    1.0000 GGA correlation
   ENCUTFOCK=  -1.0 apply spherical cutoff to Coloumb kernel
   NBANDSGWLOW=     1    first orbital included in HF term
   NBLOCK_FOCK=    64    blocking factor in FOCK_ACC

 Linear response parameters
   LEPSILON=     F    determine dielectric tensor
   LRPA    =     F    only Hartree local field effects (RPA)
   LNABLA  =     F    use nabla operator in PAW spheres
   LVEL    =     F    velocity operator in full k-point grid
   CSHIFT  =0.1000    complex shift for real part using Kramers Kronig
   OMEGAMAX=  -1.0    maximum frequency
   DEG_THRESHOLD= 0.2000000E-02 threshold for treating states as degnerate
   RTIME   =   -0.100 relaxation time in fs
  (WPLASMAI=    0.000 imaginary part of plasma frequency in eV, 0.658/RTIME)
   DFIELD  = 0.0000000 0.0000000 0.0000000 field for delta impulse in time
 
  Optional k-point grid parameters
   LKPOINTS_OPT  =     F    use optional k-point grid
   KPOINTS_OPT_MODE=     1    mode for optional k-point grid
 
 Orbital magnetization related:
   ORBITALMAG=     F  switch on orbital magnetization
   LCHIMAG   =     F  perturbation theory with respect to B field
   DQ        =  0.001000  dq finite difference perturbation B field
   LLRAUG    =     F  two centre corrections for induced B field
   LBONE     =     F  B-component reconstruction in AE one-centre
   LVGVCALC  =     T  calculate vGv susceptibility
   LVGVAPPL  =     F  apply vGv susceptibility instead of pGv for G=0

 Random number generation:
   RANDOM_GENERATOR = DEFAULT
   PCG_SEED         = not used


--------------------------------------------------------------------------------------------------------


 Static calculation
 charge density and potential will be updated during run
 spin polarized calculation
 Variant of blocked Davidson
 Davidson routine will perform the subspace rotation
 perform sub-space diagonalisation
    after iterative eigenvector-optimisation
 Kerker-like  mixing scheme
 using additional bands           12
 reciprocal scheme for non local part
 use partial core corrections
 calculate Harris-corrections to forces 
   (improved forces if not selfconsistent)
 use gradient corrections 
 use of overlap-Matrix (Vanderbilt PP)
 Fermi weights with tetrahedron method with Bloechl corrections


--------------------------------------------------------------------------------------------------------


  energy-cutoff  :      680.00
  volume of cell :      158.39
      direct lattice vectors                 reciprocal lattice vectors
     4.939011845  0.000000000 -4.418482186     0.202469650  0.041317308  0.000000000
    -0.987535372  4.839278034 -4.418482186     0.000000000  0.206642394  0.000000000
     0.000000000  0.000000000  6.626976900     0.134994969  0.165325086  0.150898368

  length of vectors
     6.626976900  6.626976900  6.626976900     0.206642394  0.206642394  0.261393082


 
 k-points in units of 2pi/SCALE and weight: pymatgen with grid density = 802 / numbe
   0.00000000  0.00000000  0.00000000       0.016
   0.05061741  0.01032933  0.00000000       0.125
   0.10123483  0.02065865  0.00000000       0.062
   0.05061741  0.06198993  0.00000000       0.125
   0.10123483  0.07231925  0.00000000       0.125
   0.06748608 -0.07233322 -0.03772459       0.125
  -0.05061741  0.04133127  0.00000000       0.062
   0.10123483  0.12397985  0.00000000       0.031
   0.08436615  0.10332120  0.03772459       0.031
  -0.01686867  0.08266254  0.03772459       0.062
   0.13498357  0.16531112  0.03772459       0.062
  -0.01686867  0.13432314  0.03772459       0.125
  -0.01686867 -0.02065865  0.03772459       0.031
   0.16873231  0.20664239  0.07544918       0.016
 
 k-points in reciprocal lattice and weights: pymatgen with grid density = 802 / numbe
   0.00000000  0.00000000  0.00000000       0.016
   0.25000000  0.00000000  0.00000000       0.125
   0.50000000  0.00000000  0.00000000       0.062
   0.25000000  0.25000000  0.00000000       0.125
   0.50000000  0.25000000  0.00000000       0.125
   0.50000000 -0.25000000 -0.25000000       0.125
  -0.25000000  0.25000000  0.00000000       0.062
   0.50000000  0.50000000  0.00000000       0.031
   0.25000000  0.25000000  0.25000000       0.031
  -0.25000000  0.25000000  0.25000000       0.062
   0.50000000  0.50000000  0.25000000       0.062
  -0.25000000  0.50000000  0.25000000       0.125
  -0.25000000 -0.25000000  0.25000000       0.031
   0.50000000  0.50000000  0.50000000       0.016
 
 position of ions in fractional coordinates (direct lattice) 
   0.75000000  0.25000000  0.50000000
   0.00000000  0.00000000  0.00000000
   0.25000000  0.75000000  0.50000000
   0.50000000  0.50000000  0.00000000
   0.36432714  0.37124032  0.47758056
   0.89365977  0.88674759  0.52241944
   0.11325241  0.63567286  0.00691218
   0.62875968  0.10634023  0.99308782
 
 position of ions in cartesian coordinates  (Angst):
   3.45737504  1.20981951 -1.10499374
   0.00000000  0.00000000  0.00000000
   0.49410143  3.62945853 -1.10499374
   1.97573824  2.41963902 -4.41848219
   1.43280311  1.79653513 -0.08517638
   3.53810158  4.29121813 -4.40463664
  -0.06839444  3.07619771 -3.26330611
   3.00043677  0.51460994  3.33314419
 


--------------------------------------------------------------------------------------------------------


 k-point   1 :   0.0000 0.0000 0.0000  plane waves:    6435
 k-point   2 :   0.2500 0.0000 0.0000  plane waves:    6376
 k-point   3 :   0.5000 0.0000 0.0000  plane waves:    6380
 k-point   4 :   0.2500 0.2500 0.0000  plane waves:    6388
 k-point   5 :   0.5000 0.2500 0.0000  plane waves:    6371
 k-point   6 :   0.5000-0.2500-0.2500  plane waves:    6371
 k-point   7 :  -0.2500 0.2500 0.0000  plane waves:    6368
 k-point   8 :   0.5000 0.5000 0.0000  plane waves:    6288
 k-point   9 :   0.2500 0.2500 0.2500  plane waves:    6360
 k-point  10 :  -0.2500 0.2500 0.2500  plane waves:    6368
 k-point  11 :   0.5000 0.5000 0.2500  plane waves:    6386
 k-point  12 :  -0.2500 0.5000 0.2500  plane waves:    6399
 k-point  13 :  -0.2500-0.2500 0.2500  plane waves:    6383
 k-point  14 :   0.5000 0.5000 0.5000  plane waves:    6400

 maximum and minimum number of plane-waves per node :       348      288

 maximum number of plane-waves:      6435
 maximum index in each direction: 
   IXMAX=   14   IYMAX=   14   IZMAX=   14
   IXMIN=  -14   IYMIN=  -14   IZMIN=  -14


 parallel 3D FFT for wavefunctions:
    minimum data exchange during FFTs selected (reduces bandwidth)
 parallel 3D FFT for charge:
    minimum data exchange during FFTs selected (reduces bandwidth)

 
 Radii for the augmentation spheres in the non-local exchange
 for species   1 augmentation radius   1.190 (default was   0.952)
       energy cutoff for augmentation   2720.0
 for species   2 augmentation radius   1.179 (default was   0.943)
       energy cutoff for augmentation   2720.0
 for species   3 augmentation radius   1.362 (default was   1.089)
       energy cutoff for augmentation   2720.0
 for species   4 augmentation radius   1.212 (default was   0.970)
       energy cutoff for augmentation   2720.0

 real space projection operators:
  total allocation   :       9084.61 KBytes
  max/ min on nodes  :        485.20        348.80

 Maximum index for augmentation-charges in exchange          651
  SETUP_FOCK is finished

 total amount of memory used by VASP MPI-rank0    39649. kBytes
=======================================================================

   base      :      30000. kBytes
   nonl-proj :       2949. kBytes
   fftplans  :       1032. kBytes
   grid      :       1980. kBytes
   one-center:         31. kBytes
   HF        :         64. kBytes
   nonlr-proj:       2239. kBytes
   wavefun   :       1354. kBytes
 
     INWAV:  cpu time      0.0000: real time      0.0001
 initial charge density was supplied:
 charge density of overlapping atoms calculated
 number of electron      72.0000000 magnetization       4.8000000
 keeping initial charge density in first step


--------------------------------------------------------------------------------------------------------


 Maximum index for augmentation-charges         1075 (set IRDMAX)


--------------------------------------------------------------------------------------------------------


 First call to EWALD:  gamma=   0.328
 Maximum number of real-space cells 3x 3x 4
 Maximum number of reciprocal cells 3x 3x 3

    FEWALD:  cpu time      0.0024: real time      0.0026


--------------------------------------- Ionic step        1  -------------------------------------------




--------------------------------------- Iteration      1(   1)  ---------------------------------------


    POTLOK:  cpu time      0.0403: real time      0.0950
    SETDIJ:  cpu time      0.4062: real time      0.4074
     EDDAV:  cpu time      0.6867: real time      0.7291
 BZINTS: Fermi energy:   20.851299;   72.000000 electrons
         Band energy: 0.428360E+03;  BLOECHL correction:   -0.182114
       DOS:  cpu time      0.0164: real time      0.0164
    --------------------------------------------
      LOOP:  cpu time      1.1497: real time      1.2478

 eigenvalue-minimisations  :  2712
 total energy-change (2. order) :-0.2179524E+04  (-0.3923643E+04)
 number of electron      72.0000000 magnetization       4.8000000
 augmentation part       72.0000000 magnetization       4.8000000

 Free energy of the ion-electron system (eV)
  ---------------------------------------------------
  alpha Z        PSCENC =       202.50320330
  Ewald energy   TEWEN  =     -5034.42253749
  -Hartree energ DENC   =     -2428.65725175
  -exchange      EXHF   =         0.00000000
  -V(xc)+E(xc)   XCENC  =       254.94177981
  PAW double counting   =      6350.20787093    -9469.52756924
  entropy T*S    EENTRO =         0.00000000
  eigenvalues    EBANDS =       428.35984508
  atomic energy  EATOM  =      7517.07041424
  Solvation  Ediel_sol  =         0.00000000
  ---------------------------------------------------
  free energy    TOTEN  =     -2179.52424512 eV

  energy without entropy =    -2179.52424512  energy(sigma->0) =    -2179.52424512
  exchange ACFDT corr.  =         0.00000000  see jH, gK, PRB 81, 115126


--------------------------------------------------------------------------------------------------------




--------------------------------------- Iteration      1(   2)  ---------------------------------------


     EDDAV:  cpu time      0.6579: real time      0.6649
 BZINTS: Fermi energy:    7.030003;   72.000000 electrons
         Band energy:-0.217112E+03;  BLOECHL correction:    0.000000
       DOS:  cpu time      0.0063: real time      0.0063
    --------------------------------------------
      LOOP:  cpu time      0.6641: real time      0.6711

 eigenvalue-minimisations  :  2688
 total energy-change (2. order) :-0.6454723E+03  (-0.6121133E+03)
 number of electron      72.0000000 magnetization       4.8000000
 augmentation part       72.0000000 magnetization       4.8000000

 Free energy of the ion-electron system (eV)
  ---------------------------------------------------
  alpha Z        PSCENC =       202.50320330
  Ewald energy   TEWEN  =     -5034.42253749
  -Hartree energ DENC   =     -2428.65725175
  -exchange      EXHF   =         0.00000000
  -V(xc)+E(xc)   XCENC  =       254.94177981
  PAW double counting   =      6350.20787093    -9469.52756924
  entropy T*S    EENTRO =         0.00000000
  eigenvalues    EBANDS =      -217.11247173
  atomic energy  EATOM  =      7517.07041424
  Solvation  Ediel_sol  =         0.00000000
  ---------------------------------------------------
  free energy    TOTEN  =     -2824.99656193 eV

  energy without entropy =    -2824.99656193  energy(sigma->0) =    -2824.99656193
  exchange ACFDT corr.  =         0.00000000  see jH, gK, PRB 81, 115126


--------------------------------------------------------------------------------------------------------




--------------------------------------- Iteration      1(   3)  ---------------------------------------


     EDDAV:  cpu time      0.7673: real time      0.7856
 BZINTS: Fermi energy:    3.512347;   72.000000 electrons
         Band energy:-0.319370E+03;  BLOECHL correction:    0.000000
       DOS:  cpu time      0.0058: real time      0.0058
    --------------------------------------------
      LOOP:  cpu time      0.7731: real time      0.7914

 eigenvalue-minimisations  :  3384
 total energy-change (2. order) :-0.1022572E+03  (-0.9973320E+02)
 number of electron      72.0000000 magnetization       4.8000000
 augmentation part       72.0000000 magnetization       4.8000000

 Free energy of the ion-electron system (eV)
  ---------------------------------------------------
  alpha Z        PSCENC =       202.50320330
  Ewald energy   TEWEN  =     -5034.42253749
  -Hartree energ DENC   =     -2428.65725175
  -exchange      EXHF   =         0.00000000
  -V(xc)+E(xc)   XCENC  =       254.94177981
  PAW double counting   =      6350.20787093    -9469.52756924
  entropy T*S    EENTRO =         0.00000000
  eigenvalues    EBANDS =      -319.36963912
  atomic energy  EATOM  =      7517.07041424
  Solvation  Ediel_sol  =         0.00000000
  ---------------------------------------------------
  free energy    TOTEN  =     -2927.25372932 eV

  energy without entropy =    -2927.25372932  energy(sigma->0) =    -2927.25372932
  exchange ACFDT corr.  =         0.00000000  see jH, gK, PRB 81, 115126


--------------------------------------------------------------------------------------------------------




--------------------------------------- Iteration      1(   4)  ---------------------------------------


     EDDAV:  cpu time      0.7309: real time      0.7508
 BZINTS: Fermi energy:    3.308593;   72.000000 electrons
         Band energy:-0.325087E+03;  BLOECHL correction:    0.000000
       DOS:  cpu time      0.0058: real time      0.0058
    --------------------------------------------
      LOOP:  cpu time      0.7367: real time      0.7566

 eigenvalue-minimisations  :  3180
 total energy-change (2. order) :-0.5717715E+01  (-0.5692890E+01)
 number of electron      72.0000000 magnetization       4.8000000
 augmentation part       72.0000000 magnetization       4.8000000

 Free energy of the ion-electron system (eV)
  ---------------------------------------------------
  alpha Z        PSCENC =       202.50320330
  Ewald energy   TEWEN  =     -5034.42253749
  -Hartree energ DENC   =     -2428.65725175
  -exchange      EXHF   =         0.00000000
  -V(xc)+E(xc)   XCENC  =       254.94177981
  PAW double counting   =      6350.20787093    -9469.52756924
  entropy T*S    EENTRO =         0.00000000
  eigenvalues    EBANDS =      -325.08735403
  atomic energy  EATOM  =      7517.07041424
  Solvation  Ediel_sol  =         0.00000000
  ---------------------------------------------------
  free energy    TOTEN  =     -2932.97144423 eV

  energy without entropy =    -2932.97144423  energy(sigma->0) =    -2932.97144423
  exchange ACFDT corr.  =         0.00000000  see jH, gK, PRB 81, 115126


--------------------------------------------------------------------------------------------------------




--------------------------------------- Iteration      1(   5)  ---------------------------------------


    POTLOK:  cpu time      0.0482: real time      0.0663
    SETDIJ:  cpu time      0.9342: real time      0.9365
     EDDAV:  cpu time    304.4382: real time    305.2684
 BZINTS: Fermi energy:    4.035948;   72.000000 electrons
         Band energy:-0.290432E+03;  BLOECHL correction:    0.000000
       DOS:  cpu time      0.0057: real time      0.0059
    CHARGE:  cpu time      0.1727: real time      0.1731
    MIXING:  cpu time      0.0010: real time      0.0010
    --------------------------------------------
      LOOP:  cpu time    305.6000: real time    306.4511

 eigenvalue-minimisations  :  3276
 total energy-change (2. order) : 0.2893634E+04  (-0.2744180E+01)
 number of electron      71.9999997 magnetization      -2.8800000
 augmentation part       26.6764338 magnetization      -2.7849097

 Free energy of the ion-electron system (eV)
  ---------------------------------------------------
  alpha Z        PSCENC =       202.50320330
  Ewald energy   TEWEN  =     -5034.42253749
  -Hartree energ DENC   =     -2428.65725175
  -exchange      EXHF   =       178.60765869
  -V(xc)+E(xc)   XCENC  =       193.32848367
  PAW double counting   =      6409.01461450    -6786.35040637
  entropy T*S    EENTRO =         0.00000000
  eigenvalues    EBANDS =      -290.43163040
  atomic energy  EATOM  =      7517.07041424
  Solvation  Ediel_sol  =         0.00000000
  ---------------------------------------------------
  free energy    TOTEN  =       -39.33745161 eV

  energy without entropy =      -39.33745161  energy(sigma->0) =      -39.33745161
  exchange ACFDT corr.  =         0.00000000  see jH, gK, PRB 81, 115126


--------------------------------------------------------------------------------------------------------




--------------------------------------- Iteration      1(   6)  ---------------------------------------


    POTLOK:  cpu time      0.0463: real time      0.0624
    SETDIJ:  cpu time      0.9420: real time      0.9442
     EDDAV:  cpu time    305.3164: real time    306.0589
 BZINTS: Fermi energy:    4.385488;   72.000000 electrons
         Band energy:-0.285021E+03;  BLOECHL correction:    0.000000
       DOS:  cpu time      0.0059: real time      0.0061
    CHARGE:  cpu time      0.1423: real time      0.1426
    MIXING:  cpu time      0.0002: real time      0.0002
    --------------------------------------------
      LOOP:  cpu time    306.4531: real time    307.2145

 eigenvalue-minimisations  :  4020
 total energy-change (2. order) : 0.7680129E+00  (-0.3716510E+00)
 number of electron      71.9999995 magnetization       1.7280000
 augmentation part       26.5180454 magnetization       1.7473752

 Free energy of the ion-electron system (eV)
  ---------------------------------------------------
  alpha Z        PSCENC =       202.50320330
  Ewald energy   TEWEN  =     -5034.42253749
  -Hartree energ DENC   =     -2426.95936234
  -exchange      EXHF   =       174.42904249
  -V(xc)+E(xc)   XCENC  =       193.75742587
  PAW double counting   =      7233.45465719    -7613.38103237
  entropy T*S    EENTRO =         0.00000000
  eigenvalues    EBANDS =      -285.02124964
  atomic energy  EATOM  =      7517.07041424
  Solvation  Ediel_sol  =         0.00000000
  ---------------------------------------------------
  free energy    TOTEN  =       -38.56943876 eV

  energy without entropy =      -38.56943876  energy(sigma->0) =      -38.56943876
  exchange ACFDT corr.  =         0.00000000  see jH, gK, PRB 81, 115126


--------------------------------------------------------------------------------------------------------




--------------------------------------- Iteration      1(   7)  ---------------------------------------


    POTLOK:  cpu time      0.0416: real time      0.0603
    SETDIJ:  cpu time      0.9250: real time      0.9272
     EDDAV:  cpu time    305.9300: real time    306.6548
 BZINTS: Fermi energy:    4.156840;   72.000000 electrons
         Band energy:-0.294693E+03;  BLOECHL correction:    0.000000
       DOS:  cpu time      0.0059: real time      0.0061
    CHARGE:  cpu time      0.1831: real time      0.1835
    MIXING:  cpu time      0.0004: real time      0.0004
    --------------------------------------------
      LOOP:  cpu time    307.0861: real time    307.8324

 eigenvalue-minimisations  :  4236
 total energy-change (2. order) : 0.8813224E-02  (-0.1721944E+00)
 number of electron      71.9999993 magnetization      -1.0368000
 augmentation part       26.7310482 magnetization      -1.0181945

 Free energy of the ion-electron system (eV)
  ---------------------------------------------------
  alpha Z        PSCENC =       202.50320330
  Ewald energy   TEWEN  =     -5034.42253749
  -Hartree energ DENC   =     -2415.39104036
  -exchange      EXHF   =       172.71679806
  -V(xc)+E(xc)   XCENC  =       193.58797765
  PAW double counting   =      7971.67848203    -8351.61088651
  entropy T*S    EENTRO =         0.00000000
  eigenvalues    EBANDS =      -294.69303645
  atomic energy  EATOM  =      7517.07041424
  Solvation  Ediel_sol  =         0.00000000
  ---------------------------------------------------
  free energy    TOTEN  =       -38.56062554 eV

  energy without entropy =      -38.56062554  energy(sigma->0) =      -38.56062554
  exchange ACFDT corr.  =         0.00000000  see jH, gK, PRB 81, 115126


--------------------------------------------------------------------------------------------------------




--------------------------------------- Iteration      1(   8)  ---------------------------------------


    POTLOK:  cpu time      0.0505: real time      0.0653
    SETDIJ:  cpu time      0.9221: real time      0.9242
     EDDAV:  cpu time    304.8029: real time    305.5378
 BZINTS: Fermi energy:    4.277254;   72.000000 electrons
         Band energy:-0.290851E+03;  BLOECHL correction:    0.000000
       DOS:  cpu time      0.0060: real time      0.0061
    CHARGE:  cpu time      0.1640: real time      0.1644
    MIXING:  cpu time      0.0003: real time      0.0003
    --------------------------------------------
      LOOP:  cpu time    305.9457: real time    306.6982

 eigenvalue-minimisations  :  3996
 total energy-change (2. order) :-0.7841410E-01  (-0.4289325E-01)
 number of electron      71.9999993 magnetization       0.6220800
 augmentation part       26.6998825 magnetization       0.6284071

 Free energy of the ion-electron system (eV)
  ---------------------------------------------------
  alpha Z        PSCENC =       202.50320330
  Ewald energy   TEWEN  =     -5034.42253749
  -Hartree energ DENC   =     -2416.10115644
  -exchange      EXHF   =       172.75964036
  -V(xc)+E(xc)   XCENC  =       193.65292077
  PAW double counting   =      8519.95014491    -8903.20096885
  entropy T*S    EENTRO =         0.00000000
  eigenvalues    EBANDS =      -290.85070043
  atomic energy  EATOM  =      7517.07041424
  Solvation  Ediel_sol  =         0.00000000
  ---------------------------------------------------
  free energy    TOTEN  =       -38.63903964 eV

  energy without entropy =      -38.63903964  energy(sigma->0) =      -38.63903964
  exchange ACFDT corr.  =         0.00000000  see jH, gK, PRB 81, 115126


--------------------------------------------------------------------------------------------------------




--------------------------------------- Iteration      1(   9)  ---------------------------------------


    POTLOK:  cpu time      0.0442: real time      0.0625
    SETDIJ:  cpu time      0.9290: real time      0.9312
     EDDAV:  cpu time    305.5181: real time    306.2414
 BZINTS: Fermi energy:    4.263076;   72.000000 electrons
         Band energy:-0.290190E+03;  BLOECHL correction:    0.000000
       DOS:  cpu time      0.0060: real time      0.0061
    CHARGE:  cpu time      0.1400: real time      0.1403
    MIXING:  cpu time      0.0002: real time      0.0002
    --------------------------------------------
      LOOP:  cpu time    306.6375: real time    307.3818

 eigenvalue-minimisations  :  3792
 total energy-change (2. order) :-0.7194127E-02  (-0.4682921E-02)
 number of electron      71.9999992 magnetization      -0.3732480
 augmentation part       26.6758958 magnetization      -0.3722612

 Free energy of the ion-electron system (eV)
  ---------------------------------------------------
  alpha Z        PSCENC =       202.50320330
  Ewald energy   TEWEN  =     -5034.42253749
  -Hartree energ DENC   =     -2414.83827521
  -exchange      EXHF   =       172.45101872
  -V(xc)+E(xc)   XCENC  =       193.61543781
  PAW double counting   =      8918.93941396    -9303.77450579
  entropy T*S    EENTRO =         0.00000000
  eigenvalues    EBANDS =      -290.19040330
  atomic energy  EATOM  =      7517.07041424
  Solvation  Ediel_sol  =         0.00000000
  ---------------------------------------------------
  free energy    TOTEN  =       -38.64623376 eV

  energy without entropy =      -38.64623376  energy(sigma->0) =      -38.64623376
  exchange ACFDT corr.  =         0.00000000  see jH, gK, PRB 81, 115126


--------------------------------------------------------------------------------------------------------




--------------------------------------- Iteration      1(  10)  ---------------------------------------


    POTLOK:  cpu time      0.0529: real time      0.0705
    SETDIJ:  cpu time      0.9200: real time      0.9221
     EDDAV:  cpu time    306.1967: real time    306.9290
 BZINTS: Fermi energy:    4.263257;   72.000000 electrons
         Band energy:-0.291005E+03;  BLOECHL correction:    0.000000
       DOS:  cpu time      0.0059: real time      0.0061
    CHARGE:  cpu time      0.1684: real time      0.1688
    MIXING:  cpu time      0.0003: real time      0.0003
    --------------------------------------------
      LOOP:  cpu time    307.3441: real time    308.0968

 eigenvalue-minimisations  :  3816
 total energy-change (2. order) :-0.3267336E-02  (-0.2263649E-02)
 number of electron      71.9999992 magnetization       0.2239488
 augmentation part       26.6806968 magnetization       0.2257240

 Free energy of the ion-electron system (eV)
  ---------------------------------------------------
  alpha Z        PSCENC =       202.50320330
  Ewald energy   TEWEN  =     -5034.42253749
  -Hartree energ DENC   =     -2413.25000703
  -exchange      EXHF   =       172.39846820
  -V(xc)+E(xc)   XCENC  =       193.57134952
  PAW double counting   =      9150.11389307    -9535.62917911
  entropy T*S    EENTRO =         0.00000000
  eigenvalues    EBANDS =      -291.00510580
  atomic energy  EATOM  =      7517.07041424
  Solvation  Ediel_sol  =         0.00000000
  ---------------------------------------------------
  free energy    TOTEN  =       -38.64950110 eV

  energy without entropy =      -38.64950110  energy(sigma->0) =      -38.64950110
  exchange ACFDT corr.  =         0.00000000  see jH, gK, PRB 81, 115126


--------------------------------------------------------------------------------------------------------




--------------------------------------- Iteration      1(  11)  ---------------------------------------


    POTLOK:  cpu time      0.0453: real time      0.0645
    SETDIJ:  cpu time      0.9213: real time      0.9235
     EDDAV:  cpu time    305.4065: real time    306.1426
 BZINTS: Fermi energy:    4.247291;   72.000000 electrons
         Band energy:-0.291050E+03;  BLOECHL correction:    0.000000
       DOS:  cpu time      0.0059: real time      0.0061
    CHARGE:  cpu time      0.1397: real time      0.1401
    MIXING:  cpu time      0.0002: real time      0.0002
    --------------------------------------------
      LOOP:  cpu time    306.5190: real time    307.2770

 eigenvalue-minimisations  :  3648
 total energy-change (2. order) :-0.2294888E-02  (-0.6121188E-03)
 number of electron      71.9999992 magnetization      -0.1343693
 augmentation part       26.6802757 magnetization      -0.1345301

 Free energy of the ion-electron system (eV)
  ---------------------------------------------------
  alpha Z        PSCENC =       202.50320330
  Ewald energy   TEWEN  =     -5034.42253749
  -Hartree energ DENC   =     -2412.77541687
  -exchange      EXHF   =       172.47780814
  -V(xc)+E(xc)   XCENC  =       193.56773204
  PAW double counting   =      9266.96185562    -9652.98450187
  entropy T*S    EENTRO =         0.00000000
  eigenvalues    EBANDS =      -291.05035310
  atomic energy  EATOM  =      7517.07041424
  Solvation  Ediel_sol  =         0.00000000
  ---------------------------------------------------
  free energy    TOTEN  =       -38.65179599 eV

  energy without entropy =      -38.65179599  energy(sigma->0) =      -38.65179599
  exchange ACFDT corr.  =         0.00000000  see jH, gK, PRB 81, 115126


--------------------------------------------------------------------------------------------------------




--------------------------------------- Iteration      1(  12)  ---------------------------------------


    POTLOK:  cpu time      0.0416: real time      0.0586
    SETDIJ:  cpu time      0.9204: real time      0.9225
     EDDAV:  cpu time    305.3102: real time    306.0589
 BZINTS: Fermi energy:    4.249935;   72.000000 electrons
         Band energy:-0.290934E+03;  BLOECHL correction:    0.000000
       DOS:  cpu time      0.0060: real time      0.0061
    CHARGE:  cpu time      0.1428: real time      0.1432
    MIXING:  cpu time      0.0002: real time      0.0002
    --------------------------------------------
      LOOP:  cpu time    306.4213: real time    307.1896

 eigenvalue-minimisations  :  3540
 total energy-change (2. order) :-0.9256620E-03  (-0.2079330E-03)
 number of electron      71.9999992 magnetization       0.0806216
 augmentation part       26.6777957 magnetization       0.0812093

 Free energy of the ion-electron system (eV)
  ---------------------------------------------------
  alpha Z        PSCENC =       202.50320330
  Ewald energy   TEWEN  =     -5034.42253749
  -Hartree energ DENC   =     -2412.60103411
  -exchange      EXHF   =       172.50052120
  -V(xc)+E(xc)   XCENC  =       193.57173878
  PAW double counting   =      9328.18754225    -9714.52822617
  entropy T*S    EENTRO =         0.00000000
  eigenvalues    EBANDS =      -290.93434365
  atomic energy  EATOM  =      7517.07041424
  Solvation  Ediel_sol  =         0.00000000
  ---------------------------------------------------
  free energy    TOTEN  =       -38.65272165 eV

  energy without entropy =      -38.65272165  energy(sigma->0) =      -38.65272165
  exchange ACFDT corr.  =         0.00000000  see jH, gK, PRB 81, 115126


--------------------------------------------------------------------------------------------------------




--------------------------------------- Iteration      1(  13)  ---------------------------------------


    POTLOK:  cpu time      0.0414: real time      0.0574
    SETDIJ:  cpu time      0.9207: real time      0.9229
     EDDAV:  cpu time    306.7625: real time    307.4874
 BZINTS: Fermi energy:    4.241227;   72.000000 electrons
         Band energy:-0.290900E+03;  BLOECHL correction:    0.000000
       DOS:  cpu time      0.0059: real time      0.0061
    CHARGE:  cpu time      0.1407: real time      0.1411
    MIXING:  cpu time      0.0003: real time      0.0003
    --------------------------------------------
      LOOP:  cpu time    307.8715: real time    308.6150

 eigenvalue-minimisations  :  3672
 total energy-change (2. order) :-0.4026372E-03  (-0.7123942E-04)
 number of electron      71.9999992 magnetization      -0.0483729
 augmentation part       26.6774795 magnetization      -0.0484547

 Free energy of the ion-electron system (eV)
  ---------------------------------------------------
  alpha Z        PSCENC =       202.50320330
  Ewald energy   TEWEN  =     -5034.42253749
  -Hartree energ DENC   =     -2412.46214617
  -exchange      EXHF   =       172.49901195
  -V(xc)+E(xc)   XCENC  =       193.57334118
  PAW double counting   =      9359.19766772    -9745.71229127
  entropy T*S    EENTRO =         0.00000000
  eigenvalues    EBANDS =      -290.89978775
  atomic energy  EATOM  =      7517.07041424
  Solvation  Ediel_sol  =         0.00000000
  ---------------------------------------------------
  free energy    TOTEN  =       -38.65312429 eV

  energy without entropy =      -38.65312429  energy(sigma->0) =      -38.65312429
  exchange ACFDT corr.  =         0.00000000  see jH, gK, PRB 81, 115126


--------------------------------------------------------------------------------------------------------




--------------------------------------- Iteration      1(  14)  ---------------------------------------


    POTLOK:  cpu time      0.0408: real time      0.0593
    SETDIJ:  cpu time      0.9199: real time      0.9221
     EDDAV:  cpu time    306.0048: real time    306.7301
 BZINTS: Fermi energy:    4.246334;   72.000000 electrons
         Band energy:-0.290844E+03;  BLOECHL correction:    0.000000
       DOS:  cpu time      0.0060: real time      0.0060
    CHARGE:  cpu time      0.1406: real time      0.1409
    MIXING:  cpu time      0.0002: real time      0.0002
    --------------------------------------------
      LOOP:  cpu time    307.1123: real time    307.8586

 eigenvalue-minimisations  :  3564
 total energy-change (2. order) :-0.1808242E-03  (-0.2478167E-04)
 number of electron      71.9999992 magnetization       0.0290238
 augmentation part       26.6774635 magnetization       0.0292045

 Free energy of the ion-electron system (eV)
  ---------------------------------------------------
  alpha Z        PSCENC =       202.50320330
  Ewald energy   TEWEN  =     -5034.42253749
  -Hartree energ DENC   =     -2412.40702532
  -exchange      EXHF   =       172.49915310
  -V(xc)+E(xc)   XCENC  =       193.57483351
  PAW double counting   =      9374.35681010    -9760.98457016
  entropy T*S    EENTRO =         0.00000000
  eigenvalues    EBANDS =      -290.84358640
  atomic energy  EATOM  =      7517.07041424
  Solvation  Ediel_sol  =         0.00000000
  ---------------------------------------------------
  free energy    TOTEN  =       -38.65330511 eV

  energy without entropy =      -38.65330511  energy(sigma->0) =      -38.65330511
  exchange ACFDT corr.  =         0.00000000  see jH, gK, PRB 81, 115126


--------------------------------------------------------------------------------------------------------




--------------------------------------- Iteration      1(  15)  ---------------------------------------


    POTLOK:  cpu time      0.0707: real time      0.0895
    SETDIJ:  cpu time      0.9278: real time      0.9300
     EDDAV:  cpu time    305.8542: real time    306.5782
 BZINTS: Fermi energy:    4.243656;   72.000000 electrons
         Band energy:-0.290783E+03;  BLOECHL correction:    0.000000
       DOS:  cpu time      0.0059: real time      0.0061
    CHARGE:  cpu time      0.1610: real time      0.1614
    MIXING:  cpu time      0.0004: real time      0.0004
    --------------------------------------------
      LOOP:  cpu time    307.0199: real time    307.7656

 eigenvalue-minimisations  :  3360
 total energy-change (2. order) :-0.8380938E-04  (-0.9269825E-05)
 number of electron      71.9999992 magnetization      -0.0174143
 augmentation part       26.6771836 magnetization      -0.0174717

 Free energy of the ion-electron system (eV)
  ---------------------------------------------------
  alpha Z        PSCENC =       202.50320330
  Ewald energy   TEWEN  =     -5034.42253749
  -Hartree energ DENC   =     -2412.39295755
  -exchange      EXHF   =       172.49815276
  -V(xc)+E(xc)   XCENC  =       193.57589911
  PAW double counting   =      9382.12660695    -9768.82892060
  entropy T*S    EENTRO =         0.00000000
  eigenvalues    EBANDS =      -290.78324965
  atomic energy  EATOM  =      7517.07041424
  Solvation  Ediel_sol  =         0.00000000
  ---------------------------------------------------
  free energy    TOTEN  =       -38.65338892 eV

  energy without entropy =      -38.65338892  energy(sigma->0) =      -38.65338892
  exchange ACFDT corr.  =         0.00000000  see jH, gK, PRB 81, 115126


--------------------------------------------------------------------------------------------------------




--------------------------------------- Iteration      1(  16)  ---------------------------------------


    POTLOK:  cpu time      0.0654: real time      0.0665
    SETDIJ:  cpu time      0.9525: real time      0.9547
     EDDAV:  cpu time    306.5984: real time    307.3264
 BZINTS: Fermi energy:    4.245585;   72.000000 electrons
         Band energy:-0.290749E+03;  BLOECHL correction:    0.000000
       DOS:  cpu time      0.0085: real time      0.0085
    CHARGE:  cpu time      0.1500: real time      0.1504
    MIXING:  cpu time      0.0017: real time      0.0017
    --------------------------------------------
      LOOP:  cpu time    307.7765: real time    308.5083

 eigenvalue-minimisations  :  3060
 total energy-change (2. order) :-0.3776933E-04  (-0.3181199E-05)
 number of electron      71.9999992 magnetization       0.0104486
 augmentation part       26.6769753 magnetization       0.0105442

 Free energy of the ion-electron system (eV)
  ---------------------------------------------------
  alpha Z        PSCENC =       202.50320330
  Ewald energy   TEWEN  =     -5034.42253749
  -Hartree energ DENC   =     -2412.38234604
  -exchange      EXHF   =       172.49658254
  -V(xc)+E(xc)   XCENC  =       193.57622526
  PAW double counting   =      9386.18643522    -9772.93191220
  entropy T*S    EENTRO =         0.00000000
  eigenvalues    EBANDS =      -290.74949152
  atomic energy  EATOM  =      7517.07041424
  Solvation  Ediel_sol  =         0.00000000
  ---------------------------------------------------
  free energy    TOTEN  =       -38.65342669 eV

  energy without entropy =      -38.65342669  energy(sigma->0) =      -38.65342669
  exchange ACFDT corr.  =         0.00000000  see jH, gK, PRB 81, 115126


--------------------------------------------------------------------------------------------------------




--------------------------------------- Iteration      1(  17)  ---------------------------------------


    POTLOK:  cpu time      0.0782: real time      0.0793
    SETDIJ:  cpu time      0.9231: real time      0.9253
     EDDAV:  cpu time    306.3138: real time    309.5911
 BZINTS: Fermi energy:    4.244559;   72.000000 electrons
         Band energy:-0.290732E+03;  BLOECHL correction:    0.000000
       DOS:  cpu time      0.0080: real time      0.0244
    CHARGE:  cpu time      0.1925: real time      0.3522
    MIXING:  cpu time      0.0003: real time      0.0003
    --------------------------------------------
      LOOP:  cpu time    307.5164: real time    310.9733

 eigenvalue-minimisations  :  2496
 total energy-change (2. order) :-0.1722877E-04  (-0.1130767E-05)
 number of electron      71.9999992 magnetization      -0.0062691
 augmentation part       26.6770259 magnetization      -0.0063066

 Free energy of the ion-electron system (eV)
  ---------------------------------------------------
  alpha Z        PSCENC =       202.50320330
  Ewald energy   TEWEN  =     -5034.42253749
  -Hartree energ DENC   =     -2412.37543903
  -exchange      EXHF   =       172.49609467
  -V(xc)+E(xc)   XCENC  =       193.57630965
  PAW double counting   =      9388.17580131    -9774.94575230
  entropy T*S    EENTRO =         0.00000000
  eigenvalues    EBANDS =      -290.73153826
  atomic energy  EATOM  =      7517.07041424
  Solvation  Ediel_sol  =         0.00000000
  ---------------------------------------------------
  free energy    TOTEN  =       -38.65344392 eV

  energy without entropy =      -38.65344392  energy(sigma->0) =      -38.65344392
  exchange ACFDT corr.  =         0.00000000  see jH, gK, PRB 81, 115126


--------------------------------------------------------------------------------------------------------




[...]
     20      -0.2817      1.00000
     21      -0.0607      1.00000
     22       0.0526      1.00000
     23       0.0944      1.00000
     24       0.4364      1.00000
     25       0.6893      1.00000
     26       0.7154      1.00000
     27       1.6612      1.00000
     28       1.6995      1.00000
     29       1.8051      1.00000
     30       1.9530      1.00000
     31       2.2695      1.00000
     32       2.4367      1.00000
     33       2.6938      1.00000
     34       2.9307      1.00000
     35       3.0683      1.00000
     36       3.7419      1.00000
     37       6.7171      0.00000
     38       7.7013      0.00000
     39       7.9673      0.00000
     40       8.5160      0.00000
     41       9.0923      0.00000
     42       9.7734      0.00000
     43      10.3531      0.00000
     44      10.6624      0.00000
     45      11.2176      0.00000
     46      11.6128      0.00000
     47      11.9103      0.00000
     48      13.6696      0.00000

 k-point    13 :      -0.2500   -0.2500    0.2500
  band No.  band energies     occupation 
      1     -19.9555      1.00000
      2     -19.9513      1.00000
      3     -19.9513      1.00000
      4     -19.8630      1.00000
      5     -19.8583      1.00000
      6     -11.3596      1.00000
      7     -10.1818      1.00000
      8      -9.8869      1.00000
      9      -9.8869      1.00000
     10      -4.7548      1.00000
     11      -4.4146      1.00000
     12      -4.4084      1.00000
     13      -4.4084      1.00000
     14      -4.3535      1.00000
     15      -3.7531      1.00000
     16      -1.9409      1.00000
     17      -1.1556      1.00000
     18      -0.6464      1.00000
     19      -0.2854      1.00000
     20      -0.2684      1.00000
     21      -0.2684      1.00000
     22       0.0940      1.00000
     23       0.0940      1.00000
     24       0.4696      1.00000
     25       0.5561      1.00000
     26       0.5561      1.00000
     27       1.4502      1.00000
     28       1.6668      1.00000
     29       1.8536      1.00000
     30       1.9007      1.00000
     31       2.3179      1.00000
     32       2.4071      1.00000
     33       2.4071      1.00000
     34       3.4196      1.00000
     35       3.7484      1.00000
     36       3.7484      1.00000
     37       6.3576      0.00000
     38       7.4175      0.00000
     39       8.0508      0.00000
     40       8.0508      0.00000
     41       8.4390      0.00000
     42       9.4215      0.00000
     43      10.0253      0.00000
     44      10.3571      0.00000
     45      11.2032      0.00000
     46      11.2032      0.00000
     47      13.9356      0.00000
     48      14.1690      0.00000

 k-point    14 :       0.5000    0.5000    0.5000
  band No.  band energies     occupation 
      1     -19.9556      1.00000
      2     -19.9512      1.00000
      3     -19.9512      1.00000
      4     -19.8630      1.00000
      5     -19.8583      1.00000
      6     -10.9996      1.00000
      7     -10.6383      1.00000
      8      -9.8945      1.00000
      9      -9.8945      1.00000
     10      -4.8555      1.00000
     11      -4.4368      1.00000
     12      -4.4233      1.00000
     13      -4.4233      1.00000
     14      -4.3491      1.00000
     15      -3.5816      1.00000
     16      -2.0885      1.00000
     17      -0.7082      1.00000
     18      -0.6870      1.00000
     19      -0.1771      1.00000
     20      -0.1771      1.00000
     21      -0.1656      1.00000
     22       0.0850      1.00000
     23       0.0850      1.00000
     24       0.6541      1.00000
     25       0.6733      1.00000
     26       0.6733      1.00000
     27       1.4628      1.00000
     28       1.6643      1.00000
     29       1.7465      1.00000
     30       1.7807      1.00000
     31       2.6510      1.00000
     32       2.7749      1.00000
     33       2.8714      1.00000
     34       2.8714      1.00000
     35       3.1469      1.00000
     36       3.1469      1.00000
     37       6.5678      0.00000
     38       7.2304      0.00000
     39       7.2304      0.00000
     40       7.6600      0.00000
     41       8.7175      0.00000
     42       8.8881      0.00000
     43       9.8262      0.00000
     44       9.8863      0.00000
     45      12.2534      0.00000
     46      12.2534      0.00000
     47      12.9452      0.00000
     48      13.4988      0.00000


--------------------------------------------------------------------------------------------------------


 soft charge-density along one line, spin component           1
         0         1         2         3         4         5         6         7         8         9
 total charge-density along one line
 
 soft charge-density along one line, spin component           2
         0         1         2         3         4         5         6         7         8         9
 total charge-density along one line
 
 pseudopotential strength for first ion, spin component:           1
 -4.952  -0.003  -0.001  -0.002   0.001  -5.603  -0.003  -0.001
 -0.003  -4.948  -0.002   0.002   0.002  -0.003  -5.600  -0.002
 -0.001  -0.002  -4.948  -0.001   0.000  -0.001  -0.002  -5.599
 -0.002   0.002  -0.001  -4.948  -0.001  -0.002   0.001  -0.001
  0.001   0.002   0.000  -0.001  -4.952   0.001   0.002   0.000
 -5.603  -0.003  -0.001  -0.002   0.001  -6.162  -0.002  -0.001
 -0.003  -5.600  -0.002   0.001   0.002  -0.002  -6.159  -0.002
 -0.001  -0.002  -5.599  -0.001   0.000  -0.001  -0.002  -6.158
 -0.002   0.001  -0.001  -5.600  -0.001  -0.002   0.001  -0.001
  0.001   0.002   0.000  -0.001  -5.603   0.001   0.002   0.000
 -0.000   0.000  -0.000   0.000   0.000  -0.000   0.000  -0.000
 -0.000   0.000  -0.000   0.000   0.000  -0.000   0.000  -0.000
  0.005   0.002  -0.002  -0.003   0.001   0.004   0.002  -0.002
 -0.003  -0.003  -0.004  -0.002   0.000  -0.002  -0.002  -0.004
  0.003  -0.003  -0.002   0.003  -0.003   0.002  -0.002  -0.002
  0.007   0.003  -0.004  -0.004   0.002   0.006   0.003  -0.003
 -0.004  -0.004  -0.007  -0.004   0.001  -0.003  -0.004  -0.006
  0.004  -0.004  -0.003   0.005  -0.005   0.004  -0.003  -0.003
 pseudopotential strength for first ion, spin component:           2
 -4.952  -0.003  -0.001  -0.002   0.001  -5.603  -0.003  -0.001
 -0.003  -4.948  -0.002   0.002   0.002  -0.003  -5.600  -0.002
 -0.001  -0.002  -4.948  -0.001   0.000  -0.001  -0.002  -5.599
 -0.002   0.002  -0.001  -4.948  -0.001  -0.002   0.001  -0.001
  0.001   0.002   0.000  -0.001  -4.952   0.001   0.002   0.000
 -5.603  -0.003  -0.001  -0.002   0.001  -6.162  -0.002  -0.001
 -0.003  -5.600  -0.002   0.001   0.002  -0.002  -6.159  -0.002
 -0.001  -0.002  -5.599  -0.001   0.000  -0.001  -0.002  -6.158
 -0.002   0.001  -0.001  -5.600  -0.001  -0.002   0.001  -0.001
  0.001   0.002   0.000  -0.001  -5.603   0.001   0.002   0.000
 -0.000   0.000  -0.000   0.000   0.000  -0.000   0.000  -0.000
 -0.000   0.000  -0.000   0.000   0.000  -0.000   0.000  -0.000
  0.005   0.002  -0.002  -0.003   0.001   0.004   0.002  -0.002
 -0.003  -0.003  -0.004  -0.002   0.001  -0.002  -0.002  -0.004
  0.003  -0.003  -0.002   0.003  -0.003   0.002  -0.002  -0.002
  0.007   0.003  -0.004  -0.004   0.002   0.006   0.003  -0.003
 -0.004  -0.004  -0.007  -0.004   0.001  -0.003  -0.004  -0.006
  0.004  -0.004  -0.003   0.005  -0.005   0.004  -0.003  -0.003
 total augmentation occupancy for first ion, spin component:           1
  4.249   0.404  -0.192   0.139  -0.195  -2.144  -0.406   0.191  -0.134   0.202   0.019  -0.007  -0.540   0.287  -0.318   0.100
  0.404   3.507   0.499  -0.220   0.431  -0.406  -1.415  -0.498   0.223  -0.414  -0.043   0.016  -0.238   0.347   0.294   0.042
 -0.192   0.499   3.960   0.412   0.044   0.191  -0.498  -1.858  -0.407  -0.040   0.034  -0.013   0.299   0.523   0.223  -0.057
  0.139  -0.220   0.412   3.608  -0.644  -0.134   0.223  -0.407  -1.508   0.635  -0.035   0.013   0.301   0.247  -0.366  -0.054
 -0.195   0.431   0.044  -0.644   3.264   0.202  -0.414  -0.040   0.635  -1.186  -0.004   0.001  -0.144  -0.079   0.422   0.023
 -2.144  -0.406   0.191  -0.134   0.202   2.035   0.407  -0.189   0.129  -0.209  -0.020   0.008   0.530  -0.282   0.311  -0.112
 -0.406  -1.415  -0.498   0.223  -0.414   0.407   1.320   0.497  -0.226   0.399   0.044  -0.017   0.232  -0.341  -0.288  -0.047
  0.191  -0.498  -1.858  -0.407  -0.040  -0.189   0.497   1.752   0.403   0.035  -0.035   0.013  -0.294  -0.512  -0.217   0.063
 -0.134   0.223  -0.407  -1.508   0.635   0.129  -0.226   0.403   1.405  -0.625   0.036  -0.014  -0.294  -0.241   0.359   0.061
  0.202  -0.414  -0.040   0.635  -1.186  -0.209   0.399   0.035  -0.625   1.104   0.004  -0.002   0.140   0.077  -0.414  -0.026
  0.019  -0.043   0.034  -0.035  -0.004  -0.020   0.044  -0.035   0.036   0.004   3.260  -0.983  -0.000  -0.000   0.000   0.000
 -0.007   0.016  -0.013   0.013   0.001   0.008  -0.017   0.013  -0.014  -0.002  -0.983   0.314   0.000   0.000  -0.000  -0.000
 -0.540  -0.238   0.299   0.301  -0.144   0.530   0.232  -0.294  -0.294   0.140  -0.000   0.000   0.402   0.004  -0.002  -0.086
  0.287   0.347   0.523   0.247  -0.079  -0.282  -0.341  -0.512  -0.241   0.077  -0.000   0.000   0.004   0.396   0.003  -0.001
 -0.318   0.294   0.223  -0.366   0.422   0.311  -0.288  -0.217   0.359  -0.414   0.000  -0.000  -0.002   0.003   0.402   0.001
  0.100   0.042  -0.057  -0.054   0.023  -0.112  -0.047   0.063   0.061  -0.026   0.000  -0.000  -0.086  -0.001   0.001   0.020
 -0.053  -0.066  -0.096  -0.042   0.015   0.059   0.074   0.107   0.048  -0.017   0.000  -0.000  -0.001  -0.084  -0.001   0.000
  0.056  -0.053  -0.038   0.068  -0.079  -0.063   0.060   0.043  -0.077   0.088  -0.000   0.000   0.001  -0.001  -0.086  -0.000
 total augmentation occupancy for first ion, spin component:           2
 -0.000  -0.000   0.000  -0.000  -0.000   0.000   0.000  -0.000   0.000   0.000  -0.000  -0.000   0.000  -0.000   0.000  -0.000
 -0.000  -0.000  -0.000   0.000  -0.000   0.000   0.000   0.000  -0.000   0.000   0.000   0.000   0.000  -0.000  -0.000  -0.000
  0.000  -0.000  -0.000  -0.000  -0.000  -0.000   0.000   0.000   0.000   0.000  -0.000  -0.000  -0.000  -0.000  -0.000   0.000
 -0.000   0.000  -0.000  -0.000   0.000   0.000  -0.000   0.000   0.000  -0.000   0.000   0.000  -0.000  -0.000   0.000   0.000
 -0.000  -0.000  -0.000   0.000  -0.000   0.000   0.000   0.000  -0.000   0.000   0.000   0.000   0.000   0.000  -0.000   0.000
  0.000   0.000  -0.000   0.000   0.000  -0.000  -0.000   0.000  -0.000  -0.000   0.000  -0.000  -0.000   0.000  -0.000  -0.000
  0.000   0.000   0.000  -0.000   0.000  -0.000  -0.000  -0.000   0.000  -0.000  -0.000   0.000  -0.000   0.000   0.000  -0.000
 -0.000   0.000   0.000   0.000   0.000   0.000  -0.000  -0.000  -0.000  -0.000   0.000  -0.000   0.000   0.000   0.000   0.000
  0.000  -0.000   0.000   0.000  -0.000  -0.000   0.000  -0.000  -0.000   0.000  -0.000   0.000   0.000   0.000  -0.000   0.000
  0.000   0.000   0.000  -0.000   0.000  -0.000  -0.000  -0.000   0.000  -0.000  -0.000   0.000  -0.000   0.000   0.000  -0.000
 -0.000   0.000  -0.000   0.000   0.000   0.000  -0.000   0.000  -0.000  -0.000   0.000  -0.000   0.000  -0.000  -0.000  -0.000
 -0.000   0.000  -0.000   0.000   0.000  -0.000   0.000  -0.000   0.000   0.000  -0.000   0.000  -0.000  -0.000   0.000   0.000
  0.000   0.000  -0.000  -0.000   0.000  -0.000  -0.000   0.000   0.000  -0.000   0.000  -0.000   0.000   0.000  -0.000  -0.000
 -0.000  -0.000  -0.000  -0.000   0.000   0.000   0.000   0.000   0.000   0.000  -0.000  -0.000   0.000   0.000   0.000  -0.000
  0.000  -0.000  -0.000   0.000  -0.000  -0.000   0.000   0.000  -0.000   0.000  -0.000   0.000  -0.000   0.000   0.000  -0.000
 -0.000  -0.000   0.000   0.000   0.000  -0.000  -0.000   0.000   0.000  -0.000  -0.000   0.000  -0.000  -0.000  -0.000   0.000
 -0.000   0.000   0.000  -0.000  -0.000   0.000   0.000   0.000   0.000  -0.000  -0.000   0.000  -0.000  -0.000  -0.000   0.000
 -0.000   0.000   0.000  -0.000   0.000  -0.000   0.000   0.000  -0.000   0.000  -0.000   0.000   0.000  -0.000  -0.000  -0.000


------------------------ aborting loop because EDIFF is reached ----------------------------------------





 total charge

# of ion       s       p       d       tot
------------------------------------------
    1        0.493   0.469   9.837  10.800
    2        0.347   0.369   9.365  10.080
    3        0.348   0.371   9.365  10.083
    4        1.087   1.120  10.113  12.320
    5        1.319   2.413   0.000   3.732
    6        1.319   2.413   0.000   3.732
    7        1.319   2.413   0.000   3.732
    8        1.319   2.413   0.000   3.732
--------------------------------------------------
tot          7.551  11.979  38.680  58.210



 magnetization (x)

# of ion       s       p       d       tot
------------------------------------------
    1        0.000   0.000   0.000   0.000
    2        0.000   0.000   0.000   0.000
    3        0.000   0.000   0.000   0.000
    4        0.000  -0.000   0.000   0.000
    5        0.000   0.000   0.000   0.000
    6        0.000   0.000   0.000   0.000
    7        0.000   0.000   0.000   0.000
    8        0.000   0.000   0.000   0.000
--------------------------------------------------
tot          0.000   0.000   0.000   0.000
 
    CHARGE:  cpu time      0.1375: real time      0.1379
    FORLOC:  cpu time      0.0014: real time      0.0017
    FORHF :  cpu time    261.0566: real time    261.7543
    FORNL :  cpu time      0.0556: real time      0.0562
    FORCOR:  cpu time      0.9664: real time      0.9692
    FORHAR:  cpu time      0.0064: real time      0.0067
    MIXING:  cpu time      0.0007: real time      0.0007
    OFIELD:  cpu time      0.0010: real time      0.0014

 VOLUME and BASIS-vectors are now :
 -----------------------------------------------------------------------------
  energy-cutoff  :      680.00
  volume of cell :      158.39
      direct lattice vectors                 reciprocal lattice vectors
     4.939011845  0.000000000 -4.418482186     0.202469650  0.041317308  0.000000000
    -0.987535372  4.839278034 -4.418482186     0.000000000  0.206642394  0.000000000
     0.000000000  0.000000000  6.626976900     0.134994969  0.165325086  0.150898368

  length of vectors
     6.626976900  6.626976900  6.626976900     0.206642394  0.206642394  0.261393082


 FORCES acting on ions
    electron-ion (+dipol)            ewald-force                    non-local-force                 convergence-correction
 -----------------------------------------------------------------------------------------------
   0.958E-04 -.612E-04 -.985E-05   -.513E-03 0.718E-03 0.656E-03   0.177E-18 0.599E-18 0.287E-18   -.579E-05 -.122E-04 -.465E-05
   0.842E-04 0.520E-04 0.915E-04   -.740E-03 0.279E-03 -.712E-03   0.270E-17 -.380E-17 0.333E-17   -.976E-05 0.172E-04 -.105E-04
   -.648E-04 0.863E-04 0.327E-04   0.128E-03 -.421E-03 -.692E-03   -.195E-17 -.146E-18 -.309E-17   0.414E-05 -.219E-04 0.321E-04
   -.662E-04 -.541E-04 -.878E-04   0.453E-03 -.413E-04 0.719E-03   0.924E-18 0.140E-16 0.576E-17   -.262E-04 -.602E-06 -.274E-04
   0.629E+01 0.198E+01 0.692E+01   -.777E+01 -.255E+01 -.951E+01   0.151E+01 0.594E+00 0.265E+01   -.265E-03 -.449E-04 -.656E-04
   -.809E+01 -.419E+01 -.289E+01   0.105E+02 0.594E+01 0.332E+01   -.249E+01 -.180E+01 -.451E+00   0.212E-03 -.241E-05 0.168E-03
   0.562E+01 -.656E+01 -.410E+01   -.772E+01 0.812E+01 0.564E+01   0.216E+01 -.160E+01 -.156E+01   -.528E-04 0.252E-03 0.464E-04
   -.381E+01 0.877E+01 0.727E-01   0.495E+01 -.115E+02 0.549E+00   -.118E+01 0.280E+01 -.640E+00   0.106E-03 -.211E-03 -.136E-03
 -----------------------------------------------------------------------------------------------
   0.210E-02 -.193E-02 -.242E-03   -.133E-13 -.533E-14 -.188E-13   -.666E-15 0.444E-15 -.111E-15   -.369E-04 -.241E-04 0.138E-05
 
 
 POSITION                                       TOTAL-FORCE (eV/Angst)
 -----------------------------------------------------------------------------------
      3.45738      1.20982     -1.10499        -0.000000      0.000000     -0.000000
      0.00000      0.00000      0.00000        -0.000000     -0.000000     -0.000000
      0.49410      3.62946     -1.10499         0.000000      0.000000     -0.000000
      1.97574      2.41964     -4.41848         0.000000      0.000000     -0.000000
      1.43280      1.79654     -0.08518         0.210298      0.090527      0.350034
      3.53810      4.29122     -4.40464        -0.333383     -0.241266     -0.074770
     -0.06839      3.07620     -3.26331         0.291981     -0.224152     -0.198614
      3.00044      0.51461      3.33314        -0.168895      0.374891     -0.076650
 -----------------------------------------------------------------------------------
    total drift:                                0.002064     -0.001950     -0.000241


--------------------------------------------------------------------------------------------------------



  FREE ENERGIE OF THE ION-ELECTRON SYSTEM (eV)
  ---------------------------------------------------
  free  energy   TOTEN  =       -38.65345195 eV

  energy  without entropy=      -38.65345195  energy(sigma->0) =      -38.65345195
 


--------------------------------------------------------------------------------------------------------


    POTLOK:  cpu time      0.9743: real time      0.9767


--------------------------------------------------------------------------------------------------------


     LOOP+:  cpu time   4564.0448: real time   4579.7630
    4ORBIT:  cpu time      0.0000: real time      0.0000



 total charge

# of ion       s       p       d       tot
------------------------------------------
    1        0.493   0.469   9.837  10.800
    2        0.347   0.369   9.365  10.080
    3        0.348   0.371   9.365  10.083
    4        1.087   1.120  10.113  12.320
    5        1.319   2.413   0.000   3.732
    6        1.319   2.413   0.000   3.732
    7        1.319   2.413   0.000   3.732
    8        1.319   2.413   0.000   3.732
--------------------------------------------------
tot          7.551  11.979  38.680  58.210



 magnetization (x)

# of ion       s       p       d       tot
------------------------------------------
    1        0.000   0.000   0.000   0.000
    2        0.000   0.000   0.000   0.000
    3        0.000   0.000   0.000   0.000
    4        0.000  -0.000   0.000   0.000
    5        0.000   0.000   0.000   0.000
    6        0.000   0.000   0.000   0.000
    7        0.000   0.000   0.000   0.000
    8        0.000   0.000   0.000   0.000
--------------------------------------------------
tot          0.000   0.000   0.000   0.000
 
 BZINTS: Fermi energy:    4.245171;   72.000000 electrons
         Band energy:-0.290714E+03;  BLOECHL correction:    0.000000

 total amount of memory used by VASP MPI-rank0    59630. kBytes
=======================================================================

   base      :      30000. kBytes
   nonl-proj :       2949. kBytes
   fftplans  :       1032. kBytes
   grid      :       1980. kBytes
   one-center:         31. kBytes
   HF        :         64. kBytes
   nonlr-proj:       7189. kBytes
   wavefun   :       1354. kBytes
   fock_wrk  :      15031. kBytes
 
  
  
 General timing and accounting informations for this job:
 ========================================================
  
                  Total CPU time used (sec):     4583.033
                            User time (sec):     4578.072
                          System time (sec):        4.961
                         Elapsed time (sec):     4599.838
  
                   Maximum memory used (kb):      375524.
                   Average memory used (kb):          N/A
  
                          Minor page faults:       248385
                          Major page faults:            0
                 Voluntary context switches:        46442
