<?xml version="1.0" encoding="ISO-8859-1"?>
<modeling>
 <generator>
  <i name="program" type="string">vasp </i>
  <i name="version" type="string">6.4.2  </i>
  <i name="subversion" type="string">20Jul23 (build Mar 15 2024 16:31:38) complex                          parallel </i>
  <i name="platform" type="string">LinuxIFC </i>
  <i name="date" type="string">2025 03 27 </i>
  <i name="time" type="string">12:24:07 </i>
 </generator>
 <incar>
  <i type="string" name="PREC">Accurate</i>
  <i type="string" name="ALGO">Normal</i>
  <i type="int" name="ISPIN">     2</i>
  <i type="int" name="NELM">   200</i>
  <i name="EDIFF">      0.00001000</i>
  <i type="int" name="NSW">     0</i>
  <i name="ENCUT">    680.00000000</i>
  <i name="ENAUG">   1360.00000000</i>
  <v name="MAGMOM">      0.60000000      0.60000000      0.60000000      0.60000000      0.60000000      0.60000000      0.60000000      0.60000000</v>
  <i type="logical" name="LREAL"> F  </i>
  <i type="int" name="ISMEAR">    -5</i>
  <i name="SIGMA">      0.20000000</i>
  <i type="int" name="LMAXMIX">     4</i>
  <i type="logical" name="LWAVE"> F  </i>
  <i type="logical" name="LCHARG"> T  </i>
  <i type="logical" name="LVTOT"> T  </i>
  <i type="int" name="LORBIT">    11</i>
  <i type="logical" name="LELF"> F  </i>
  <i type="logical" name="LASPH"> T  </i>
  <i type="logical" name="LAECHG"> T  </i>
  <i name="HFSCREEN">      0.20000000</i>
  <i type="logical" name="LHFCALC"> T  </i>
  <i type="string" name="GGA">Pe</i>
  <i type="string" name="PRECFOCK">Accurate</i>
  <i type="logical" name="LDAU"> F  </i>
  <i type="logical" name="LMIXTAU"> T  </i>
 </incar>
 <primitive_cell>
  <structure name="primitive_cell" >
   <crystal>
    <varray name="basis" >
     <v>       4.93901185       0.00000000      -4.41848219 </v>
     <v>      -0.98753537       4.83927803      -4.41848219 </v>
     <v>       0.00000000       0.00000000       6.62697690 </v>
    </varray>
    <i name="volume">    158.39304179 </i>
    <varray name="rec_basis" >
     <v>       0.20246965       0.04131731       0.00000000 </v>
     <v>       0.00000000       0.20664239       0.00000000 </v>
     <v>       0.13499497       0.16532509       0.15089837 </v>
    </varray>
   </crystal>
   <varray name="positions" >
    <v>       0.75000000       0.25000000       0.50000000 </v>
    <v>       0.00000000       0.00000000       0.00000000 </v>
    <v>       0.25000000       0.75000000       0.50000000 </v>
    <v>       0.50000000       0.50000000       0.00000000 </v>
    <v>       0.36432714       0.37124032       0.47758056 </v>
    <v>       0.89365977       0.88674759       0.52241944 </v>
    <v>       0.11325241       0.63567286       0.00691218 </v>
    <v>       0.62875968       0.10634023       0.99308782 </v>
   </varray>
  </structure>
  <varray name="primitive_index" >
   <v type="int" >        1 </v>
   <v type="int" >        2 </v>
   <v type="int" >        3 </v>
   <v type="int" >        4 </v>
   <v type="int" >        5 </v>
   <v type="int" >        6 </v>
   <v type="int" >        7 </v>
   <v type="int" >        8 </v>
  </varray>
 </primitive_cell>
 <kpoints>
  <generation param="Gamma">
   <v type="int" name="divisions">       4        4        4 </v>
   <v name="usershift">      0.00000000       0.00000000       0.00000000 </v>
   <v name="genvec1">      0.25000000      -0.00000000       0.00000000 </v>
   <v name="genvec2">      0.00000000       0.25000000       0.00000000 </v>
   <v name="genvec3">      0.00000000       0.00000000       0.25000000 </v>
   <v name="shift">      0.00000000       0.00000000       0.00000000 </v>
  </generation>
  <varray name="kpointlist" >
   <v>       0.00000000       0.00000000       0.00000000 </v>
   <v>       0.25000000       0.00000000       0.00000000 </v>
   <v>       0.50000000       0.00000000       0.00000000 </v>
   <v>       0.25000000       0.25000000       0.00000000 </v>
   <v>       0.50000000       0.25000000       0.00000000 </v>
   <v>       0.50000000      -0.25000000      -0.25000000 </v>
   <v>      -0.25000000       0.25000000       0.00000000 </v>
   <v>       0.50000000       0.50000000       0.00000000 </v>
   <v>       0.25000000       0.25000000       0.25000000 </v>
   <v>      -0.25000000       0.25000000       0.25000000 </v>
   <v>       0.50000000       0.50000000       0.25000000 </v>
   <v>      -0.25000000       0.50000000       0.25000000 </v>
   <v>      -0.25000000      -0.25000000       0.25000000 </v>
   <v>       0.50000000       0.50000000       0.50000000 </v>
  </varray>
  <varray name="weights" >
   <v>       0.01562500 </v>
   <v>       0.12500000 </v>
   <v>       0.06250000 </v>
   <v>       0.12500000 </v>
   <v>       0.12500000 </v>
   <v>       0.12500000 </v>
   <v>       0.06250000 </v>
   <v>       0.03125000 </v>
   <v>       0.03125000 </v>
   <v>       0.06250000 </v>
   <v>       0.06250000 </v>
   <v>       0.12500000 </v>
   <v>       0.03125000 </v>
   <v>       0.01562500 </v>
  </varray>
  <varray name="tetrahedronlist"  type="int" >
   <v type="int" >        2        4        6        9       11 </v>
   <v type="int" >        2        4        5        9       11 </v>
   <v type="int" >        4        4        5       11       12 </v>
   <v type="int" >        4        4        6       11       12 </v>
   <v type="int" >        4        4       11       12       14 </v>
   <v type="int" >        2        6       10       12       12 </v>
   <v type="int" >        2        6       11       12       12 </v>
   <v type="int" >        4       11       12       12       14 </v>
   <v type="int" >        4       10       11       12       12 </v>
   <v type="int" >        4       11       12       12       12 </v>
   <v type="int" >        4       12       12       12       14 </v>
   <v type="int" >        2        4        5       10       11 </v>
   <v type="int" >        4        4       10       11       12 </v>
   <v type="int" >        4        4       11       12       12 </v>
   <v type="int" >        4        4        5        6       11 </v>
   <v type="int" >        2        3        4        6       11 </v>
   <v type="int" >        4        3        4       11       12 </v>
   <v type="int" >        4        5        5        6        9 </v>
   <v type="int" >        4        4        5        5        6 </v>
   <v type="int" >        8        3        4        5        6 </v>
   <v type="int" >        8        4        5        6        9 </v>
   <v type="int" >        4        4        5        6       12 </v>
   <v type="int" >        4        3        5        6       12 </v>
   <v type="int" >        2        5       11       12       12 </v>
   <v type="int" >        2        5       10       12       12 </v>
   <v type="int" >        4       11       12       13       14 </v>
   <v type="int" >        4       12       12       13       14 </v>
   <v type="int" >        4        4       12       13       14 </v>
   <v type="int" >        4        2        4       12       12 </v>
   <v type="int" >        4        2       12       12       13 </v>
   <v type="int" >        8        2        4       12       13 </v>
   <v type="int" >        8        2        3        4       12 </v>
   <v type="int" >        4        2        3        6       12 </v>
   <v type="int" >        4        2        4        6       12 </v>
   <v type="int" >        4        3        4        5       10 </v>
   <v type="int" >        4        2        3        4       10 </v>
   <v type="int" >        4        2        3        6       10 </v>
   <v type="int" >        4        3        5       10       12 </v>
   <v type="int" >        4        3       10       11       12 </v>
   <v type="int" >        2        3        6       10       11 </v>
   <v type="int" >        2        4        6       10       11 </v>
   <v type="int" >        2        3        4        5       11 </v>
   <v type="int" >        4        2        4        5       12 </v>
   <v type="int" >        4        2        3        5       12 </v>
   <v type="int" >        4        2        4        7       13 </v>
   <v type="int" >        4        2        4        5        7 </v>
   <v type="int" >        4        2        4        6        7 </v>
   <v type="int" >        2        4        6        7        8 </v>
   <v type="int" >        2        4        5        7        8 </v>
   <v type="int" >        2        2        6        6       10 </v>
   <v type="int" >        2        2        6        6        7 </v>
   <v type="int" >        2        6        6        7        8 </v>
   <v type="int" >        2        6        6       10       11 </v>
   <v type="int" >        2        5        6        6       11 </v>
   <v type="int" >        4        5        6        6        8 </v>
   <v type="int" >        4        4        5        6        6 </v>
   <v type="int" >        4        5        6        6        9 </v>
   <v type="int" >        4        3        4        6       10 </v>
   <v type="int" >        4        3        6       10       12 </v>
   <v type="int" >        4        2        3        5       10 </v>
   <v type="int" >        2        3        5       10       11 </v>
   <v type="int" >        2        2        5        5        7 </v>
   <v type="int" >        2        2        5        5       10 </v>
   <v type="int" >        2        5        5       10       11 </v>
   <v type="int" >        2        5        5        7        8 </v>
   <v type="int" >        4        5        5        6        8 </v>
   <v type="int" >        2        5        5        6       11 </v>
   <v type="int" >        2        6        7        8        9 </v>
   <v type="int" >        2        5        7        8        9 </v>
   <v type="int" >        8        5        6        8        9 </v>
   <v type="int" >        4        4        5        8        9 </v>
   <v type="int" >        4        4        6        8        9 </v>
   <v type="int" >        4        4       11       12       13 </v>
   <v type="int" >        2        4        5        8       11 </v>
   <v type="int" >        2        4        6        8       11 </v>
   <v type="int" >        2        5        5       10       12 </v>
   <v type="int" >        2        5        5       11       12 </v>
   <v type="int" >        2        5        5        8       11 </v>
   <v type="int" >        2        5        5        7       10 </v>
   <v type="int" >        2        5        5        6        7 </v>
   <v type="int" >        4        2        4        7       10 </v>
   <v type="int" >        2        4        5        7       10 </v>
   <v type="int" >        4        4        5        6        7 </v>
   <v type="int" >        4        2        2        4        7 </v>
   <v type="int" >        4        2        3        4        7 </v>
   <v type="int" >        2        3        4        6        7 </v>
   <v type="int" >        4        2        2       12       13 </v>
   <v type="int" >        4        2        2        4       12 </v>
   <v type="int" >        2        6        6       11       12 </v>
   <v type="int" >        2        6        6       10       12 </v>
   <v type="int" >        2        6        6        7       10 </v>
   <v type="int" >        2        6        6        8       11 </v>
   <v type="int" >        2        5        6        6        7 </v>
   <v type="int" >        2        5        8        9       11 </v>
   <v type="int" >        2        6        8        9       11 </v>
   <v type="int" >        4        2        3        5        6 </v>
   <v type="int" >        4        2        4        5        6 </v>
   <v type="int" >        4        3        4       10       12 </v>
   <v type="int" >        2        3        6        7       10 </v>
   <v type="int" >        4        2        3        7       10 </v>
   <v type="int" >        2        4        6        7       10 </v>
   <v type="int" >        2        3        4        5        7 </v>
   <v type="int" >        2        4        5        7        9 </v>
   <v type="int" >        2        4        6        7        9 </v>
   <v type="int" >        4        1        2        4        7 </v>
   <v type="int" >        2        2        2        5       10 </v>
   <v type="int" >        2        2        2        5        7 </v>
   <v type="int" >        4        1        2        2        7 </v>
   <v type="int" >        4        2        2        7       10 </v>
   <v type="int" >        4        2        2        2        7 </v>
   <v type="int" >        4        1        2        2        2 </v>
   <v type="int" >        2        3        5        7       10 </v>
   <v type="int" >        2        2        2        6        7 </v>
   <v type="int" >        2        2        2        6       10 </v>
   <v type="int" >        4        1        2        7       13 </v>
   <v type="int" >        4        1        2        2       13 </v>
   <v type="int" >        4        1        2        4       13 </v>
  </varray>
  <i name="volumeweight">      0.00260417 </i>
 </kpoints>
 <parameters>
  <separator name="general" >
   <i type="string" name="SYSTEM">unknown system</i>
   <i type="logical" name="LCOMPAT"> F  </i>
  </separator>
  <separator name="electronic" >
   <i type="string" name="PREC">accura</i>
   <i name="ENMAX">    680.00000000</i>
   <i name="ENAUG">   1360.00000000</i>
   <i name="EDIFF">      0.00001000</i>
   <i type="int" name="IALGO">    38</i>
   <i type="int" name="IWAVPR">    10</i>
   <i type="int" name="NBANDS">    48</i>
   <i type="int" name="NBANDSLOW">    -1</i>
   <i type="int" name="NBANDSHIGH">    -1</i>
   <i name="NELECT">     72.00000000</i>
   <i type="int" name="TURBO">     0</i>
   <i type="int" name="IRESTART">     0</i>
   <i type="int" name="NREBOOT">     0</i>
   <i type="int" name="NMIN">     0</i>
   <i name="EREF">      0.00000000</i>
   <separator name="electronic smearing" >
    <i type="int" name="ISMEAR">    -5</i>
    <i name="SIGMA">      0.20000000</i>
    <i name="KSPACING">      0.50000000</i>
    <i type="logical" name="KGAMMA"> T  </i>
    <i type="logical" name="KBLOWUP"> T  </i>
   </separator>
   <separator name="electronic projectors" >
    <i type="logical" name="LREAL"> F  </i>
    <v name="ROPT">      0.00000000      0.00000000      0.00000000      0.00000000</v>
    <i type="int" name="LMAXPAW">  -100</i>
    <i type="int" name="LMAXMIX">     4</i>
    <i type="logical" name="NLSPLINE"> F  </i>
   </separator>
   <separator name="electronic startup" >
    <i type="int" name="ISTART">     0</i>
    <i type="int" name="ICHARG">     2</i>
    <i type="int" name="INIWAV">     1</i>
   </separator>
   <separator name="electronic spin" >
    <i type="int" name="ISPIN">     2</i>
    <i type="logical" name="LNONCOLLINEAR"> F  </i>
    <v name="MAGMOM">      0.60000000      0.60000000      0.60000000      0.60000000      0.60000000      0.60000000      0.60000000      0.60000000</v>
    <i name="NUPDOWN">     -1.00000000</i>
    <i type="logical" name="LSORBIT"> F  </i>
    <v name="SAXIS">      0.00000000      0.00000000      1.00000000</v>
    <i type="logical" name="LSPIRAL"> F  </i>
    <v name="QSPIRAL">      0.00000000      0.00000000      0.00000000</v>
    <i type="logical" name="LZEROZ"> F  </i>
   </separator>
   <separator name="electronic exchange-correlation" >
    <i type="logical" name="LASPH"> T  </i>
    <i type="logical" name="LMETAGGA"> F  </i>
   </separator>
   <separator name="electronic convergence" >
    <i type="int" name="NELM">   200</i>
    <i type="int" name="NELMDL">    -5</i>
    <i type="int" name="NELMIN">     2</i>
    <i name="ENINI">    680.00000000</i>
    <separator name="electronic convergence detail" >
     <i type="logical" name="LDIAG"> T  </i>
     <i type="logical" name="LSUBROT"> F  </i>
     <i name="WEIMIN">      0.00000000</i>
     <i name="EBREAK">      0.00000005</i>
     <i name="DEPER">      0.30000000</i>
     <i type="int" name="NRMM">     4</i>
     <i name="TIME">      0.40000000</i>
    </separator>
   </separator>
   <separator name="electronic mixer" >
    <i name="AMIX">      0.40000000</i>
    <i name="BMIX">      1.00000000</i>
    <i name="AMIN">      0.10000000</i>
    <i name="AMIX_MAG">      1.60000000</i>
    <i name="BMIX_MAG">      1.00000000</i>
    <separator name="electronic mixer details" >
     <i type="int" name="IMIX">     1</i>
     <i type="logical" name="MIXFIRST"> F  </i>
     <i type="int" name="MAXMIX">   -45</i>
     <i name="WC">    100.00000000</i>
     <i type="int" name="INIMIX">     1</i>
     <i type="int" name="MIXPRE">     1</i>
     <i type="int" name="MREMOVE">     5</i>
    </separator>
   </separator>
   <separator name="electronic dipolcorrection" >
    <i type="logical" name="LDIPOL"> F  </i>
    <i type="logical" name="LMONO"> F  </i>
    <i type="int" name="IDIPOL">     0</i>
    <i name="EPSILON">      1.00000000</i>
    <v name="DIPOL">   -100.00000000   -100.00000000   -100.00000000</v>
    <i name="EFIELD">      0.00000000</i>
   </separator>
  </separator>
  <separator name="grids" >
   <i type="int" name="NGX">    56</i>
   <i type="int" name="NGY">    56</i>
   <i type="int" name="NGZ">    56</i>
   <i type="int" name="NGXF">   112</i>
   <i type="int" name="NGYF">   112</i>
   <i type="int" name="NGZF">   112</i>
   <i type="logical" name="ADDGRID"> F  </i>
  </separator>
  <separator name="ionic" >
   <i type="int" name="NSW">     0</i>
   <i type="int" name="IBRION">    -1</i>
   <i type="int" name="MDALGO">     0</i>
   <i type="int" name="ISIF">     0</i>
   <i name="PSTRESS">      0.00000000</i>
   <i name="EDIFFG">      0.00010000</i>
   <i type="int" name="NFREE">     0</i>
   <i name="POTIM">      0.50000000</i>
   <i name="SMASS">     -3.00000000</i>
   <i name="SCALEE">      1.00000000</i>
  </separator>
  <separator name="ionic md" >
   <i name="TEBEG">      0.00010000</i>
   <i name="TEEND">      0.00010000</i>
   <i type="int" name="NBLOCK">     1</i>
   <i type="int" name="KBLOCK">     1</i>
   <i type="int" name="NPACO">   256</i>
   <i name="APACO">     10.00000000</i>
  </separator>
  <separator name="symmetry" >
   <i type="int" name="ISYM">     3</i>
   <i name="SYMPREC">      0.00001000</i>
  </separator>
  <separator name="dos" >
   <i type="int" name="LORBIT">    11</i>
   <v name="RWIGS">     -1.00000000     -1.00000000     -1.00000000     -1.00000000</v>
   <i type="int" name="NEDOS">   301</i>
   <i name="EMIN">     10.00000000</i>
   <i name="EMAX">    -10.00000000</i>
   <i name="EFERMI">      0.00000000</i>
  </separator>
  <separator name="writing" >
   <i type="int" name="NWRITE">     2</i>
   <i type="logical" name="LWAVE"> F  </i>
   <i type="logical" name="LDOWNSAMPLE"> F  </i>
   <i type="logical" name="LCHARG"> T  </i>
   <i type="logical" name="LPARD"> F  </i>
   <i type="logical" name="LVTOT"> T  </i>
   <i type="logical" name="LVHAR"> F  </i>
   <i type="logical" name="LELF"> F  </i>
   <i type="logical" name="LOPTICS"> F  </i>
   <v name="STM">      0.00000000      0.00000000      0.00000000      0.00000000      0.00000000      0.00000000      0.00000000</v>
  </separator>
  <separator name="performance" >
   <i type="int" name="NPAR">     6</i>
   <i type="int" name="NSIM">     4</i>
   <i type="int" name="NBLK">    -1</i>
   <i type="logical" name="LPLANE"> T  </i>
   <i type="logical" name="LSCALAPACK"> T  </i>
   <i type="logical" name="LSCAAWARE"> F  </i>
   <i type="logical" name="LSCALU"> F  </i>
   <i type="logical" name="LASYNC"> F  </i>
   <i type="logical" name="LORBITALREAL"> F  </i>
  </separator>
  <separator name="miscellaneous" >
   <i type="int" name="IDIOT">     3</i>
   <i type="int" name="PHON_NSTRUCT">    -1</i>
   <i type="logical" name="LMUSIC"> F  </i>
   <v name="POMASS">     65.39000000     63.54600000    118.71000000     32.06600000</v>
   <v name="DARWINR">      0.00000000      0.00000000      0.00000000      0.00000000</v>
   <v name="DARWINV">      1.00000000      1.00000000      1.00000000      1.00000000</v>
   <i type="logical" name="LCORR"> T  </i>
  </separator>
  <i type="logical" name="GGA_COMPAT"> T  </i>
  <i type="logical" name="LBERRY"> F  </i>
  <i type="int" name="ICORELEVEL">     0</i>
  <i type="logical" name="LDAU"> F  </i>
  <i type="int" name="I_CONSTRAINED_M">     0</i>
  <separator name="electronic exchange-correlation" >
   <i type="string" name="GGA">PE</i>
   <i type="int" name="VOSKOWN">     0</i>
   <i type="logical" name="LHFCALC"> T  </i>
   <i type="string" name="PRECFOCK">accur.</i>
   <i type="logical" name="LSYMGRAD"> F  </i>
   <i type="logical" name="LHFONE"> F  </i>
   <i type="logical" name="LRHFCALC"> F  </i>
   <i type="logical" name="LTHOMAS"> F  </i>
   <i type="logical" name="LMODELHF"> F  </i>
   <i type="logical" name="LFOCKACE"> T  </i>
   <i name="ENCUT4O">     -1.00000000</i>
   <i type="int" name="EXXOEP">     0</i>
   <i type="int" name="FOURORBIT">     0</i>
   <i name="AEXX">      0.25000000</i>
   <i name="HFALPHA">     -1.00000000</i>
   <i name="MCALPHA">      0.00000000</i>
   <i name="ALDAX">      0.75000000</i>
   <i name="AGGAX">      0.75000000</i>
   <i name="ALDAC">      1.00000000</i>
   <i name="AGGAC">      1.00000000</i>
   <i type="int" name="NKREDX">     1</i>
   <i type="int" name="NKREDY">     1</i>
   <i type="int" name="NKREDZ">     1</i>
   <i type="logical" name="SHIFTRED"> F  </i>
   <i type="logical" name="ODDONLY"> F  </i>
   <i type="logical" name="EVENONLY"> F  </i>
   <i type="int" name="LMAXFOCK">     4</i>
   <i type="int" name="NMAXFOCKAE">     1</i>
   <i type="logical" name="LFOCKAEDFT"> F  </i>
   <i name="HFSCREEN">      0.20000000</i>
   <i name="HFSCREENC">      0.20000000</i>
   <i type="int" name="NBANDSGWLOW">     1</i>
  </separator>
  <separator name="vdW DFT" >
   <i type="logical" name="LUSE_VDW"> F  </i>
   <i type="int" name="IVDW_NL">     1</i>
   <i type="logical" name="LSPIN_VDW"> F  </i>
   <i name="Zab_VDW">     -0.84910000</i>
   <i name="PARAM1">      0.12340000</i>
   <i name="PARAM2">      1.00000000</i>
   <i name="PARAM3">      0.00000000</i>
  </separator>
  <separator name="model GW" >
   <i type="int" name="MODEL_GW">     0</i>
   <i name="MODEL_EPS0">     11.87947813</i>
   <i name="MODEL_ALPHA">      1.00000000</i>
  </separator>
  <separator name="linear response parameters" >
   <i type="logical" name="LEPSILON"> F  </i>
   <i type="logical" name="LRPA"> F  </i>
   <i type="logical" name="LNABLA"> F  </i>
   <i type="logical" name="LVEL"> F  </i>
   <i name="CSHIFT">      0.10000000</i>
   <i name="OMEGAMAX">     -1.00000000</i>
   <i name="DEG_THRESHOLD">      0.00200000</i>
   <i name="RTIME">     -0.10000000</i>
   <i name="WPLASMAI">      0.00000000</i>
   <v name="DFIELD">      0.00000000      0.00000000      0.00000000</v>
   <v name="WPLASMA">      0.00000000      0.00000000      0.00000000      0.00000000      0.00000000      0.00000000      0.00000000      0.00000000      0.00000000</v>
  </separator>
  <separator name="orbital magnetization" >
   <i type="logical" name="NUCIND"> F  </i>
   <v name="MAGPOS">      0.00000000      0.00000000      0.00000000</v>
   <i type="logical" name="LNICSALL"> T  </i>
   <i type="logical" name="ORBITALMAG"> F  </i>
   <i type="logical" name="LMAGBLOCH"> F  </i>
   <i type="logical" name="LCHIMAG"> F  </i>
   <i type="logical" name="LGAUGE"> T  </i>
   <i type="int" name="MAGATOM">     0</i>
   <v name="MAGDIPOL">      0.00000000      0.00000000      0.00000000</v>
   <v name="AVECCONST">      0.00000000      0.00000000      0.00000000</v>
  </separator>
  <separator name="response functions" >
   <i type="logical" name="LALL_IN_ONE"> F  </i>
   <i type="int" name="IALL_IN_ONE">    -1</i>
   <i type="int" name="NBANDS_WAVE">    -1</i>
   <i type="logical" name="LFINITE_TEMPERATURE"> F  </i>
   <i type="logical" name="LADDER"> F  </i>
   <i type="logical" name="LRPAFORCE"> F  </i>
   <i type="logical" name="LFXC"> F  </i>
   <i type="logical" name="LHARTREE"> T  </i>
   <i type="int" name="IBSE">     0</i>
   <v type="int" name="KPOINT">    -1     0     0     0</v>
   <i type="logical" name="LTCTC"> F  </i>
   <i type="logical" name="LTCTE"> F  </i>
   <i type="logical" name="LTETE"> F  </i>
   <i type="logical" name="LTRIPLET"> F  </i>
   <i type="logical" name="LFXCEPS"> F  </i>
   <i type="logical" name="LFXHEG"> F  </i>
   <i type="int" name="NATURALO">     2</i>
   <i type="logical" name="LHOLEGF"> F  </i>
   <i type="logical" name="L2ORDER"> F  </i>
   <i type="logical" name="LDMP1"> F  </i>
   <i type="logical" name="LMP2LT"> F  </i>
   <i type="logical" name="LSMP2LT"> F  </i>
   <i type="logical" name="LGWLF"> F  </i>
   <i name="ENCUTGW">     -1.60000002</i>
   <i name="ENCUTGWSOFT">     -1.60000002</i>
   <i name="ENCUTLF">     -1.00000000</i>
   <i type="logical" name="LESF_SPLINES"> F  </i>
   <i type="int" name="LMAXMP2">    -1</i>
   <i name="SCISSOR">      0.00000000</i>
   <i type="int" name="NOMEGA">     0</i>
   <i type="int" name="NOMEGAR">     0</i>
   <i type="int" name="NBANDSGW">    -1</i>
   <i type="int" name="NBANDSO">    -1</i>
   <i type="int" name="NBANDSV">    -1</i>
   <i type="int" name="NELMGW">     1</i>
   <i type="int" name="NELMHF">     1</i>
   <i type="int" name="DIM">     3</i>
   <i type="int" name="IESPILON">     4</i>
   <i type="int" name="ANTIRES">     0</i>
   <i name="OMEGAMAX">    -30.00000000</i>
   <i name="OMEGAMIN">    -30.00000000</i>
   <i name="OMEGATL">   -200.00000000</i>
   <i type="int" name="OMEGAGRID">     0</i>
   <i name="CSHIFT">     -0.10000000</i>
   <i type="logical" name="LSELFENERGY"> F  </i>
   <i type="logical" name="LSPECTRAL"> F  </i>
   <i type="logical" name="LSPECTRALGW"> F  </i>
   <i type="logical" name="LSINGLES"> F  </i>
   <i type="logical" name="LFERMIGW"> F  </i>
   <i type="logical" name="ODDONLYGW"> F  </i>
   <i type="logical" name="EVENONLYGW"> F  </i>
   <i type="int" name="NKREDLFX">     1</i>
   <i type="int" name="NKREDLFY">     1</i>
   <i type="int" name="NKREDLFZ">     1</i>
   <i type="int" name="MAXMEM">  2800</i>
   <i type="int" name="TELESCOPE">     0</i>
   <i type="int" name="NTAUPAR">    -1</i>
   <i type="int" name="NOMEGAPAR">    -1</i>
   <i name="DAMP_NEWTON">      0.80000001</i>
   <i name="LAMBDA">      1.00000000</i>
  </separator>
  <separator name="External order field" >
   <i name="OFIELD_KAPPA">      0.00000000</i>
   <v name="OFIELD_K">      0.00000000      0.00000000      0.00000000</v>
   <i name="OFIELD_Q6_NEAR">      0.00000000</i>
   <i name="OFIELD_Q6_FAR">      0.00000000</i>
   <i name="OFIELD_A">      0.00000000</i>
  </separator>
  <separator name="optional k-points parameters" >
   <i type="int" name="KPOINTS_OPT_MODE">     1</i>
   <i type="logical" name="LKPOINTS_OPT"> F  </i>
  </separator>
 </parameters>
 <atominfo>
  <atoms>       8 </atoms>
  <types>       4 </types>
  <array name="atoms" >
   <dimension dim="1">ion</dimension>
   <field type="string">element</field>
   <field type="int">atomtype</field>
   <set>
    <rc><c>Zn</c><c>   1</c></rc>
    <rc><c>Cu</c><c>   2</c></rc>
    <rc><c>Cu</c><c>   2</c></rc>
    <rc><c>Sn</c><c>   3</c></rc>
    <rc><c>S </c><c>   4</c></rc>
    <rc><c>S </c><c>   4</c></rc>
    <rc><c>S </c><c>   4</c></rc>
    <rc><c>S </c><c>   4</c></rc>
   </set>
  </array>
  <array name="atomtypes" >
   <dimension dim="1">type</dimension>
   <field type="int">atomspertype</field>
   <field type="string">element</field>
   <field>mass</field>
   <field>valence</field>
   <field type="string">pseudopotential</field>
   <set>
    <rc><c>   1</c><c>Zn</c><c>     65.39000000</c><c>     12.00000000</c><c>  PAW_PBE Zn 06Sep2000                  </c></rc>
    <rc><c>   2</c><c>Cu</c><c>     63.54600000</c><c>     11.00000000</c><c>  PAW_PBE Cu 22Jun2005                  </c></rc>
    <rc><c>   1</c><c>Sn</c><c>    118.71000000</c><c>     14.00000000</c><c>  PAW_PBE Sn_d 06Sep2000                </c></rc>
    <rc><c>   4</c><c>S </c><c>     32.06600000</c><c>      6.00000000</c><c>  PAW_PBE S 06Sep2000                   </c></rc>
   </set>
  </array>
 </atominfo>
 <structure name="initialpos" >
  <crystal>
   <varray name="basis" >
    <v>       4.93901185       0.00000000      -4.41848219 </v>
    <v>      -0.98753537       4.83927803      -4.41848219 </v>
    <v>       0.00000000       0.00000000       6.62697690 </v>
   </varray>
   <i name="volume">    158.39304179 </i>
   <varray name="rec_basis" >
    <v>       0.20246965       0.04131731       0.00000000 </v>
    <v>       0.00000000       0.20664239       0.00000000 </v>
    <v>       0.13499497       0.16532509       0.15089837 </v>
   </varray>
  </crystal>
  <varray name="positions" >
   <v>       0.75000000       0.25000000       0.50000000 </v>
   <v>       0.00000000       0.00000000       0.00000000 </v>
   <v>       0.25000000       0.75000000       0.50000000 </v>
   <v>       0.50000000       0.50000000       0.00000000 </v>
   <v>       0.36432714       0.37124032       0.47758056 </v>
   <v>       0.89365977       0.88674759       0.52241944 </v>
   <v>       0.11325241       0.63567286       0.00691218 </v>
   <v>       0.62875968       0.10634023       0.99308782 </v>
  </varray>
 </structure>
 <calculation>
  <scstep>
   <time name="dav">    0.69    0.73</time>
   <time name="total">    1.15    1.25</time>
   <energy>
    <i name="alphaZ">    202.50320330 </i>
    <i name="ewald">  -5034.42253749 </i>
    <i name="hartreedc">  -2428.65725175 </i>
    <i name="XCdc">    254.94177981 </i>
    <i name="pawpsdc">   6350.20787093 </i>
    <i name="pawaedc">  -9469.52756924 </i>
    <i name="eentropy">      0.00000000 </i>
    <i name="bandstr">    428.35984508 </i>
    <i name="atom">   7517.07041424 </i>
    <i name="e_fr_energy">  -2179.52424512 </i>
    <i name="e_wo_entrp">  -2179.52424512 </i>
    <i name="e_0_energy">  -2179.52424512 </i>
   </energy>
  </scstep>
  <scstep>
   <time name="dav">    0.66    0.66</time>
   <time name="total">    0.66    0.67</time>
   <energy>
    <i name="e_fr_energy">  -2824.99656193 </i>
    <i name="e_wo_entrp">  -2824.99656193 </i>
    <i name="e_0_energy">  -2824.99656193 </i>
   </energy>
  </scstep>
  <scstep>
   <time name="dav">    0.77    0.79</time>
   <time name="total">    0.77    0.79</time>
   <energy>
    <i name="e_fr_energy">  -2927.25372932 </i>
    <i name="e_wo_entrp">  -2927.25372932 </i>
    <i name="e_0_energy">  -2927.25372932 </i>
   </energy>
  </scstep>
  <scstep>
   <time name="dav">    0.73    0.75</time>
   <time name="total">    0.74    0.76</time>
   <energy>
    <i name="e_fr_energy">  -2932.97144423 </i>
    <i name="e_wo_entrp">  -2932.97144423 </i>
    <i name="e_0_energy">  -2932.97144423 </i>
   </energy>
  </scstep>
  <scstep>
   <time name="dav">  304.44  305.27</time>
   <time name="total">  305.60  306.45</time>
   <energy>
    <i name="e_fr_energy">    -39.33745161 </i>
    <i name="e_wo_entrp">    -39.33745161 </i>
    <i name="e_0_energy">    -39.33745161 </i>
   </energy>
  </scstep>
  <scstep>
   <time name="dav">  305.32  306.06</time>
   <time name="total">  306.45  307.21</time>
   <energy>
    <i name="e_fr_energy">    -38.56943876 </i>
    <i name="e_wo_entrp">    -38.56943876 </i>
    <i name="e_0_energy">    -38.56943876 </i>
   </energy>
  </scstep>
  <scstep>
   <time name="dav">  305.93  306.65</time>
   <time name="total">  307.09  307.83</time>
   <energy>
    <i name="e_fr_energy">    -38.56062554 </i>
    <i name="e_wo_entrp">    -38.56062554 </i>
    <i name="e_0_energy">    -38.56062554 </i>
   </energy>
  </scstep>
  <scstep>
   <time name="dav">  304.80  305.54</time>
   <time name="total">  305.95  306.70</time>
   <energy>
    <i name="e_fr_energy">    -38.63903964 </i>
    <i name="e_wo_entrp">    -38.63903964 </i>
    <i name="e_0_energy">    -38.63903964 </i>
   </energy>
  </scstep>
  <scstep>
   <time name="dav">  305.52  306.24</time>
   <time name="total">  306.64  307.38</time>
   <energy>
    <i name="e_fr_energy">    -38.64623376 </i>
    <i name="e_wo_entrp">    -38.64623376 </i>
    <i name="e_0_energy">    -38.64623376 </i>
   </energy>
  </scstep>
  <scstep>
   <time name="dav">  306.20  306.93</time>
   <time name="total">  307.34  308.10</time>
   <energy>
    <i name="e_fr_energy">    -38.64950110 </i>
    <i name="e_wo_entrp">    -38.64950110 </i>
    <i name="e_0_energy">    -38.64950110 </i>
   </energy>
  </scstep>
  <scstep>
   <time name="dav">  305.41  306.14</time>
   <time name="total">  306.52  307.28</time>
   <energy>
    <i name="e_fr_energy">    -38.65179599 </i>
    <i name="e_wo_entrp">    -38.65179599 </i>
    <i name="e_0_energy">    -38.65179599 </i>
   </energy>
  </scstep>
  <scstep>
   <time name="dav">  305.31  306.06</time>
   <time name="total">  306.42  307.19</time>
   <energy>
    <i name="e_fr_energy">    -38.65272165 </i>
    <i name="e_wo_entrp">    -38.65272165 </i>
    <i name="e_0_energy">    -38.65272165 </i>
   </energy>
  </scstep>
  <scstep>
   <time name="dav">  306.76  307.49</time>
   <time name="total">  307.87  308.62</time>
   <energy>
    <i name="e_fr_energy">    -38.65312429 </i>
    <i name="e_wo_entrp">    -38.65312429 </i>
    <i name="e_0_energy">    -38.65312429 </i>
   </energy>
  </scstep>
  <scstep>
   <time name="dav">  306.00  306.73</time>
   <time name="total">  307.11  307.86</time>
   <energy>
    <i name="e_fr_energy">    -38.65330511 </i>
    <i name="e_wo_entrp">    -38.65330511 </i>
    <i name="e_0_energy">    -38.65330511 </i>
   </energy>
  </scstep>
  <scstep>
   <time name="dav">  305.85  306.58</time>
   <time name="total">  307.02  307.77</time>
   <energy>
    <i name="e_fr_energy">    -38.65338892 </i>
    <i name="e_wo_entrp">    -38.65338892 </i>
    <i name="e_0_energy">    -38.65338892 </i>
   </energy>
  </scstep>
  <scstep>
   <time name="dav">  306.60  307.33</time>
   <time name="total">  307.78  308.51</time>
   <energy>
    <i name="e_fr_energy">    -38.65342669 </i>
    <i name="e_wo_entrp">    -38.65342669 </i>
    <i name="e_0_energy">    -38.65342669 </i>
   </energy>
  </scstep>
  <scstep>
   <time name="dav">  306.31  309.59</time>
   <time name="total">  307.52  310.97</time>
   <energy>
    <i name="e_fr_energy">    -38.65344392 </i>
    <i name="e_wo_entrp">    -38.65344392 </i>
    <i name="e_0_energy">    -38.65344392 </i>
   </energy>
  </scstep>
  <scstep>
   <time name="dav">  304.61  305.33</time>
   <time name="total">  305.61  306.43</time>
   <energy>
    <i name="alphaZ">    202.50320330 </i>
    <i name="ewald">  -5034.42253749 </i>
    <i name="hartreedc">  -2412.37785749 </i>
    <i name="XCdc">    193.57654999 </i>
    <i name="pawpsdc">   9389.14369256 </i>
    <i name="pawaedc">  -9775.92977839 </i>
    <i name="eentropy">      0.00000000 </i>
    <i name="bandstr">   -290.71357149 </i>
    <i name="atom">   7517.07041424 </i>
    <i name="e_fr_energy">    -38.65345195 </i>
    <i name="e_wo_entrp">    -38.65345195 </i>
    <i name="e_0_energy">    -38.65345195 </i>
   </energy>
  </scstep>
  <structure>
   <crystal>
    <varray name="basis" >
     <v>       4.93901185       0.00000000      -4.41848219 </v>
     <v>      -0.98753537       4.83927803      -4.41848219 </v>
     <v>       0.00000000       0.00000000       6.62697690 </v>
    </varray>
    <i name="volume">    158.39304179 </i>
    <varray name="rec_basis" >
     <v>       0.20246965       0.04131731       0.00000000 </v>
     <v>       0.00000000       0.20664239       0.00000000 </v>
     <v>       0.13499497       0.16532509       0.15089837 </v>
    </varray>
   </crystal>
   <varray name="positions" >
    <v>       0.75000000       0.25000000       0.50000000 </v>
    <v>       0.00000000       0.00000000       0.00000000 </v>
    <v>       0.25000000       0.75000000       0.50000000 </v>
    <v>       0.50000000       0.50000000       0.00000000 </v>
    <v>       0.36432714       0.37124032       0.47758056 </v>
    <v>       0.89365977       0.88674759       0.52241944 </v>
    <v>       0.11325241       0.63567286       0.00691218 </v>
    <v>       0.62875968       0.10634023       0.99308782 </v>
   </varray>
  </structure>
  <varray name="forces" >
   <v>      -0.00000000       0.00000000      -0.00000000 </v>
   <v>      -0.00000000      -0.00000000      -0.00000000 </v>
   <v>       0.00000000       0.00000000      -0.00000000 </v>
   <v>       0.00000000       0.00000000      -0.00000000 </v>
   <v>       0.21029784       0.09052697       0.35003425 </v>
   <v>      -0.33338299      -0.24126640      -0.07477027 </v>
   <v>       0.29198062      -0.22415178      -0.19861416 </v>
   <v>      -0.16889547       0.37489120      -0.07664982 </v>
  </varray>
  <energy>
   <i name="e_fr_energy">    -38.65345195 </i>
   <i name="e_wo_entrp">    -38.65345195 </i>
   <i name="e_0_energy">    -38.65345195 </i>
  </energy>
  <time name="totalsc"> 4564.04 4579.76</time>
  <eigenvalues>
   <array>
    <dimension dim="1">band</dimension>
    <dimension dim="2">kpoint</dimension>
    <dimension dim="3">spin</dimension>
    <field>eigene</field>
    <field>occ</field>
    <set>
     <set comment="spin 1">
      <set comment="kpoint 1">
       <r>  -19.9553    1.0000 </r>
       <r>  -19.9514    1.0000 </r>
       <r>  -19.9513    1.0000 </r>
       <r>  -19.8628    1.0000 </r>
       <r>  -19.8582    1.0000 </r>
       <r>  -11.5426    1.0000 </r>
       <r>   -9.8962    1.0000 </r>
       <r>   -9.8789    1.0000 </r>
       <r>   -9.8789    1.0000 </r>
       <r>   -4.5151    1.0000 </r>
       <r>   -4.4404    1.0000 </r>
       <r>   -4.3928    1.0000 </r>
       <r>   -4.3928    1.0000 </r>
       <r>   -4.3879    1.0000 </r>
       <r>   -4.0165    1.0000 </r>
       <r>   -1.7313    1.0000 </r>
       <r>   -1.0762    1.0000 </r>
       <r>   -1.0706    1.0000 </r>
       <r>   -0.6017    1.0000 </r>
       <r>   -0.3792    1.0000 </r>
       <r>   -0.3792    1.0000 </r>
       <r>    0.1001    1.0000 </r>
       <r>    0.1001    1.0000 </r>
       <r>    0.4564    1.0000 </r>
       <r>    0.4983    1.0000 </r>
       <r>    0.4983    1.0000 </r>
       <r>    1.5119    1.0000 </r>
       <r>    1.5637    1.0000 </r>
       <r>    1.7395    1.0000 </r>
       <r>    2.0861    1.0000 </r>
       <r>    2.1431    1.0000 </r>
       <r>    2.1431    1.0000 </r>
       <r>    2.3104    1.0000 </r>
       <r>    4.1685    1.0000 </r>
       <r>    4.1685    1.0000 </r>
       <r>    4.2117    1.0000 </r>
       <r>    5.5591    0.0000 </r>
       <r>    7.1933    0.0000 </r>
       <r>    8.2469    0.0000 </r>
       <r>    9.1092    0.0000 </r>
       <r>    9.1092    0.0000 </r>
       <r>   10.3737    0.0000 </r>
       <r>   10.7655    0.0000 </r>
       <r>   10.7655    0.0000 </r>
       <r>   10.7974    0.0000 </r>
       <r>   11.5432    0.0000 </r>
       <r>   12.3999    0.0000 </r>
       <r>   12.5120    0.0000 </r>
      </set>
      <set comment="kpoint 2">
       <r>  -19.9555    1.0000 </r>
       <r>  -19.9516    1.0000 </r>
       <r>  -19.9513    1.0000 </r>
       <r>  -19.8625    1.0000 </r>
       <r>  -19.8581    1.0000 </r>
       <r>  -11.3176    1.0000 </r>
       <r>  -10.0815    1.0000 </r>
       <r>   -9.9705    1.0000 </r>
       <r>   -9.9327    1.0000 </r>
       <r>   -4.6055    1.0000 </r>
       <r>   -4.4295    1.0000 </r>
       <r>   -4.4098    1.0000 </r>
       <r>   -4.3766    1.0000 </r>
       <r>   -4.3638    1.0000 </r>
       <r>   -3.8269    1.0000 </r>
       <r>   -1.8158    1.0000 </r>
       <r>   -1.3007    1.0000 </r>
       <r>   -1.0299    1.0000 </r>
       <r>   -0.6279    1.0000 </r>
       <r>   -0.2990    1.0000 </r>
       <r>   -0.1810    1.0000 </r>
       <r>   -0.0627    1.0000 </r>
       <r>    0.0685    1.0000 </r>
       <r>    0.4483    1.0000 </r>
       <r>    0.5116    1.0000 </r>
       <r>    0.7810    1.0000 </r>
       <r>    1.6134    1.0000 </r>
       <r>    1.7384    1.0000 </r>
       <r>    1.8214    1.0000 </r>
       <r>    1.9257    1.0000 </r>
       <r>    2.1095    1.0000 </r>
       <r>    2.3867    1.0000 </r>
       <r>    2.5219    1.0000 </r>
       <r>    3.1959    1.0000 </r>
       <r>    3.6388    1.0000 </r>
       <r>    3.9630    1.0000 </r>
       <r>    6.5321    0.0000 </r>
       <r>    8.1256    0.0000 </r>
       <r>    8.3961    0.0000 </r>
       <r>    8.7466    0.0000 </r>
       <r>    9.1430    0.0000 </r>
       <r>   10.2251    0.0000 </r>
       <r>   10.6977    0.0000 </r>
       <r>   10.9243    0.0000 </r>
       <r>   11.0932    0.0000 </r>
       <r>   11.5237    0.0000 </r>
       <r>   11.9957    0.0000 </r>
       <r>   12.8829    0.0000 </r>
      </set>
      <set comment="kpoint 3">
       <r>  -19.9558    1.0000 </r>
       <r>  -19.9519    1.0000 </r>
       <r>  -19.9513    1.0000 </r>
       <r>  -19.8622    1.0000 </r>
       <r>  -19.8579    1.0000 </r>
       <r>  -10.8929    1.0000 </r>
       <r>  -10.5059    1.0000 </r>
       <r>  -10.0406    1.0000 </r>
       <r>   -9.9748    1.0000 </r>
       <r>   -4.6659    1.0000 </r>
       <r>   -4.4417    1.0000 </r>
       <r>   -4.4242    1.0000 </r>
       <r>   -4.3672    1.0000 </r>
       <r>   -4.3412    1.0000 </r>
       <r>   -3.6170    1.0000 </r>
       <r>   -1.7594    1.0000 </r>
       <r>   -1.3677    1.0000 </r>
       <r>   -0.9801    1.0000 </r>
       <r>   -0.7362    1.0000 </r>
       <r>   -0.4573    1.0000 </r>
       <r>   -0.2393    1.0000 </r>
       <r>    0.0069    1.0000 </r>
       <r>    0.1434    1.0000 </r>
       <r>    0.3896    1.0000 </r>
       <r>    0.6620    1.0000 </r>
       <r>    0.7977    1.0000 </r>
       <r>    1.6742    1.0000 </r>
       <r>    1.7620    1.0000 </r>
       <r>    1.8454    1.0000 </r>
       <r>    2.0550    1.0000 </r>
       <r>    2.1851    1.0000 </r>
       <r>    2.6154    1.0000 </r>
       <r>    2.7699    1.0000 </r>
       <r>    2.8315    1.0000 </r>
       <r>    2.9497    1.0000 </r>
       <r>    3.5956    1.0000 </r>
       <r>    7.0270    0.0000 </r>
       <r>    8.4710    0.0000 </r>
       <r>    8.7198    0.0000 </r>
       <r>    9.5565    0.0000 </r>
       <r>    9.8837    0.0000 </r>
       <r>   10.1092    0.0000 </r>
       <r>   10.6737    0.0000 </r>
       <r>   11.1088    0.0000 </r>
       <r>   11.1246    0.0000 </r>
       <r>   11.7493    0.0000 </r>
       <r>   12.0000    0.0000 </r>
       <r>   12.2888    0.0000 </r>
      </set>
      <set comment="kpoint 4">
       <r>  -19.9559    1.0000 </r>
       <r>  -19.9516    1.0000 </r>
       <r>  -19.9515    1.0000 </r>
       <r>  -19.8622    1.0000 </r>
       <r>  -19.8579    1.0000 </r>
       <r>  -11.0515    1.0000 </r>
       <r>  -10.2023    1.0000 </r>
       <r>  -10.0639    1.0000 </r>
       <r>  -10.0556    1.0000 </r>
       <r>   -4.6854    1.0000 </r>
       <r>   -4.4508    1.0000 </r>
       <r>   -4.4352    1.0000 </r>
       <r>   -4.3581    1.0000 </r>
       <r>   -4.3439    1.0000 </r>
       <r>   -3.7233    1.0000 </r>
       <r>   -1.9971    1.0000 </r>
       <r>   -1.5960    1.0000 </r>
       <r>   -0.9643    1.0000 </r>
       <r>   -0.4699    1.0000 </r>
       <r>   -0.3106    1.0000 </r>
       <r>   -0.2056    1.0000 </r>
       <r>    0.0755    1.0000 </r>
       <r>    0.1822    1.0000 </r>
       <r>    0.4445    1.0000 </r>
       <r>    0.6791    1.0000 </r>
       <r>    0.7743    1.0000 </r>
       <r>    1.6207    1.0000 </r>
       <r>    1.7680    1.0000 </r>
       <r>    1.9252    1.0000 </r>
       <r>    1.9909    1.0000 </r>
       <r>    2.2504    1.0000 </r>
       <r>    2.4944    1.0000 </r>
       <r>    2.6232    1.0000 </r>
       <r>    2.9249    1.0000 </r>
       <r>    3.7254    1.0000 </r>
       <r>    3.7585    1.0000 </r>
       <r>    6.4037    0.0000 </r>
       <r>    8.0842    0.0000 </r>
       <r>    8.3612    0.0000 </r>
       <r>    8.5482    0.0000 </r>
       <r>    9.4098    0.0000 </r>
       <r>   10.4904    0.0000 </r>
       <r>   11.0751    0.0000 </r>
       <r>   11.1715    0.0000 </r>
       <r>   11.2485    0.0000 </r>
       <r>   11.5974    0.0000 </r>
       <r>   12.4487    0.0000 </r>
       <r>   12.7369    0.0000 </r>
      </set>
      <set comment="kpoint 5">
       <r>  -19.9562    1.0000 </r>
       <r>  -19.9519    1.0000 </r>
       <r>  -19.9515    1.0000 </r>
       <r>  -19.8618    1.0000 </r>
       <r>  -19.8578    1.0000 </r>
       <r>  -10.8138    1.0000 </r>
       <r>  -10.3861    1.0000 </r>
       <r>  -10.1681    1.0000 </r>
       <r>  -10.0132    1.0000 </r>
       <r>   -4.6621    1.0000 </r>
       <r>   -4.4679    1.0000 </r>
       <r>   -4.4214    1.0000 </r>
       <r>   -4.3510    1.0000 </r>
       <r>   -4.3389    1.0000 </r>
       <r>   -3.7806    1.0000 </r>
       <r>   -2.1516    1.0000 </r>
       <r>   -1.6579    1.0000 </r>
       <r>   -1.2786    1.0000 </r>
       <r>   -0.6318    1.0000 </r>
       <r>   -0.2115    1.0000 </r>
       <r>    0.0106    1.0000 </r>
       <r>    0.0585    1.0000 </r>
       <r>    0.2299    1.0000 </r>
       <r>    0.4938    1.0000 </r>
       <r>    0.7396    1.0000 </r>
       <r>    0.8200    1.0000 </r>
       <r>    1.6517    1.0000 </r>
       <r>    1.7338    1.0000 </r>
       <r>    1.8218    1.0000 </r>
       <r>    2.0696    1.0000 </r>
       <r>    2.4942    1.0000 </r>
       <r>    2.6489    1.0000 </r>
       <r>    2.8158    1.0000 </r>
       <r>    3.1211    1.0000 </r>
       <r>    3.3722    1.0000 </r>
       <r>    3.5262    1.0000 </r>
       <r>    6.5584    0.0000 </r>
       <r>    8.3740    0.0000 </r>
       <r>    8.7674    0.0000 </r>
       <r>    9.1769    0.0000 </r>
       <r>    9.6932    0.0000 </r>
       <r>   10.3034    0.0000 </r>
       <r>   10.7041    0.0000 </r>
       <r>   10.9495    0.0000 </r>
       <r>   11.4003    0.0000 </r>
       <r>   11.8294    0.0000 </r>
       <r>   12.0766    0.0000 </r>
       <r>   12.3060    0.0000 </r>
      </set>
      <set comment="kpoint 6">
       <r>  -19.9562    1.0000 </r>
       <r>  -19.9519    1.0000 </r>
       <r>  -19.9515    1.0000 </r>
       <r>  -19.8618    1.0000 </r>
       <r>  -19.8578    1.0000 </r>
       <r>  -10.8140    1.0000 </r>
       <r>  -10.3858    1.0000 </r>
       <r>  -10.1685    1.0000 </r>
       <r>  -10.0129    1.0000 </r>
       <r>   -4.6838    1.0000 </r>
       <r>   -4.4429    1.0000 </r>
       <r>   -4.4288    1.0000 </r>
       <r>   -4.3510    1.0000 </r>
       <r>   -4.3382    1.0000 </r>
       <r>   -3.7708    1.0000 </r>
       <r>   -2.1379    1.0000 </r>
       <r>   -1.6909    1.0000 </r>
       <r>   -1.2414    1.0000 </r>
       <r>   -0.7312    1.0000 </r>
       <r>   -0.1491    1.0000 </r>
       <r>    0.0284    1.0000 </r>
       <r>    0.0686    1.0000 </r>
       <r>    0.2152    1.0000 </r>
       <r>    0.5068    1.0000 </r>
       <r>    0.6625    1.0000 </r>
       <r>    0.8996    1.0000 </r>
       <r>    1.6599    1.0000 </r>
       <r>    1.7193    1.0000 </r>
       <r>    1.8411    1.0000 </r>
       <r>    2.0127    1.0000 </r>
       <r>    2.4902    1.0000 </r>
       <r>    2.6931    1.0000 </r>
       <r>    2.9048    1.0000 </r>
       <r>    3.0343    1.0000 </r>
       <r>    3.3644    1.0000 </r>
       <r>    3.5184    1.0000 </r>
       <r>    6.5509    0.0000 </r>
       <r>    8.3661    0.0000 </r>
       <r>    8.7616    0.0000 </r>
       <r>    9.2136    0.0000 </r>
       <r>    9.7219    0.0000 </r>
       <r>   10.2440    0.0000 </r>
       <r>   10.6682    0.0000 </r>
       <r>   10.9815    0.0000 </r>
       <r>   11.4277    0.0000 </r>
       <r>   11.8433    0.0000 </r>
       <r>   12.0996    0.0000 </r>
       <r>   12.2868    0.0000 </r>
      </set>
      <set comment="kpoint 7">
       <r>  -19.9558    1.0000 </r>
       <r>  -19.9517    1.0000 </r>
       <r>  -19.9515    1.0000 </r>
       <r>  -19.8621    1.0000 </r>
       <r>  -19.8580    1.0000 </r>
       <r>  -11.1963    1.0000 </r>
       <r>  -10.1493    1.0000 </r>
       <r>  -10.0440    1.0000 </r>
       <r>   -9.9141    1.0000 </r>
       <r>   -4.5659    1.0000 </r>
       <r>   -4.4316    1.0000 </r>
       <r>   -4.4080    1.0000 </r>
       <r>   -4.3725    1.0000 </r>
       <r>   -4.3546    1.0000 </r>
       <r>   -3.9177    1.0000 </r>
       <r>   -2.0928    1.0000 </r>
       <r>   -1.5109    1.0000 </r>
       <r>   -1.0344    1.0000 </r>
       <r>   -0.8322    1.0000 </r>
       <r>   -0.3075    1.0000 </r>
       <r>   -0.0761    1.0000 </r>
       <r>    0.1202    1.0000 </r>
       <r>    0.1398    1.0000 </r>
       <r>    0.4326    1.0000 </r>
       <r>    0.6487    1.0000 </r>
       <r>    0.9110    1.0000 </r>
       <r>    1.6219    1.0000 </r>
       <r>    1.7629    1.0000 </r>
       <r>    1.8489    1.0000 </r>
       <r>    1.9721    1.0000 </r>
       <r>    2.2218    1.0000 </r>
       <r>    2.5769    1.0000 </r>
       <r>    2.7396    1.0000 </r>
       <r>    2.8734    1.0000 </r>
       <r>    3.5064    1.0000 </r>
       <r>    3.9946    1.0000 </r>
       <r>    6.5402    0.0000 </r>
       <r>    8.2513    0.0000 </r>
       <r>    8.6934    0.0000 </r>
       <r>    8.9946    0.0000 </r>
       <r>    9.4596    0.0000 </r>
       <r>   10.1571    0.0000 </r>
       <r>   10.6695    0.0000 </r>
       <r>   10.9672    0.0000 </r>
       <r>   11.2177    0.0000 </r>
       <r>   11.4366    0.0000 </r>
       <r>   12.5116    0.0000 </r>
       <r>   12.7946    0.0000 </r>
      </set>
      <set comment="kpoint 8">
       <r>  -19.9565    1.0000 </r>
       <r>  -19.9521    1.0000 </r>
       <r>  -19.9516    1.0000 </r>
       <r>  -19.8615    1.0000 </r>
       <r>  -19.8577    1.0000 </r>
       <r>  -10.6923    1.0000 </r>
       <r>  -10.2447    1.0000 </r>
       <r>  -10.2167    1.0000 </r>
       <r>  -10.1941    1.0000 </r>
       <r>   -4.6981    1.0000 </r>
       <r>   -4.4575    1.0000 </r>
       <r>   -4.4062    1.0000 </r>
       <r>   -4.3377    1.0000 </r>
       <r>   -4.3354    1.0000 </r>
       <r>   -3.9380    1.0000 </r>
       <r>   -2.4894    1.0000 </r>
       <r>   -1.8113    1.0000 </r>
       <r>   -1.3991    1.0000 </r>
       <r>   -0.4654    1.0000 </r>
       <r>   -0.3523    1.0000 </r>
       <r>    0.1095    1.0000 </r>
       <r>    0.1496    1.0000 </r>
       <r>    0.4436    1.0000 </r>
       <r>    0.5819    1.0000 </r>
       <r>    0.5914    1.0000 </r>
       <r>    0.8113    1.0000 </r>
       <r>    1.6774    1.0000 </r>
       <r>    1.7093    1.0000 </r>
       <r>    1.9525    1.0000 </r>
       <r>    2.0379    1.0000 </r>
       <r>    2.6344    1.0000 </r>
       <r>    2.7507    1.0000 </r>
       <r>    3.2464    1.0000 </r>
       <r>    3.3428    1.0000 </r>
       <r>    3.5788    1.0000 </r>
       <r>    3.7071    1.0000 </r>
       <r>    5.9628    0.0000 </r>
       <r>    7.8113    0.0000 </r>
       <r>    8.5958    0.0000 </r>
       <r>    9.5247    0.0000 </r>
       <r>    9.9525    0.0000 </r>
       <r>   10.4541    0.0000 </r>
       <r>   10.7483    0.0000 </r>
       <r>   11.2521    0.0000 </r>
       <r>   11.3700    0.0000 </r>
       <r>   11.6696    0.0000 </r>
       <r>   12.0570    0.0000 </r>
       <r>   12.2576    0.0000 </r>
      </set>
      <set comment="kpoint 9">
       <r>  -19.9565    1.0000 </r>
       <r>  -19.9519    1.0000 </r>
       <r>  -19.9518    1.0000 </r>
       <r>  -19.8615    1.0000 </r>
       <r>  -19.8577    1.0000 </r>
       <r>  -10.6917    1.0000 </r>
       <r>  -10.2329    1.0000 </r>
       <r>  -10.2176    1.0000 </r>
       <r>  -10.2063    1.0000 </r>
       <r>   -4.6957    1.0000 </r>
       <r>   -4.4556    1.0000 </r>
       <r>   -4.4299    1.0000 </r>
       <r>   -4.3403    1.0000 </r>
       <r>   -4.3375    1.0000 </r>
       <r>   -3.8808    1.0000 </r>
       <r>   -2.2990    1.0000 </r>
       <r>   -1.9554    1.0000 </r>
       <r>   -1.7992    1.0000 </r>
       <r>   -0.1835    1.0000 </r>
       <r>   -0.1010    1.0000 </r>
       <r>    0.0530    1.0000 </r>
       <r>    0.1856    1.0000 </r>
       <r>    0.2310    1.0000 </r>
       <r>    0.5216    1.0000 </r>
       <r>    0.7188    1.0000 </r>
       <r>    0.9279    1.0000 </r>
       <r>    1.6415    1.0000 </r>
       <r>    1.6449    1.0000 </r>
       <r>    2.0577    1.0000 </r>
       <r>    2.0930    1.0000 </r>
       <r>    2.6292    1.0000 </r>
       <r>    2.6499    1.0000 </r>
       <r>    3.2720    1.0000 </r>
       <r>    3.2885    1.0000 </r>
       <r>    3.4993    1.0000 </r>
       <r>    3.5097    1.0000 </r>
       <r>    6.1802    0.0000 </r>
       <r>    8.3285    0.0000 </r>
       <r>    8.5189    0.0000 </r>
       <r>    9.0348    0.0000 </r>
       <r>   10.0396    0.0000 </r>
       <r>   10.0794    0.0000 </r>
       <r>   10.3874    0.0000 </r>
       <r>   10.9899    0.0000 </r>
       <r>   11.7482    0.0000 </r>
       <r>   11.7902    0.0000 </r>
       <r>   11.8952    0.0000 </r>
       <r>   12.1663    0.0000 </r>
      </set>
      <set comment="kpoint 10">
       <r>  -19.9558    1.0000 </r>
       <r>  -19.9518    1.0000 </r>
       <r>  -19.9513    1.0000 </r>
       <r>  -19.8622    1.0000 </r>
       <r>  -19.8579    1.0000 </r>
       <r>  -10.9182    1.0000 </r>
       <r>  -10.3636    1.0000 </r>
       <r>  -10.2530    1.0000 </r>
       <r>   -9.8802    1.0000 </r>
       <r>   -4.6507    1.0000 </r>
       <r>   -4.4839    1.0000 </r>
       <r>   -4.4099    1.0000 </r>
       <r>   -4.3671    1.0000 </r>
       <r>   -4.3406    1.0000 </r>
       <r>   -3.5926    1.0000 </r>
       <r>   -1.8135    1.0000 </r>
       <r>   -1.2709    1.0000 </r>
       <r>   -0.9628    1.0000 </r>
       <r>   -0.7166    1.0000 </r>
       <r>   -0.5002    1.0000 </r>
       <r>   -0.2016    1.0000 </r>
       <r>   -0.1172    1.0000 </r>
       <r>    0.0497    1.0000 </r>
       <r>    0.4622    1.0000 </r>
       <r>    0.6442    1.0000 </r>
       <r>    0.8708    1.0000 </r>
       <r>    1.6765    1.0000 </r>
       <r>    1.7505    1.0000 </r>
       <r>    1.8151    1.0000 </r>
       <r>    2.0969    1.0000 </r>
       <r>    2.2266    1.0000 </r>
       <r>    2.3570    1.0000 </r>
       <r>    2.5795    1.0000 </r>
       <r>    3.0362    1.0000 </r>
       <r>    3.3074    1.0000 </r>
       <r>    3.5286    1.0000 </r>
       <r>    6.9951    0.0000 </r>
       <r>    8.0762    0.0000 </r>
       <r>    8.6651    0.0000 </r>
       <r>    9.4886    0.0000 </r>
       <r>    9.8340    0.0000 </r>
       <r>   10.5178    0.0000 </r>
       <r>   10.9063    0.0000 </r>
       <r>   11.2395    0.0000 </r>
       <r>   11.5970    0.0000 </r>
       <r>   12.0597    0.0000 </r>
       <r>   12.1784    0.0000 </r>
       <r>   12.2538    0.0000 </r>
      </set>
      <set comment="kpoint 11">
       <r>  -19.9559    1.0000 </r>
       <r>  -19.9516    1.0000 </r>
       <r>  -19.9513    1.0000 </r>
       <r>  -19.8622    1.0000 </r>
       <r>  -19.8579    1.0000 </r>
       <r>  -10.7989    1.0000 </r>
       <r>  -10.4347    1.0000 </r>
       <r>  -10.1346    1.0000 </r>
       <r>  -10.0740    1.0000 </r>
       <r>   -4.7582    1.0000 </r>
       <r>   -4.4694    1.0000 </r>
       <r>   -4.4624    1.0000 </r>
       <r>   -4.3603    1.0000 </r>
       <r>   -4.3341    1.0000 </r>
       <r>   -3.5483    1.0000 </r>
       <r>   -1.9670    1.0000 </r>
       <r>   -1.3518    1.0000 </r>
       <r>   -1.2342    1.0000 </r>
       <r>   -0.3163    1.0000 </r>
       <r>   -0.1970    1.0000 </r>
       <r>   -0.0100    1.0000 </r>
       <r>    0.0175    1.0000 </r>
       <r>    0.1847    1.0000 </r>
       <r>    0.3890    1.0000 </r>
       <r>    0.5942    1.0000 </r>
       <r>    0.7883    1.0000 </r>
       <r>    1.6838    1.0000 </r>
       <r>    1.7187    1.0000 </r>
       <r>    1.8654    1.0000 </r>
       <r>    1.8878    1.0000 </r>
       <r>    2.3546    1.0000 </r>
       <r>    2.4434    1.0000 </r>
       <r>    3.1308    1.0000 </r>
       <r>    3.1366    1.0000 </r>
       <r>    3.2172    1.0000 </r>
       <r>    3.2677    1.0000 </r>
       <r>    6.5807    0.0000 </r>
       <r>    8.0798    0.0000 </r>
       <r>    8.3354    0.0000 </r>
       <r>    8.8421    0.0000 </r>
       <r>    9.0185    0.0000 </r>
       <r>   10.0509    0.0000 </r>
       <r>   10.3791    0.0000 </r>
       <r>   11.1337    0.0000 </r>
       <r>   11.5317    0.0000 </r>
       <r>   11.6735    0.0000 </r>
       <r>   11.9650    0.0000 </r>
       <r>   12.4613    0.0000 </r>
      </set>
      <set comment="kpoint 12">
       <r>  -19.9556    1.0000 </r>
       <r>  -19.9515    1.0000 </r>
       <r>  -19.9512    1.0000 </r>
       <r>  -19.8625    1.0000 </r>
       <r>  -19.8581    1.0000 </r>
       <r>  -11.0148    1.0000 </r>
       <r>  -10.3788    1.0000 </r>
       <r>  -10.1393    1.0000 </r>
       <r>   -9.8941    1.0000 </r>
       <r>   -4.7654    1.0000 </r>
       <r>   -4.4751    1.0000 </r>
       <r>   -4.4151    1.0000 </r>
       <r>   -4.3908    1.0000 </r>
       <r>   -4.3378    1.0000 </r>
       <r>   -3.5556    1.0000 </r>
       <r>   -1.8864    1.0000 </r>
       <r>   -1.1105    1.0000 </r>
       <r>   -0.7838    1.0000 </r>
       <r>   -0.6263    1.0000 </r>
       <r>   -0.2813    1.0000 </r>
       <r>   -0.0603    1.0000 </r>
       <r>    0.0530    1.0000 </r>
       <r>    0.0948    1.0000 </r>
       <r>    0.4368    1.0000 </r>
       <r>    0.6897    1.0000 </r>
       <r>    0.7158    1.0000 </r>
       <r>    1.6615    1.0000 </r>
       <r>    1.6998    1.0000 </r>
       <r>    1.8054    1.0000 </r>
       <r>    1.9533    1.0000 </r>
       <r>    2.2699    1.0000 </r>
       <r>    2.4371    1.0000 </r>
       <r>    2.6942    1.0000 </r>
       <r>    2.9311    1.0000 </r>
       <r>    3.0687    1.0000 </r>
       <r>    3.7423    1.0000 </r>
       <r>    6.7175    0.0000 </r>
       <r>    7.7021    0.0000 </r>
       <r>    7.9681    0.0000 </r>
       <r>    8.5168    0.0000 </r>
       <r>    9.0930    0.0000 </r>
       <r>    9.7742    0.0000 </r>
       <r>   10.3538    0.0000 </r>
       <r>   10.6631    0.0000 </r>
       <r>   11.2184    0.0000 </r>
       <r>   11.6134    0.0000 </r>
       <r>   11.9112    0.0000 </r>
       <r>   13.6594    0.0000 </r>
      </set>
      <set comment="kpoint 13">
       <r>  -19.9554    1.0000 </r>
       <r>  -19.9512    1.0000 </r>
       <r>  -19.9512    1.0000 </r>
       <r>  -19.8628    1.0000 </r>
       <r>  -19.8582    1.0000 </r>
       <r>  -11.3591    1.0000 </r>
       <r>  -10.1814    1.0000 </r>
       <r>   -9.8865    1.0000 </r>
       <r>   -9.8865    1.0000 </r>
       <r>   -4.7545    1.0000 </r>
       <r>   -4.4143    1.0000 </r>
       <r>   -4.4081    1.0000 </r>
       <r>   -4.4081    1.0000 </r>
       <r>   -4.3532    1.0000 </r>
       <r>   -3.7528    1.0000 </r>
       <r>   -1.9404    1.0000 </r>
       <r>   -1.1551    1.0000 </r>
       <r>   -0.6460    1.0000 </r>
       <r>   -0.2850    1.0000 </r>
       <r>   -0.2679    1.0000 </r>
       <r>   -0.2679    1.0000 </r>
       <r>    0.0944    1.0000 </r>
       <r>    0.0944    1.0000 </r>
       <r>    0.4701    1.0000 </r>
       <r>    0.5565    1.0000 </r>
       <r>    0.5565    1.0000 </r>
       <r>    1.4505    1.0000 </r>
       <r>    1.6671    1.0000 </r>
       <r>    1.8539    1.0000 </r>
       <r>    1.9010    1.0000 </r>
       <r>    2.3183    1.0000 </r>
       <r>    2.4075    1.0000 </r>
       <r>    2.4075    1.0000 </r>
       <r>    3.4200    1.0000 </r>
       <r>    3.7488    1.0000 </r>
       <r>    3.7488    1.0000 </r>
       <r>    6.3581    0.0000 </r>
       <r>    7.4183    0.0000 </r>
       <r>    8.0517    0.0000 </r>
       <r>    8.0517    0.0000 </r>
       <r>    8.4397    0.0000 </r>
       <r>    9.4223    0.0000 </r>
       <r>   10.0261    0.0000 </r>
       <r>   10.3577    0.0000 </r>
       <r>   11.2038    0.0000 </r>
       <r>   11.2038    0.0000 </r>
       <r>   13.9360    0.0000 </r>
       <r>   14.1782    0.0000 </r>
      </set>
      <set comment="kpoint 14">
       <r>  -19.9554    1.0000 </r>
       <r>  -19.9511    1.0000 </r>
       <r>  -19.9511    1.0000 </r>
       <r>  -19.8629    1.0000 </r>
       <r>  -19.8582    1.0000 </r>
       <r>  -10.9991    1.0000 </r>
       <r>  -10.6378    1.0000 </r>
       <r>   -9.8941    1.0000 </r>
       <r>   -9.8941    1.0000 </r>
       <r>   -4.8552    1.0000 </r>
       <r>   -4.4365    1.0000 </r>
       <r>   -4.4230    1.0000 </r>
       <r>   -4.4230    1.0000 </r>
       <r>   -4.3489    1.0000 </r>
       <r>   -3.5812    1.0000 </r>
       <r>   -2.0879    1.0000 </r>
       <r>   -0.7077    1.0000 </r>
       <r>   -0.6866    1.0000 </r>
       <r>   -0.1767    1.0000 </r>
       <r>   -0.1767    1.0000 </r>
       <r>   -0.1652    1.0000 </r>
       <r>    0.0854    1.0000 </r>
       <r>    0.0854    1.0000 </r>
       <r>    0.6546    1.0000 </r>
       <r>    0.6737    1.0000 </r>
       <r>    0.6737    1.0000 </r>
       <r>    1.4631    1.0000 </r>
       <r>    1.6646    1.0000 </r>
       <r>    1.7468    1.0000 </r>
       <r>    1.7810    1.0000 </r>
       <r>    2.6514    1.0000 </r>
       <r>    2.7753    1.0000 </r>
       <r>    2.8719    1.0000 </r>
       <r>    2.8719    1.0000 </r>
       <r>    3.1473    1.0000 </r>
       <r>    3.1473    1.0000 </r>
       <r>    6.5682    0.0000 </r>
       <r>    7.2313    0.0000 </r>
       <r>    7.2313    0.0000 </r>
       <r>    7.6608    0.0000 </r>
       <r>    8.7181    0.0000 </r>
       <r>    8.8891    0.0000 </r>
       <r>    9.8269    0.0000 </r>
       <r>    9.8870    0.0000 </r>
       <r>   12.2540    0.0000 </r>
       <r>   12.2540    0.0000 </r>
       <r>   12.9461    0.0000 </r>
       <r>   13.4925    0.0000 </r>
      </set>
     </set>
     <set comment="spin 2">
      <set comment="kpoint 1">
       <r>  -19.9554    1.0000 </r>
       <r>  -19.9515    1.0000 </r>
       <r>  -19.9515    1.0000 </r>
       <r>  -19.8629    1.0000 </r>
       <r>  -19.8583    1.0000 </r>
       <r>  -11.5431    1.0000 </r>
       <r>   -9.8966    1.0000 </r>
       <r>   -9.8793    1.0000 </r>
       <r>   -9.8793    1.0000 </r>
       <r>   -4.5155    1.0000 </r>
       <r>   -4.4408    1.0000 </r>
       <r>   -4.3931    1.0000 </r>
       <r>   -4.3931    1.0000 </r>
       <r>   -4.3882    1.0000 </r>
       <r>   -4.0169    1.0000 </r>
       <r>   -1.7317    1.0000 </r>
       <r>   -1.0767    1.0000 </r>
       <r>   -1.0711    1.0000 </r>
       <r>   -0.6022    1.0000 </r>
       <r>   -0.3797    1.0000 </r>
       <r>   -0.3797    1.0000 </r>
       <r>    0.0997    1.0000 </r>
       <r>    0.0997    1.0000 </r>
       <r>    0.4560    1.0000 </r>
       <r>    0.4979    1.0000 </r>
       <r>    0.4979    1.0000 </r>
       <r>    1.5115    1.0000 </r>
       <r>    1.5634    1.0000 </r>
       <r>    1.7392    1.0000 </r>
       <r>    2.0859    1.0000 </r>
       <r>    2.1427    1.0000 </r>
       <r>    2.1427    1.0000 </r>
       <r>    2.3101    1.0000 </r>
       <r>    4.1681    1.0000 </r>
       <r>    4.1681    1.0000 </r>
       <r>    4.2113    1.0000 </r>
       <r>    5.5585    0.0000 </r>
       <r>    7.1924    0.0000 </r>
       <r>    8.2462    0.0000 </r>
       <r>    9.1085    0.0000 </r>
       <r>    9.1085    0.0000 </r>
       <r>   10.3731    0.0000 </r>
       <r>   10.7647    0.0000 </r>
       <r>   10.7647    0.0000 </r>
       <r>   10.7968    0.0000 </r>
       <r>   11.5428    0.0000 </r>
       <r>   12.4011    0.0000 </r>
       <r>   12.4950    0.0000 </r>
      </set>
      <set comment="kpoint 2">
       <r>  -19.9557    1.0000 </r>
       <r>  -19.9517    1.0000 </r>
       <r>  -19.9514    1.0000 </r>
       <r>  -19.8626    1.0000 </r>
       <r>  -19.8582    1.0000 </r>
       <r>  -11.3180    1.0000 </r>
       <r>  -10.0819    1.0000 </r>
       <r>   -9.9709    1.0000 </r>
       <r>   -9.9331    1.0000 </r>
       <r>   -4.6059    1.0000 </r>
       <r>   -4.4298    1.0000 </r>
       <r>   -4.4101    1.0000 </r>
       <r>   -4.3769    1.0000 </r>
       <r>   -4.3641    1.0000 </r>
       <r>   -3.8273    1.0000 </r>
       <r>   -1.8163    1.0000 </r>
       <r>   -1.3012    1.0000 </r>
       <r>   -1.0304    1.0000 </r>
       <r>   -0.6284    1.0000 </r>
       <r>   -0.2994    1.0000 </r>
       <r>   -0.1815    1.0000 </r>
       <r>   -0.0631    1.0000 </r>
       <r>    0.0681    1.0000 </r>
       <r>    0.4479    1.0000 </r>
       <r>    0.5112    1.0000 </r>
       <r>    0.7806    1.0000 </r>
       <r>    1.6131    1.0000 </r>
       <r>    1.7381    1.0000 </r>
       <r>    1.8211    1.0000 </r>
       <r>    1.9254    1.0000 </r>
       <r>    2.1091    1.0000 </r>
       <r>    2.3863    1.0000 </r>
       <r>    2.5215    1.0000 </r>
       <r>    3.1954    1.0000 </r>
       <r>    3.6384    1.0000 </r>
       <r>    3.9626    1.0000 </r>
       <r>    6.5316    0.0000 </r>
       <r>    8.1248    0.0000 </r>
       <r>    8.3954    0.0000 </r>
       <r>    8.7459    0.0000 </r>
       <r>    9.1423    0.0000 </r>
       <r>   10.2243    0.0000 </r>
       <r>   10.6970    0.0000 </r>
       <r>   10.9236    0.0000 </r>
       <r>   11.0926    0.0000 </r>
       <r>   11.5229    0.0000 </r>
       <r>   11.9949    0.0000 </r>
       <r>   12.8822    0.0000 </r>
      </set>
      <set comment="kpoint 3">
       <r>  -19.9559    1.0000 </r>
       <r>  -19.9520    1.0000 </r>
       <r>  -19.9514    1.0000 </r>
       <r>  -19.8623    1.0000 </r>
       <r>  -19.8580    1.0000 </r>
       <r>  -10.8934    1.0000 </r>
       <r>  -10.5064    1.0000 </r>
       <r>  -10.0410    1.0000 </r>
       <r>   -9.9752    1.0000 </r>
       <r>   -4.6662    1.0000 </r>
       <r>   -4.4420    1.0000 </r>
       <r>   -4.4245    1.0000 </r>
       <r>   -4.3675    1.0000 </r>
       <r>   -4.3415    1.0000 </r>
       <r>   -3.6174    1.0000 </r>
       <r>   -1.7599    1.0000 </r>
       <r>   -1.3682    1.0000 </r>
       <r>   -0.9806    1.0000 </r>
       <r>   -0.7367    1.0000 </r>
       <r>   -0.4578    1.0000 </r>
       <r>   -0.2398    1.0000 </r>
       <r>    0.0066    1.0000 </r>
       <r>    0.1430    1.0000 </r>
       <r>    0.3892    1.0000 </r>
       <r>    0.6616    1.0000 </r>
       <r>    0.7973    1.0000 </r>
       <r>    1.6739    1.0000 </r>
       <r>    1.7617    1.0000 </r>
       <r>    1.8451    1.0000 </r>
       <r>    2.0546    1.0000 </r>
       <r>    2.1847    1.0000 </r>
       <r>    2.6150    1.0000 </r>
       <r>    2.7695    1.0000 </r>
       <r>    2.8311    1.0000 </r>
       <r>    2.9493    1.0000 </r>
       <r>    3.5952    1.0000 </r>
       <r>    7.0266    0.0000 </r>
       <r>    8.4702    0.0000 </r>
       <r>    8.7191    0.0000 </r>
       <r>    9.5557    0.0000 </r>
       <r>    9.8831    0.0000 </r>
       <r>   10.1083    0.0000 </r>
       <r>   10.6730    0.0000 </r>
       <r>   11.1081    0.0000 </r>
       <r>   11.1238    0.0000 </r>
       <r>   11.7485    0.0000 </r>
       <r>   11.9991    0.0000 </r>
       <r>   12.2885    0.0000 </r>
      </set>
      <set comment="kpoint 4">
       <r>  -19.9560    1.0000 </r>
       <r>  -19.9517    1.0000 </r>
       <r>  -19.9517    1.0000 </r>
       <r>  -19.8623    1.0000 </r>
       <r>  -19.8581    1.0000 </r>
       <r>  -11.0519    1.0000 </r>
       <r>  -10.2027    1.0000 </r>
       <r>  -10.0643    1.0000 </r>
       <r>  -10.0560    1.0000 </r>
       <r>   -4.6857    1.0000 </r>
       <r>   -4.4511    1.0000 </r>
       <r>   -4.4355    1.0000 </r>
       <r>   -4.3584    1.0000 </r>
       <r>   -4.3442    1.0000 </r>
       <r>   -3.7237    1.0000 </r>
       <r>   -1.9976    1.0000 </r>
       <r>   -1.5965    1.0000 </r>
       <r>   -0.9648    1.0000 </r>
       <r>   -0.4704    1.0000 </r>
       <r>   -0.3111    1.0000 </r>
       <r>   -0.2061    1.0000 </r>
       <r>    0.0752    1.0000 </r>
       <r>    0.1818    1.0000 </r>
       <r>    0.4441    1.0000 </r>
       <r>    0.6787    1.0000 </r>
       <r>    0.7739    1.0000 </r>
       <r>    1.6204    1.0000 </r>
       <r>    1.7677    1.0000 </r>
       <r>    1.9249    1.0000 </r>
       <r>    1.9906    1.0000 </r>
       <r>    2.2500    1.0000 </r>
       <r>    2.4941    1.0000 </r>
       <r>    2.6228    1.0000 </r>
       <r>    2.9245    1.0000 </r>
       <r>    3.7250    1.0000 </r>
       <r>    3.7581    1.0000 </r>
       <r>    6.4032    0.0000 </r>
       <r>    8.0835    0.0000 </r>
       <r>    8.3604    0.0000 </r>
       <r>    8.5474    0.0000 </r>
       <r>    9.4091    0.0000 </r>
       <r>   10.4898    0.0000 </r>
       <r>   11.0744    0.0000 </r>
       <r>   11.1708    0.0000 </r>
       <r>   11.2477    0.0000 </r>
       <r>   11.5967    0.0000 </r>
       <r>   12.4478    0.0000 </r>
       <r>   12.7308    0.0000 </r>
      </set>
      <set comment="kpoint 5">
       <r>  -19.9563    1.0000 </r>
       <r>  -19.9520    1.0000 </r>
       <r>  -19.9516    1.0000 </r>
       <r>  -19.8619    1.0000 </r>
       <r>  -19.8579    1.0000 </r>
       <r>  -10.8143    1.0000 </r>
       <r>  -10.3865    1.0000 </r>
       <r>  -10.1685    1.0000 </r>
       <r>  -10.0136    1.0000 </r>
       <r>   -4.6625    1.0000 </r>
       <r>   -4.4682    1.0000 </r>
       <r>   -4.4217    1.0000 </r>
       <r>   -4.3513    1.0000 </r>
       <r>   -4.3391    1.0000 </r>
       <r>   -3.7810    1.0000 </r>
       <r>   -2.1522    1.0000 </r>
       <r>   -1.6585    1.0000 </r>
       <r>   -1.2791    1.0000 </r>
       <r>   -0.6323    1.0000 </r>
       <r>   -0.2120    1.0000 </r>
       <r>    0.0102    1.0000 </r>
       <r>    0.0581    1.0000 </r>
       <r>    0.2296    1.0000 </r>
       <r>    0.4934    1.0000 </r>
       <r>    0.7392    1.0000 </r>
       <r>    0.8196    1.0000 </r>
       <r>    1.6515    1.0000 </r>
       <r>    1.7335    1.0000 </r>
       <r>    1.8215    1.0000 </r>
       <r>    2.0693    1.0000 </r>
       <r>    2.4938    1.0000 </r>
       <r>    2.6485    1.0000 </r>
       <r>    2.8154    1.0000 </r>
       <r>    3.1207    1.0000 </r>
       <r>    3.3718    1.0000 </r>
       <r>    3.5258    1.0000 </r>
       <r>    6.5579    0.0000 </r>
       <r>    8.3733    0.0000 </r>
       <r>    8.7666    0.0000 </r>
       <r>    9.1762    0.0000 </r>
       <r>    9.6925    0.0000 </r>
       <r>   10.3028    0.0000 </r>
       <r>   10.7033    0.0000 </r>
       <r>   10.9487    0.0000 </r>
       <r>   11.3995    0.0000 </r>
       <r>   11.8286    0.0000 </r>
       <r>   12.0757    0.0000 </r>
       <r>   12.3056    0.0000 </r>
      </set>
      <set comment="kpoint 6">
       <r>  -19.9563    1.0000 </r>
       <r>  -19.9520    1.0000 </r>
       <r>  -19.9517    1.0000 </r>
       <r>  -19.8619    1.0000 </r>
       <r>  -19.8579    1.0000 </r>
       <r>  -10.8145    1.0000 </r>
       <r>  -10.3862    1.0000 </r>
       <r>  -10.1689    1.0000 </r>
       <r>  -10.0133    1.0000 </r>
       <r>   -4.6841    1.0000 </r>
       <r>   -4.4432    1.0000 </r>
       <r>   -4.4291    1.0000 </r>
       <r>   -4.3512    1.0000 </r>
       <r>   -4.3385    1.0000 </r>
       <r>   -3.7712    1.0000 </r>
       <r>   -2.1384    1.0000 </r>
       <r>   -1.6914    1.0000 </r>
       <r>   -1.2419    1.0000 </r>
       <r>   -0.7317    1.0000 </r>
       <r>   -0.1495    1.0000 </r>
       <r>    0.0280    1.0000 </r>
       <r>    0.0682    1.0000 </r>
       <r>    0.2148    1.0000 </r>
       <r>    0.5064    1.0000 </r>
       <r>    0.6621    1.0000 </r>
       <r>    0.8992    1.0000 </r>
       <r>    1.6596    1.0000 </r>
       <r>    1.7190    1.0000 </r>
       <r>    1.8408    1.0000 </r>
       <r>    2.0124    1.0000 </r>
       <r>    2.4898    1.0000 </r>
       <r>    2.6928    1.0000 </r>
       <r>    2.9044    1.0000 </r>
       <r>    3.0339    1.0000 </r>
       <r>    3.3640    1.0000 </r>
       <r>    3.5180    1.0000 </r>
       <r>    6.5505    0.0000 </r>
       <r>    8.3655    0.0000 </r>
       <r>    8.7609    0.0000 </r>
       <r>    9.2129    0.0000 </r>
       <r>    9.7212    0.0000 </r>
       <r>   10.2433    0.0000 </r>
       <r>   10.6674    0.0000 </r>
       <r>   10.9807    0.0000 </r>
       <r>   11.4268    0.0000 </r>
       <r>   11.8425    0.0000 </r>
       <r>   12.0989    0.0000 </r>
       <r>   12.2862    0.0000 </r>
      </set>
      <set comment="kpoint 7">
       <r>  -19.9560    1.0000 </r>
       <r>  -19.9518    1.0000 </r>
       <r>  -19.9516    1.0000 </r>
       <r>  -19.8623    1.0000 </r>
       <r>  -19.8581    1.0000 </r>
       <r>  -11.1967    1.0000 </r>
       <r>  -10.1497    1.0000 </r>
       <r>  -10.0444    1.0000 </r>
       <r>   -9.9145    1.0000 </r>
       <r>   -4.5663    1.0000 </r>
       <r>   -4.4320    1.0000 </r>
       <r>   -4.4083    1.0000 </r>
       <r>   -4.3728    1.0000 </r>
       <r>   -4.3548    1.0000 </r>
       <r>   -3.9181    1.0000 </r>
       <r>   -2.0933    1.0000 </r>
       <r>   -1.5114    1.0000 </r>
       <r>   -1.0349    1.0000 </r>
       <r>   -0.8327    1.0000 </r>
       <r>   -0.3079    1.0000 </r>
       <r>   -0.0765    1.0000 </r>
       <r>    0.1198    1.0000 </r>
       <r>    0.1394    1.0000 </r>
       <r>    0.4322    1.0000 </r>
       <r>    0.6483    1.0000 </r>
       <r>    0.9106    1.0000 </r>
       <r>    1.6217    1.0000 </r>
       <r>    1.7626    1.0000 </r>
       <r>    1.8486    1.0000 </r>
       <r>    1.9718    1.0000 </r>
       <r>    2.2214    1.0000 </r>
       <r>    2.5766    1.0000 </r>
       <r>    2.7392    1.0000 </r>
       <r>    2.8730    1.0000 </r>
       <r>    3.5060    1.0000 </r>
       <r>    3.9942    1.0000 </r>
       <r>    6.5397    0.0000 </r>
       <r>    8.2505    0.0000 </r>
       <r>    8.6927    0.0000 </r>
       <r>    8.9939    0.0000 </r>
       <r>    9.4589    0.0000 </r>
       <r>   10.1563    0.0000 </r>
       <r>   10.6687    0.0000 </r>
       <r>   10.9665    0.0000 </r>
       <r>   11.2170    0.0000 </r>
       <r>   11.4358    0.0000 </r>
       <r>   12.5109    0.0000 </r>
       <r>   12.7937    0.0000 </r>
      </set>
      <set comment="kpoint 8">
       <r>  -19.9567    1.0000 </r>
       <r>  -19.9522    1.0000 </r>
       <r>  -19.9517    1.0000 </r>
       <r>  -19.8616    1.0000 </r>
       <r>  -19.8578    1.0000 </r>
       <r>  -10.6927    1.0000 </r>
       <r>  -10.2451    1.0000 </r>
       <r>  -10.2171    1.0000 </r>
       <r>  -10.1945    1.0000 </r>
       <r>   -4.6984    1.0000 </r>
       <r>   -4.4579    1.0000 </r>
       <r>   -4.4065    1.0000 </r>
       <r>   -4.3380    1.0000 </r>
       <r>   -4.3356    1.0000 </r>
       <r>   -3.9384    1.0000 </r>
       <r>   -2.4900    1.0000 </r>
       <r>   -1.8118    1.0000 </r>
       <r>   -1.3996    1.0000 </r>
       <r>   -0.4658    1.0000 </r>
       <r>   -0.3528    1.0000 </r>
       <r>    0.1091    1.0000 </r>
       <r>    0.1492    1.0000 </r>
       <r>    0.4432    1.0000 </r>
       <r>    0.5815    1.0000 </r>
       <r>    0.5910    1.0000 </r>
       <r>    0.8109    1.0000 </r>
       <r>    1.6771    1.0000 </r>
       <r>    1.7090    1.0000 </r>
       <r>    1.9522    1.0000 </r>
       <r>    2.0376    1.0000 </r>
       <r>    2.6340    1.0000 </r>
       <r>    2.7503    1.0000 </r>
       <r>    3.2460    1.0000 </r>
       <r>    3.3424    1.0000 </r>
       <r>    3.5784    1.0000 </r>
       <r>    3.7067    1.0000 </r>
       <r>    5.9623    0.0000 </r>
       <r>    7.8107    0.0000 </r>
       <r>    8.5952    0.0000 </r>
       <r>    9.5240    0.0000 </r>
       <r>    9.9519    0.0000 </r>
       <r>   10.4535    0.0000 </r>
       <r>   10.7476    0.0000 </r>
       <r>   11.2513    0.0000 </r>
       <r>   11.3692    0.0000 </r>
       <r>   11.6688    0.0000 </r>
       <r>   12.0560    0.0000 </r>
       <r>   12.2026    0.0000 </r>
      </set>
      <set comment="kpoint 9">
       <r>  -19.9567    1.0000 </r>
       <r>  -19.9520    1.0000 </r>
       <r>  -19.9520    1.0000 </r>
       <r>  -19.8616    1.0000 </r>
       <r>  -19.8578    1.0000 </r>
       <r>  -10.6921    1.0000 </r>
       <r>  -10.2333    1.0000 </r>
       <r>  -10.2181    1.0000 </r>
       <r>  -10.2067    1.0000 </r>
       <r>   -4.6960    1.0000 </r>
       <r>   -4.4559    1.0000 </r>
       <r>   -4.4302    1.0000 </r>
       <r>   -4.3405    1.0000 </r>
       <r>   -4.3378    1.0000 </r>
       <r>   -3.8812    1.0000 </r>
       <r>   -2.2995    1.0000 </r>
       <r>   -1.9559    1.0000 </r>
       <r>   -1.7997    1.0000 </r>
       <r>   -0.1839    1.0000 </r>
       <r>   -0.1014    1.0000 </r>
       <r>    0.0526    1.0000 </r>
       <r>    0.1852    1.0000 </r>
       <r>    0.2307    1.0000 </r>
       <r>    0.5212    1.0000 </r>
       <r>    0.7184    1.0000 </r>
       <r>    0.9275    1.0000 </r>
       <r>    1.6412    1.0000 </r>
       <r>    1.6446    1.0000 </r>
       <r>    2.0574    1.0000 </r>
       <r>    2.0927    1.0000 </r>
       <r>    2.6288    1.0000 </r>
       <r>    2.6495    1.0000 </r>
       <r>    3.2716    1.0000 </r>
       <r>    3.2882    1.0000 </r>
       <r>    3.4989    1.0000 </r>
       <r>    3.5093    1.0000 </r>
       <r>    6.1798    0.0000 </r>
       <r>    8.3279    0.0000 </r>
       <r>    8.5182    0.0000 </r>
       <r>    9.0342    0.0000 </r>
       <r>   10.0390    0.0000 </r>
       <r>   10.0787    0.0000 </r>
       <r>   10.3866    0.0000 </r>
       <r>   10.9890    0.0000 </r>
       <r>   11.7475    0.0000 </r>
       <r>   11.7895    0.0000 </r>
       <r>   11.8944    0.0000 </r>
       <r>   12.1656    0.0000 </r>
      </set>
      <set comment="kpoint 10">
       <r>  -19.9559    1.0000 </r>
       <r>  -19.9520    1.0000 </r>
       <r>  -19.9514    1.0000 </r>
       <r>  -19.8623    1.0000 </r>
       <r>  -19.8580    1.0000 </r>
       <r>  -10.9186    1.0000 </r>
       <r>  -10.3640    1.0000 </r>
       <r>  -10.2534    1.0000 </r>
       <r>   -9.8806    1.0000 </r>
       <r>   -4.6510    1.0000 </r>
       <r>   -4.4842    1.0000 </r>
       <r>   -4.4102    1.0000 </r>
       <r>   -4.3674    1.0000 </r>
       <r>   -4.3409    1.0000 </r>
       <r>   -3.5930    1.0000 </r>
       <r>   -1.8140    1.0000 </r>
       <r>   -1.2714    1.0000 </r>
       <r>   -0.9632    1.0000 </r>
       <r>   -0.7170    1.0000 </r>
       <r>   -0.5007    1.0000 </r>
       <r>   -0.2020    1.0000 </r>
       <r>   -0.1177    1.0000 </r>
       <r>    0.0493    1.0000 </r>
       <r>    0.4618    1.0000 </r>
       <r>    0.6437    1.0000 </r>
       <r>    0.8704    1.0000 </r>
       <r>    1.6762    1.0000 </r>
       <r>    1.7502    1.0000 </r>
       <r>    1.8148    1.0000 </r>
       <r>    2.0966    1.0000 </r>
       <r>    2.2262    1.0000 </r>
       <r>    2.3566    1.0000 </r>
       <r>    2.5791    1.0000 </r>
       <r>    3.0358    1.0000 </r>
       <r>    3.3070    1.0000 </r>
       <r>    3.5282    1.0000 </r>
       <r>    6.9947    0.0000 </r>
       <r>    8.0754    0.0000 </r>
       <r>    8.6644    0.0000 </r>
       <r>    9.4878    0.0000 </r>
       <r>    9.8333    0.0000 </r>
       <r>   10.5171    0.0000 </r>
       <r>   10.9055    0.0000 </r>
       <r>   11.2386    0.0000 </r>
       <r>   11.5963    0.0000 </r>
       <r>   12.0591    0.0000 </r>
       <r>   12.1776    0.0000 </r>
       <r>   12.2531    0.0000 </r>
      </set>
[...]
        <r>  0.0000  0.0043  0.0142  0.0028  0.0393  0.0003  0.0037  0.0180  0.0085 </r>
        <r>  0.0081  0.0000  0.0000  0.0000  0.0001  0.0005  0.0003  0.0003  0.0000 </r>
        <r>  0.0021  0.0136  0.0020  0.0819  0.0000  0.0000  0.0000  0.0000  0.0000 </r>
        <r>  0.0021  0.0387  0.0101  0.0490  0.0000  0.0000  0.0000  0.0000  0.0000 </r>
        <r>  0.0021  0.0662  0.0096  0.0219  0.0000  0.0000  0.0000  0.0000  0.0000 </r>
        <r>  0.0021  0.0315  0.0593  0.0069  0.0000  0.0000  0.0000  0.0000  0.0000 </r>
       </set>
       <set comment="band 25">
        <r>  0.0000  0.0340  0.0098  0.0000  0.0072  0.0000  0.0174  0.0081  0.0012 </r>
        <r>  0.0000  0.0005  0.0009  0.0087  0.0002  0.0003  0.0004  0.0010  0.0005 </r>
        <r>  0.0000  0.0000  0.0005  0.0026  0.0250  0.0191  0.0400  0.0889  0.0390 </r>
        <r>  0.0000  0.0208  0.0042  0.0010  0.0001  0.0009  0.0000  0.0017  0.0012 </r>
        <r>  0.0006  0.0265  0.0069  0.0181  0.0000  0.0000  0.0000  0.0000  0.0000 </r>
        <r>  0.0006  0.0408  0.0001  0.0105  0.0000  0.0000  0.0000  0.0000  0.0000 </r>
        <r>  0.0007  0.0534  0.0096  0.0555  0.0000  0.0000  0.0000  0.0000  0.0000 </r>
        <r>  0.0007  0.0001  0.1170  0.0015  0.0000  0.0000  0.0000  0.0000  0.0000 </r>
       </set>
       <set comment="band 26">
        <r>  0.0000  0.0010  0.0048  0.0380  0.0005  0.0113  0.0052  0.0070  0.0100 </r>
        <r>  0.0000  0.0075  0.0025  0.0000  0.0003  0.0005  0.0012  0.0000  0.0003 </r>
        <r>  0.0000  0.0024  0.0005  0.0001  0.0230  0.0516  0.1013  0.0053  0.0307 </r>
        <r>  0.0000  0.0000  0.0045  0.0216  0.0008  0.0004  0.0026  0.0001  0.0001 </r>
        <r>  0.0007  0.0013  0.0581  0.0593  0.0000  0.0000  0.0000  0.0000  0.0000 </r>
        <r>  0.0007  0.0768  0.0396  0.0022  0.0000  0.0000  0.0000  0.0000  0.0000 </r>
        <r>  0.0006  0.0099  0.0070  0.0346  0.0000  0.0000  0.0000  0.0000  0.0000 </r>
        <r>  0.0006  0.0036  0.0241  0.0237  0.0000  0.0000  0.0000  0.0000  0.0000 </r>
       </set>
       <set comment="band 27">
        <r>  0.0000  0.0000  0.0001  0.0000  0.0001  0.0000  0.0000  0.0001  0.0002 </r>
        <r>  0.0032  0.0000  0.0000  0.0000  0.0495  0.2476  0.1549  0.1651  0.0021 </r>
        <r>  0.0000  0.0000  0.0000  0.0000  0.0009  0.0373  0.0003  0.0376  0.1498 </r>
        <r>  0.0445  0.0000  0.0000  0.0000  0.0000  0.0001  0.0001  0.0001  0.0000 </r>
        <r>  0.0007  0.0003  0.0017  0.0000  0.0000  0.0000  0.0000  0.0000  0.0000 </r>
        <r>  0.0007  0.0004  0.0007  0.0009  0.0000  0.0000  0.0000  0.0000  0.0000 </r>
        <r>  0.0007  0.0000  0.0016  0.0004  0.0000  0.0000  0.0000  0.0000  0.0000 </r>
        <r>  0.0007  0.0011  0.0007  0.0001  0.0000  0.0000  0.0000  0.0000  0.0000 </r>
       </set>
       <set comment="band 28">
        <r>  0.0140  0.0000  0.0000  0.0000  0.0000  0.0001  0.0001  0.0001  0.0000 </r>
        <r>  0.0000  0.0002  0.0008  0.0002  0.0647  0.0069  0.0074  0.0144  0.0000 </r>
        <r>  0.0007  0.0000  0.0000  0.0000  0.0633  0.3167  0.1981  0.2112  0.0026 </r>
        <r>  0.0000  0.0006  0.0021  0.0004  0.0005  0.0001  0.0001  0.0001  0.0000 </r>
        <r>  0.0000  0.0017  0.0008  0.0000  0.0000  0.0000  0.0000  0.0000  0.0000 </r>
        <r>  0.0000  0.0020  0.0005  0.0000  0.0000  0.0000  0.0000  0.0000  0.0000 </r>
        <r>  0.0000  0.0001  0.0001  0.0023  0.0000  0.0000  0.0000  0.0000  0.0000 </r>
        <r>  0.0000  0.0002  0.0003  0.0020  0.0000  0.0000  0.0000  0.0000  0.0000 </r>
       </set>
       <set comment="band 29">
        <r>  0.0000  0.0007  0.0023  0.0005  0.0017  0.0004  0.0002  0.0002  0.0001 </r>
        <r>  0.0067  0.0000  0.0000  0.0000  0.0187  0.0935  0.0585  0.0623  0.0008 </r>
        <r>  0.0000  0.0004  0.0013  0.0003  0.0637  0.0541  0.0019  0.1581  0.3665 </r>
        <r>  0.0017  0.0000  0.0000  0.0000  0.0000  0.0000  0.0000  0.0000  0.0000 </r>
        <r>  0.0000  0.0002  0.0003  0.0055  0.0000  0.0000  0.0000  0.0000  0.0000 </r>
        <r>  0.0000  0.0021  0.0015  0.0024  0.0000  0.0000  0.0000  0.0000  0.0000 </r>
        <r>  0.0000  0.0049  0.0001  0.0011  0.0000  0.0000  0.0000  0.0000  0.0000 </r>
        <r>  0.0000  0.0015  0.0045  0.0001  0.0000  0.0000  0.0000  0.0000  0.0000 </r>
       </set>
       <set comment="band 30">
        <r>  0.0136  0.0000  0.0000  0.0000  0.0000  0.0000  0.0000  0.0000  0.0000 </r>
        <r>  0.0000  0.0000  0.0001  0.0000  0.0092  0.1368  0.0004  0.1600  0.5859 </r>
        <r>  0.0105  0.0000  0.0000  0.0000  0.0005  0.0026  0.0016  0.0017  0.0000 </r>
        <r>  0.0000  0.0000  0.0001  0.0000  0.0000  0.0000  0.0000  0.0000  0.0001 </r>
        <r>  0.0001  0.0007  0.0002  0.0014  0.0000  0.0000  0.0000  0.0000  0.0000 </r>
        <r>  0.0001  0.0003  0.0000  0.0020  0.0000  0.0000  0.0000  0.0000  0.0000 </r>
        <r>  0.0001  0.0010  0.0012  0.0001  0.0000  0.0000  0.0000  0.0000  0.0000 </r>
        <r>  0.0001  0.0017  0.0003  0.0003  0.0000  0.0000  0.0000  0.0000  0.0000 </r>
       </set>
       <set comment="band 31">
        <r>  0.0000  0.0002  0.0006  0.0001  0.0013  0.0000  0.0001  0.0006  0.0002 </r>
        <r>  0.0198  0.0000  0.0000  0.0000  0.0014  0.0068  0.0042  0.0045  0.0001 </r>
        <r>  0.0000  0.0036  0.0120  0.0024  0.4028  0.1158  0.0537  0.0331  0.0561 </r>
        <r>  0.0247  0.0000  0.0000  0.0000  0.0002  0.0008  0.0005  0.0005  0.0000 </r>
        <r>  0.0069  0.0210  0.0009  0.0002  0.0000  0.0000  0.0000  0.0000  0.0000 </r>
        <r>  0.0069  0.0049  0.0114  0.0058  0.0000  0.0000  0.0000  0.0000  0.0000 </r>
        <r>  0.0069  0.0002  0.0164  0.0055  0.0000  0.0000  0.0000  0.0000  0.0000 </r>
        <r>  0.0069  0.0037  0.0001  0.0183  0.0000  0.0000  0.0000  0.0000  0.0000 </r>
       </set>
       <set comment="band 32">
        <r>  0.0240  0.0000  0.0000  0.0000  0.0002  0.0011  0.0007  0.0007  0.0000 </r>
        <r>  0.0000  0.0032  0.0107  0.0021  0.4151  0.0721  0.0507  0.0638  0.0089 </r>
        <r>  0.0157  0.0000  0.0000  0.0000  0.0067  0.0333  0.0208  0.0222  0.0003 </r>
        <r>  0.0000  0.0000  0.0001  0.0000  0.0019  0.0005  0.0003  0.0002  0.0003 </r>
        <r>  0.0057  0.0135  0.0042  0.0054  0.0000  0.0000  0.0000  0.0000  0.0000 </r>
        <r>  0.0057  0.0000  0.0226  0.0005  0.0000  0.0000  0.0000  0.0000  0.0000 </r>
        <r>  0.0057  0.0090  0.0138  0.0003  0.0000  0.0000  0.0000  0.0000  0.0000 </r>
        <r>  0.0057  0.0005  0.0096  0.0130  0.0000  0.0000  0.0000  0.0000  0.0000 </r>
       </set>
       <set comment="band 33">
        <r>  0.0000  0.0082  0.0006  0.0033  0.0002  0.0038  0.0018  0.0024  0.0034 </r>
        <r>  0.0000  0.0084  0.0051  0.0023  0.0255  0.0475  0.1074  0.0031  0.0266 </r>
        <r>  0.0000  0.0050  0.0000  0.0084  0.0059  0.0867  0.0504  0.0465  0.0733 </r>
        <r>  0.0000  0.0133  0.0029  0.0004  0.0004  0.0018  0.0022  0.0005  0.0013 </r>
        <r>  0.0020  0.0001  0.0075  0.0908  0.0000  0.0000  0.0000  0.0000  0.0000 </r>
        <r>  0.0020  0.0017  0.0205  0.0761  0.0000  0.0000  0.0000  0.0000  0.0000 </r>
        <r>  0.0000  0.0034  0.0029  0.0003  0.0000  0.0000  0.0000  0.0000  0.0000 </r>
        <r>  0.0000  0.0063  0.0002  0.0000  0.0000  0.0000  0.0000  0.0000  0.0000 </r>
       </set>
       <set comment="band 34">
        <r>  0.0000  0.0015  0.0035  0.0072  0.0024  0.0000  0.0059  0.0027  0.0004 </r>
        <r>  0.0000  0.0042  0.0001  0.0114  0.0221  0.0225  0.0327  0.0903  0.0425 </r>
        <r>  0.0000  0.0057  0.0045  0.0032  0.0536  0.0009  0.1248  0.0703  0.0132 </r>
        <r>  0.0000  0.0000  0.0026  0.0139  0.0010  0.0002  0.0020  0.0023  0.0007 </r>
        <r>  0.0000  0.0003  0.0023  0.0039  0.0000  0.0000  0.0000  0.0000  0.0000 </r>
        <r>  0.0000  0.0000  0.0001  0.0064  0.0000  0.0000  0.0000  0.0000  0.0000 </r>
        <r>  0.0020  0.0859  0.0121  0.0003  0.0000  0.0000  0.0000  0.0000  0.0000 </r>
        <r>  0.0020  0.0687  0.0278  0.0018  0.0000  0.0000  0.0000  0.0000  0.0000 </r>
       </set>
       <set comment="band 35">
        <r>  0.0000  0.0010  0.0014  0.0021  0.0001  0.0007  0.0000  0.0012  0.0009 </r>
        <r>  0.0000  0.0011  0.0048  0.0131  0.0609  0.0228  0.1941  0.0104  0.0042 </r>
        <r>  0.0000  0.0005  0.0022  0.0169  0.0021  0.0618  0.0007  0.0856  0.0718 </r>
        <r>  0.0000  0.0020  0.0002  0.0069  0.0008  0.0000  0.0021  0.0005  0.0000 </r>
        <r>  0.0001  0.0939  0.0003  0.0002  0.0000  0.0000  0.0000  0.0000  0.0000 </r>
        <r>  0.0001  0.0371  0.0508  0.0065  0.0000  0.0000  0.0000  0.0000  0.0000 </r>
        <r>  0.0001  0.0000  0.0064  0.0033  0.0000  0.0000  0.0000  0.0000  0.0000 </r>
        <r>  0.0001  0.0014  0.0000  0.0082  0.0000  0.0000  0.0000  0.0000  0.0000 </r>
       </set>
       <set comment="band 36">
        <r>  0.0000  0.0026  0.0001  0.0019  0.0006  0.0003  0.0019  0.0001  0.0001 </r>
        <r>  0.0000  0.0141  0.0015  0.0034  0.0054  0.0747  0.0008  0.1196  0.0919 </r>
        <r>  0.0000  0.0152  0.0044  0.0001  0.0483  0.0122  0.1473  0.0131  0.0012 </r>
        <r>  0.0000  0.0052  0.0028  0.0010  0.0000  0.0011  0.0002  0.0010  0.0011 </r>
        <r>  0.0001  0.0093  0.0001  0.0003  0.0000  0.0000  0.0000  0.0000  0.0000 </r>
        <r>  0.0001  0.0031  0.0041  0.0025  0.0000  0.0000  0.0000  0.0000  0.0000 </r>
        <r>  0.0001  0.0054  0.0443  0.0447  0.0000  0.0000  0.0000  0.0000  0.0000 </r>
        <r>  0.0001  0.0017  0.0000  0.0927  0.0000  0.0000  0.0000  0.0000  0.0000 </r>
       </set>
       <set comment="band 37">
        <r>  0.0000  0.0000  0.0000  0.0000  0.0003  0.0029  0.0002  0.0012  0.0084 </r>
        <r>  0.0005  0.0000  0.0000  0.0000  0.0051  0.0255  0.0159  0.0170  0.0002 </r>
        <r>  0.0000  0.0000  0.0001  0.0000  0.0120  0.0017  0.0007  0.0144  0.0224 </r>
        <r>  0.2321  0.0000  0.0000  0.0000  0.0000  0.0001  0.0000  0.0000  0.0000 </r>
        <r>  0.0035  0.0003  0.0725  0.0005  0.0000  0.0000  0.0000  0.0000  0.0000 </r>
        <r>  0.0035  0.0402  0.0041  0.0290  0.0000  0.0000  0.0000  0.0000  0.0000 </r>
        <r>  0.0035  0.0006  0.0287  0.0439  0.0000  0.0000  0.0000  0.0000  0.0000 </r>
        <r>  0.0035  0.0428  0.0268  0.0037  0.0000  0.0000  0.0000  0.0000  0.0000 </r>
       </set>
       <set comment="band 38">
        <r>  0.0000  0.0184  0.0009  0.0100  0.0002  0.0034  0.0000  0.0053  0.0042 </r>
        <r>  0.0000  0.0057  0.0038  0.0020  0.0088  0.0006  0.0245  0.0050  0.0001 </r>
        <r>  0.0000  0.0071  0.0000  0.0085  0.0035  0.0056  0.0045  0.0182  0.0095 </r>
        <r>  0.0000  0.0622  0.0326  0.0097  0.0066  0.0007  0.0188  0.0032  0.0000 </r>
        <r>  0.0246  0.0000  0.0080  0.0011  0.0000  0.0000  0.0000  0.0000  0.0000 </r>
        <r>  0.0246  0.0033  0.0000  0.0057  0.0000  0.0000  0.0000  0.0000  0.0000 </r>
        <r>  0.0014  0.0024  0.0008  0.0017  0.0000  0.0000  0.0000  0.0000  0.0000 </r>
        <r>  0.0014  0.0014  0.0025  0.0010  0.0000  0.0000  0.0000  0.0000  0.0000 </r>
       </set>
       <set comment="band 39">
        <r>  0.0000  0.0050  0.0089  0.0154  0.0028  0.0009  0.0087  0.0005  0.0001 </r>
        <r>  0.0000  0.0034  0.0001  0.0079  0.0000  0.0124  0.0015  0.0124  0.0128 </r>
        <r>  0.0000  0.0054  0.0052  0.0050  0.0058  0.0082  0.0230  0.0002  0.0041 </r>
        <r>  0.0000  0.0215  0.0022  0.0809  0.0000  0.0091  0.0008  0.0098  0.0096 </r>
        <r>  0.0014  0.0014  0.0001  0.0033  0.0000  0.0000  0.0000  0.0000  0.0000 </r>
        <r>  0.0014  0.0025  0.0001  0.0023  0.0000  0.0000  0.0000  0.0000  0.0000 </r>
        <r>  0.0246  0.0011  0.0037  0.0043  0.0000  0.0000  0.0000  0.0000  0.0000 </r>
        <r>  0.0246  0.0073  0.0012  0.0005  0.0000  0.0000  0.0000  0.0000  0.0000 </r>
       </set>
       <set comment="band 40">
        <r>  0.0057  0.0000  0.0000  0.0000  0.0000  0.0000  0.0000  0.0000  0.0000 </r>
        <r>  0.0000  0.0109  0.0362  0.0072  0.0064  0.0016  0.0008  0.0006  0.0006 </r>
        <r>  0.0017  0.0000  0.0000  0.0000  0.0000  0.0000  0.0000  0.0000  0.0000 </r>
        <r>  0.0000  0.0438  0.1460  0.0292  0.0120  0.0019  0.0015  0.0020  0.0002 </r>
        <r>  0.0145  0.0080  0.0005  0.0048  0.0000  0.0000  0.0000  0.0000  0.0000 </r>
        <r>  0.0145  0.0023  0.0097  0.0013  0.0000  0.0000  0.0000  0.0000  0.0000 </r>
        <r>  0.0145  0.0073  0.0015  0.0044  0.0000  0.0000  0.0000  0.0000  0.0000 </r>
        <r>  0.0145  0.0020  0.0013  0.0100  0.0000  0.0000  0.0000  0.0000  0.0000 </r>
       </set>
       <set comment="band 41">
        <r>  0.2431  0.0000  0.0000  0.0000  0.0000  0.0001  0.0001  0.0001  0.0000 </r>
        <r>  0.0000  0.0000  0.0000  0.0000  0.0003  0.0046  0.0000  0.0052  0.0195 </r>
        <r>  0.0113  0.0000  0.0000  0.0000  0.0028  0.0138  0.0086  0.0092  0.0001 </r>
        <r>  0.0000  0.0000  0.0000  0.0000  0.0009  0.0036  0.0000  0.0058  0.0179 </r>
        <r>  0.0047  0.0000  0.0086  0.0143  0.0000  0.0000  0.0000  0.0000  0.0000 </r>
        <r>  0.0047  0.0120  0.0097  0.0012  0.0000  0.0000  0.0000  0.0000  0.0000 </r>
        <r>  0.0047  0.0135  0.0016  0.0078  0.0000  0.0000  0.0000  0.0000  0.0000 </r>
        <r>  0.0047  0.0001  0.0228  0.0000  0.0000  0.0000  0.0000  0.0000  0.0000 </r>
       </set>
       <set comment="band 42">
        <r>  0.0000  0.0180  0.0600  0.0120  0.0032  0.0016  0.0005  0.0001  0.0016 </r>
        <r>  0.0036  0.0000  0.0000  0.0000  0.0000  0.0000  0.0000  0.0000  0.0000 </r>
        <r>  0.0000  0.0116  0.0387  0.0077  0.0070  0.0004  0.0007  0.0022  0.0003 </r>
        <r>  0.0053  0.0000  0.0000  0.0000  0.0003  0.0013  0.0008  0.0009  0.0000 </r>
        <r>  0.0159  0.0036  0.0063  0.0002  0.0000  0.0000  0.0000  0.0000  0.0000 </r>
        <r>  0.0159  0.0007  0.0061  0.0033  0.0000  0.0000  0.0000  0.0000  0.0000 </r>
        <r>  0.0159  0.0006  0.0090  0.0005  0.0000  0.0000  0.0000  0.0000  0.0000 </r>
        <r>  0.0159  0.0038  0.0039  0.0024  0.0000  0.0000  0.0000  0.0000  0.0000 </r>
       </set>
       <set comment="band 43">
        <r>  0.0000  0.0032  0.0108  0.0022  0.0007  0.0009  0.0000  0.0023  0.0058 </r>
        <r>  0.2141  0.0000  0.0000  0.0000  0.0002  0.0012  0.0007  0.0008  0.0000 </r>
        <r>  0.0000  0.0020  0.0066  0.0013  0.0001  0.0025  0.0000  0.0025  0.0099 </r>
        <r>  0.0033  0.0000  0.0000  0.0000  0.0032  0.0161  0.0101  0.0108  0.0001 </r>
        <r>  0.0012  0.0012  0.0038  0.0016  0.0000  0.0000  0.0000  0.0000  0.0000 </r>
        <r>  0.0012  0.0014  0.0048  0.0004  0.0000  0.0000  0.0000  0.0000  0.0000 </r>
        <r>  0.0012  0.0021  0.0037  0.0008  0.0000  0.0000  0.0000  0.0000  0.0000 </r>
        <r>  0.0012  0.0007  0.0050  0.0009  0.0000  0.0000  0.0000  0.0000  0.0000 </r>
       </set>
       <set comment="band 44">
        <r>  0.0212  0.0000  0.0000  0.0000  0.0018  0.0091  0.0057  0.0060  0.0001 </r>
        <r>  0.0000  0.0001  0.0005  0.0001  0.0000  0.0014  0.0000  0.0014  0.0055 </r>
        <r>  0.2083  0.0000  0.0000  0.0000  0.0005  0.0026  0.0016  0.0017  0.0000 </r>
        <r>  0.0000  0.0013  0.0043  0.0009  0.0012  0.0012  0.0000  0.0032  0.0076 </r>
        <r>  0.0080  0.0028  0.0133  0.0023  0.0000  0.0000  0.0000  0.0000  0.0000 </r>
        <r>  0.0080  0.0046  0.0112  0.0026  0.0000  0.0000  0.0000  0.0000  0.0000 </r>
        <r>  0.0080  0.0033  0.0117  0.0033  0.0000  0.0000  0.0000  0.0000  0.0000 </r>
        <r>  0.0080  0.0040  0.0127  0.0017  0.0000  0.0000  0.0000  0.0000  0.0000 </r>
       </set>
       <set comment="band 45">
        <r>  0.0000  0.0103  0.0065  0.0031  0.0000  0.0030  0.0007  0.0026  0.0029 </r>
        <r>  0.0000  0.0162  0.0008  0.0489  0.0000  0.0011  0.0004  0.0008  0.0010 </r>
        <r>  0.0000  0.0003  0.0002  0.0024  0.0017  0.0007  0.0030  0.0047  0.0018 </r>
        <r>  0.0000  0.0518  0.0030  0.1615  0.0001  0.0001  0.0002  0.0000  0.0000 </r>
        <r>  0.0000  0.0182  0.0028  0.0102  0.0000  0.0000  0.0000  0.0000  0.0000 </r>
        <r>  0.0000  0.0233  0.0004  0.0075  0.0000  0.0000  0.0000  0.0000  0.0000 </r>
        <r>  0.0002  0.0040  0.0123  0.0290  0.0000  0.0000  0.0000  0.0000  0.0000 </r>
        <r>  0.0002  0.0305  0.0085  0.0063  0.0000  0.0000  0.0000  0.0000  0.0000 </r>
       </set>
       <set comment="band 46">
        <r>  0.0000  0.0056  0.0001  0.0141  0.0021  0.0001  0.0055  0.0015  0.0001 </r>
        <r>  0.0000  0.0366  0.0211  0.0083  0.0007  0.0000  0.0019  0.0007  0.0001 </r>
        <r>  0.0000  0.0020  0.0008  0.0001  0.0010  0.0032  0.0049  0.0006  0.0021 </r>
        <r>  0.0000  0.1213  0.0690  0.0260  0.0000  0.0001  0.0000  0.0002  0.0001 </r>
        <r>  0.0002  0.0019  0.0403  0.0031  0.0000  0.0000  0.0000  0.0000  0.0000 </r>
        <r>  0.0002  0.0238  0.0000  0.0215  0.0000  0.0000  0.0000  0.0000  0.0000 </r>
        <r>  0.0000  0.0052  0.0061  0.0199  0.0000  0.0000  0.0000  0.0000  0.0000 </r>
        <r>  0.0000  0.0030  0.0122  0.0160  0.0000  0.0000  0.0000  0.0000  0.0000 </r>
       </set>
       <set comment="band 47">
        <r>  0.0000  0.0004  0.0013  0.0003  0.0182  0.0024  0.0021  0.0035  0.0000 </r>
        <r>  0.0247  0.0000  0.0000  0.0000  0.0021  0.0108  0.0068  0.0072  0.0001 </r>
        <r>  0.0000  0.0001  0.0004  0.0001  0.0156  0.0045  0.0021  0.0013  0.0022 </r>
        <r>  0.0026  0.0000  0.0000  0.0000  0.0029  0.0146  0.0091  0.0097  0.0001 </r>
        <r>  0.0051  0.0046  0.0135  0.0034  0.0000  0.0000  0.0000  0.0000  0.0000 </r>
        <r>  0.0051  0.0040  0.0152  0.0023  0.0000  0.0000  0.0000  0.0000  0.0000 </r>
        <r>  0.0051  0.0051  0.0139  0.0025  0.0000  0.0000  0.0000  0.0000  0.0000 </r>
        <r>  0.0051  0.0036  0.0146  0.0032  0.0000  0.0000  0.0000  0.0000  0.0000 </r>
       </set>
       <set comment="band 48">
        <r>  0.0044  0.0456  0.0255  0.0229  0.0006  0.0014  0.0005  0.0018  0.0000 </r>
        <r>  0.0000  0.0010  0.0004  0.0027  0.0107  0.0003  0.0020  0.0007  0.0007 </r>
        <r>  0.0055  0.0286  0.0173  0.0171  0.0012  0.0020  0.0003  0.0030  0.0001 </r>
        <r>  0.0000  0.0006  0.0017  0.0018  0.0179  0.0004  0.0009  0.0017  0.0035 </r>
        <r>  0.0022  0.0085  0.0003  0.0189  0.0000  0.0000  0.0000  0.0000  0.0000 </r>
        <r>  0.0053  0.0069  0.0005  0.0099  0.0000  0.0000  0.0000  0.0000  0.0000 </r>
        <r>  0.0042  0.0154  0.0002  0.0088  0.0000  0.0000  0.0000  0.0000  0.0000 </r>
        <r>  0.0031  0.0074  0.0007  0.0060  0.0000  0.0000  0.0000  0.0000  0.0000 </r>
       </set>
      </set>
     </set>
    </set>
   </array>
  </projected>
 </calculation>
 <structure name="finalpos" >
  <crystal>
   <varray name="basis" >
    <v>       4.93901185       0.00000000      -4.41848219 </v>
    <v>      -0.98753537       4.83927803      -4.41848219 </v>
    <v>       0.00000000       0.00000000       6.62697690 </v>
   </varray>
   <i name="volume">    158.39304179 </i>
   <varray name="rec_basis" >
    <v>       0.20246965       0.04131731       0.00000000 </v>
    <v>       0.00000000       0.20664239       0.00000000 </v>
    <v>       0.13499497       0.16532509       0.15089837 </v>
   </varray>
  </crystal>
  <varray name="positions" >
   <v>       0.75000000       0.25000000       0.50000000 </v>
   <v>       0.00000000       0.00000000       0.00000000 </v>
   <v>       0.25000000       0.75000000       0.50000000 </v>
   <v>       0.50000000       0.50000000       0.00000000 </v>
   <v>       0.36432714       0.37124032       0.47758056 </v>
   <v>       0.89365977       0.88674759       0.52241944 </v>
   <v>       0.11325241       0.63567286       0.00691218 </v>
   <v>       0.62875968       0.10634023       0.99308782 </v>
  </varray>
 </structure>
</modeling>
