<?xml version="1.0" encoding="ISO-8859-1"?>
<modeling>
 <generator>
  <i name="program" type="string">vasp </i>
  <i name="version" type="string">6.4.2  </i>
  <i name="subversion" type="string">20Jul23 (build Mar 15 2024 16:31:38) complex                          parallel </i>
  <i name="platform" type="string">LinuxIFC </i>
  <i name="date" type="string">2025 03 19 </i>
  <i name="time" type="string">14:54:22 </i>
 </generator>
 <incar>
  <i type="string" name="PREC">Accurate</i>
  <i type="string" name="ALGO">Fast</i>
  <i type="int" name="ISPIN">     2</i>
  <i type="int" name="NELM">   200</i>
  <i name="EDIFF">      0.00001000</i>
  <i type="int" name="NSW">     0</i>
  <i name="ENCUT">    680.00000000</i>
  <i name="ENAUG">   1360.00000000</i>
  <v name="MAGMOM">      0.60000000      0.60000000      0.60000000      0.60000000      0.60000000      0.60000000      0.60000000      0.60000000</v>
  <i type="logical" name="LREAL"> F  </i>
  <i type="int" name="ISMEAR">    -5</i>
  <i name="SIGMA">      0.20000000</i>
  <i type="int" name="LMAXMIX">     4</i>
  <i type="logical" name="LWAVE"> T  </i>
  <i type="logical" name="LCHARG"> T  </i>
  <i type="logical" name="LVTOT"> T  </i>
  <i type="int" name="LORBIT">    11</i>
  <i type="logical" name="LELF"> F  </i>
  <i type="logical" name="LASPH"> T  </i>
  <i type="logical" name="LAECHG"> T  </i>
  <i type="string" name="GGA">Ps</i>
  <i type="logical" name="LMIXTAU"> T  </i>
 </incar>
 <primitive_cell>
  <structure name="primitive_cell" >
   <crystal>
    <varray name="basis" >
     <v>       5.10874036       0.00000000      -2.30030869 </v>
     <v>      -1.03575852       5.00264257      -2.30030916 </v>
     <v>       0.00000000       0.00000000       6.82313837 </v>
    </varray>
    <i name="volume">    174.38032574 </i>
    <varray name="rec_basis" >
     <v>       0.19574297       0.04052707       0.00000000 </v>
     <v>       0.00000000       0.19989435       0.00000000 </v>
     <v>       0.06599152       0.08105414       0.14656012 </v>
    </varray>
   </crystal>
   <varray name="positions" >
    <v>       0.50000000       0.50000000       1.00000000 </v>
    <v>       0.75000000       0.25000000       0.50000000 </v>
    <v>       0.00000000       0.00000000       0.00000000 </v>
    <v>       0.25000000       0.75000000       0.50000000 </v>
    <v>       0.37121578       0.37500000       0.25000000 </v>
    <v>       0.12500000       0.62878422       0.75000000 </v>
    <v>       0.62500000       0.12121578       0.75000000 </v>
    <v>       0.87878422       0.87500000       0.25000000 </v>
   </varray>
  </structure>
  <varray name="primitive_index" >
   <v type="int" >        1 </v>
   <v type="int" >        2 </v>
   <v type="int" >        3 </v>
   <v type="int" >        4 </v>
   <v type="int" >        5 </v>
   <v type="int" >        6 </v>
   <v type="int" >        7 </v>
   <v type="int" >        8 </v>
  </varray>
 </primitive_cell>
 <kpoints>
  <generation param="Gamma">
   <v type="int" name="divisions">       4        4        3 </v>
   <v name="usershift">      0.00000000       0.00000000       0.00000000 </v>
   <v name="genvec1">      0.25000000       0.00000000       0.00000000 </v>
   <v name="genvec2">      0.00000000       0.25000000       0.00000000 </v>
   <v name="genvec3">     -0.00000000       0.00000000       0.33333333 </v>
   <v name="shift">      0.00000000       0.00000000       0.00000000 </v>
  </generation>
  <varray name="kpointlist" >
   <v>       0.00000000       0.00000000       0.00000000 </v>
   <v>       0.25000000      -0.00000000       0.00000000 </v>
   <v>       0.50000000      -0.00000000       0.00000000 </v>
   <v>       0.25000000       0.25000000       0.00000000 </v>
   <v>       0.50000000       0.25000000       0.00000000 </v>
   <v>      -0.25000000       0.25000000       0.00000000 </v>
   <v>       0.50000000       0.50000000       0.00000000 </v>
   <v>       0.00000000      -0.00000000       0.33333333 </v>
   <v>       0.25000000       0.00000000       0.33333333 </v>
   <v>       0.50000000      -0.00000000       0.33333333 </v>
   <v>      -0.25000000      -0.00000000       0.33333333 </v>
   <v>       0.25000000       0.25000000       0.33333333 </v>
   <v>       0.50000000       0.25000000       0.33333333 </v>
   <v>      -0.25000000       0.25000000       0.33333333 </v>
   <v>       0.50000000       0.50000000       0.33333333 </v>
   <v>      -0.25000000       0.50000000       0.33333333 </v>
   <v>      -0.25000000      -0.25000000       0.33333333 </v>
  </varray>
  <varray name="weights" >
   <v>       0.02083333 </v>
   <v>       0.08333333 </v>
   <v>       0.04166667 </v>
   <v>       0.04166667 </v>
   <v>       0.08333333 </v>
   <v>       0.04166667 </v>
   <v>       0.02083333 </v>
   <v>       0.04166667 </v>
   <v>       0.08333333 </v>
   <v>       0.08333333 </v>
   <v>       0.08333333 </v>
   <v>       0.04166667 </v>
   <v>       0.08333333 </v>
   <v>       0.08333333 </v>
   <v>       0.04166667 </v>
   <v>       0.08333333 </v>
   <v>       0.04166667 </v>
  </varray>
  <varray name="tetrahedronlist"  type="int" >
   <v type="int" >        4        9       10       14       14 </v>
   <v type="int" >        4       10       14       14       16 </v>
   <v type="int" >        4       10       13       14       16 </v>
   <v type="int" >        4        9       10       11       14 </v>
   <v type="int" >        4       10       10       11       14 </v>
   <v type="int" >        4       10       10       13       14 </v>
   <v type="int" >        4       10       11       13       16 </v>
   <v type="int" >        4       11       13       16       17 </v>
   <v type="int" >        4       11       12       13       17 </v>
   <v type="int" >        4       10       10       11       13 </v>
   <v type="int" >        4        9       10       11       13 </v>
   <v type="int" >        4        9       11       12       13 </v>
   <v type="int" >        4        8       11       12       17 </v>
   <v type="int" >        4        8        9       11       12 </v>
   <v type="int" >        4        8        8        9       12 </v>
   <v type="int" >        4        8        9        9       11 </v>
   <v type="int" >        4        9        9       11       14 </v>
   <v type="int" >        2        9        9       14       14 </v>
   <v type="int" >        2        8        8        9        9 </v>
   <v type="int" >        4        5       13       14       16 </v>
   <v type="int" >        4        5       13       15       16 </v>
   <v type="int" >        4        5        7       13       15 </v>
   <v type="int" >        4        5        6       13       14 </v>
   <v type="int" >        4        5        5        6       13 </v>
   <v type="int" >        4        5        5        7       13 </v>
   <v type="int" >        4        7       12       13       15 </v>
   <v type="int" >        4        5        7       12       13 </v>
   <v type="int" >        4        4        5        7       12 </v>
   <v type="int" >        4        5        9       12       13 </v>
   <v type="int" >        4        5        9       10       13 </v>
   <v type="int" >        4        3        5        9       10 </v>
   <v type="int" >        4        4        5        9       12 </v>
   <v type="int" >        4        2        4        5        9 </v>
   <v type="int" >        4        2        3        5        9 </v>
   <v type="int" >        4        3        9       10       14 </v>
   <v type="int" >        4        3       10       14       16 </v>
   <v type="int" >        4        3        5       14       16 </v>
   <v type="int" >        4        2        3        9       14 </v>
   <v type="int" >        4        2        3        6       14 </v>
   <v type="int" >        4        3        5        6       14 </v>
   <v type="int" >        4        6       10       11       14 </v>
   <v type="int" >        4        6       10       13       14 </v>
   <v type="int" >        4        5        6       10       13 </v>
   <v type="int" >        4        2        6       10       11 </v>
   <v type="int" >        4        2        3        6       10 </v>
   <v type="int" >        4        3        5        6       10 </v>
   <v type="int" >        4        4        8        9       12 </v>
   <v type="int" >        4        2        4        8        9 </v>
   <v type="int" >        4        1        2        4        8 </v>
   <v type="int" >        4        2        8        9       11 </v>
   <v type="int" >        4        2        9       11       14 </v>
   <v type="int" >        4        2        6       11       14 </v>
   <v type="int" >        4        1        2        8       11 </v>
   <v type="int" >        4        1        2        2       11 </v>
   <v type="int" >        4        2        2        6       11 </v>
   <v type="int" >        4        4        5        7       15 </v>
   <v type="int" >        4        4        5       15       16 </v>
   <v type="int" >        4        4       15       16       17 </v>
   <v type="int" >        4        2        4        5       16 </v>
   <v type="int" >        4        2        3        5       16 </v>
   <v type="int" >        4        2        3       10       16 </v>
   <v type="int" >        4        2        4       16       17 </v>
   <v type="int" >        4        2       11       16       17 </v>
   <v type="int" >        4        2       10       11       16 </v>
   <v type="int" >        4       12       13       15       17 </v>
   <v type="int" >        4       13       15       16       17 </v>
   <v type="int" >        4       15       15       16       17 </v>
   <v type="int" >        4       13       15       16       16 </v>
   <v type="int" >        4       13       14       16       16 </v>
   <v type="int" >        2       14       14       16       16 </v>
   <v type="int" >        2       15       15       16       16 </v>
   <v type="int" >        4        1        8       11       17 </v>
   <v type="int" >        4        1        2       11       17 </v>
   <v type="int" >        4        1        2        4       17 </v>
  </varray>
  <i name="volumeweight">      0.00347222 </i>
 </kpoints>
 <parameters>
  <separator name="general" >
   <i type="string" name="SYSTEM">unknown system</i>
   <i type="logical" name="LCOMPAT"> F  </i>
  </separator>
  <separator name="electronic" >
   <i type="string" name="PREC">accura</i>
   <i name="ENMAX">    680.00000000</i>
   <i name="ENAUG">   1360.00000000</i>
   <i name="EDIFF">      0.00001000</i>
   <i type="int" name="IALGO">    68</i>
   <i type="int" name="IWAVPR">    10</i>
   <i type="int" name="NBANDS">    48</i>
   <i type="int" name="NBANDSLOW">    -1</i>
   <i type="int" name="NBANDSHIGH">    -1</i>
   <i name="NELECT">     72.00000000</i>
   <i type="int" name="TURBO">     0</i>
   <i type="int" name="IRESTART">     0</i>
   <i type="int" name="NREBOOT">     0</i>
   <i type="int" name="NMIN">     0</i>
   <i name="EREF">      0.00000000</i>
   <separator name="electronic smearing" >
    <i type="int" name="ISMEAR">    -5</i>
    <i name="SIGMA">      0.20000000</i>
    <i name="KSPACING">      0.50000000</i>
    <i type="logical" name="KGAMMA"> T  </i>
    <i type="logical" name="KBLOWUP"> F  </i>
   </separator>
   <separator name="electronic projectors" >
    <i type="logical" name="LREAL"> F  </i>
    <v name="ROPT">      0.00000000      0.00000000      0.00000000</v>
    <i type="int" name="LMAXPAW">  -100</i>
    <i type="int" name="LMAXMIX">     4</i>
    <i type="logical" name="NLSPLINE"> F  </i>
   </separator>
   <separator name="electronic startup" >
    <i type="int" name="ISTART">     0</i>
    <i type="int" name="ICHARG">     2</i>
    <i type="int" name="INIWAV">     1</i>
   </separator>
   <separator name="electronic spin" >
    <i type="int" name="ISPIN">     2</i>
    <i type="logical" name="LNONCOLLINEAR"> F  </i>
    <v name="MAGMOM">      0.60000000      0.60000000      0.60000000      0.60000000      0.60000000      0.60000000      0.60000000      0.60000000</v>
    <i name="NUPDOWN">     -1.00000000</i>
    <i type="logical" name="LSORBIT"> F  </i>
    <v name="SAXIS">      0.00000000      0.00000000      1.00000000</v>
    <i type="logical" name="LSPIRAL"> F  </i>
    <v name="QSPIRAL">      0.00000000      0.00000000      0.00000000</v>
    <i type="logical" name="LZEROZ"> F  </i>
   </separator>
   <separator name="electronic exchange-correlation" >
    <i type="logical" name="LASPH"> T  </i>
    <i type="logical" name="LMETAGGA"> F  </i>
   </separator>
   <separator name="electronic convergence" >
    <i type="int" name="NELM">   200</i>
    <i type="int" name="NELMDL">    -5</i>
    <i type="int" name="NELMIN">     2</i>
    <i name="ENINI">    680.00000000</i>
    <separator name="electronic convergence detail" >
     <i type="logical" name="LDIAG"> T  </i>
     <i type="logical" name="LSUBROT"> F  </i>
     <i name="WEIMIN">      0.00000000</i>
     <i name="EBREAK">      0.00000005</i>
     <i name="DEPER">      0.30000000</i>
     <i type="int" name="NRMM">     4</i>
     <i name="TIME">      0.40000000</i>
    </separator>
   </separator>
   <separator name="electronic mixer" >
    <i name="AMIX">      0.40000000</i>
    <i name="BMIX">      1.00000000</i>
    <i name="AMIN">      0.10000000</i>
    <i name="AMIX_MAG">      1.60000000</i>
    <i name="BMIX_MAG">      1.00000000</i>
    <separator name="electronic mixer details" >
     <i type="int" name="IMIX">     4</i>
     <i type="logical" name="MIXFIRST"> F  </i>
     <i type="int" name="MAXMIX">   -45</i>
     <i name="WC">    100.00000000</i>
     <i type="int" name="INIMIX">     1</i>
     <i type="int" name="MIXPRE">     1</i>
     <i type="int" name="MREMOVE">     5</i>
    </separator>
   </separator>
   <separator name="electronic dipolcorrection" >
    <i type="logical" name="LDIPOL"> F  </i>
    <i type="logical" name="LMONO"> F  </i>
    <i type="int" name="IDIPOL">     0</i>
    <i name="EPSILON">      1.00000000</i>
    <v name="DIPOL">   -100.00000000   -100.00000000   -100.00000000</v>
    <i name="EFIELD">      0.00000000</i>
   </separator>
  </separator>
  <separator name="grids" >
   <i type="int" name="NGX">    48</i>
   <i type="int" name="NGY">    48</i>
   <i type="int" name="NGZ">    60</i>
   <i type="int" name="NGXF">    96</i>
   <i type="int" name="NGYF">    96</i>
   <i type="int" name="NGZF">   120</i>
   <i type="logical" name="ADDGRID"> F  </i>
  </separator>
  <separator name="ionic" >
   <i type="int" name="NSW">     0</i>
   <i type="int" name="IBRION">    -1</i>
   <i type="int" name="MDALGO">     0</i>
   <i type="int" name="ISIF">     2</i>
   <i name="PSTRESS">      0.00000000</i>
   <i name="EDIFFG">      0.00010000</i>
   <i type="int" name="NFREE">     0</i>
   <i name="POTIM">      0.50000000</i>
   <i name="SMASS">     -3.00000000</i>
   <i name="SCALEE">      1.00000000</i>
  </separator>
  <separator name="ionic md" >
   <i name="TEBEG">      0.00010000</i>
   <i name="TEEND">      0.00010000</i>
   <i type="int" name="NBLOCK">     1</i>
   <i type="int" name="KBLOCK">     1</i>
   <i type="int" name="NPACO">   256</i>
   <i name="APACO">     10.00000000</i>
  </separator>
  <separator name="symmetry" >
   <i type="int" name="ISYM">     2</i>
   <i name="SYMPREC">      0.00001000</i>
  </separator>
  <separator name="dos" >
   <i type="int" name="LORBIT">    11</i>
   <v name="RWIGS">     -1.00000000     -1.00000000     -1.00000000</v>
   <i type="int" name="NEDOS">   301</i>
   <i name="EMIN">     10.00000000</i>
   <i name="EMAX">    -10.00000000</i>
   <i name="EFERMI">      0.00000000</i>
  </separator>
  <separator name="writing" >
   <i type="int" name="NWRITE">     2</i>
   <i type="logical" name="LWAVE"> T  </i>
   <i type="logical" name="LDOWNSAMPLE"> F  </i>
   <i type="logical" name="LCHARG"> T  </i>
   <i type="logical" name="LPARD"> F  </i>
   <i type="logical" name="LVTOT"> T  </i>
   <i type="logical" name="LVHAR"> F  </i>
   <i type="logical" name="LELF"> F  </i>
   <i type="logical" name="LOPTICS"> F  </i>
   <v name="STM">      0.00000000      0.00000000      0.00000000      0.00000000      0.00000000      0.00000000      0.00000000</v>
  </separator>
  <separator name="performance" >
   <i type="int" name="NPAR">    12</i>
   <i type="int" name="NSIM">     4</i>
   <i type="int" name="NBLK">    -1</i>
   <i type="logical" name="LPLANE"> T  </i>
   <i type="logical" name="LSCALAPACK"> T  </i>
   <i type="logical" name="LSCAAWARE"> F  </i>
   <i type="logical" name="LSCALU"> F  </i>
   <i type="logical" name="LASYNC"> F  </i>
   <i type="logical" name="LORBITALREAL"> F  </i>
  </separator>
  <separator name="miscellaneous" >
   <i type="int" name="IDIOT">     3</i>
   <i type="int" name="PHON_NSTRUCT">    -1</i>
   <i type="logical" name="LMUSIC"> F  </i>
   <v name="POMASS">     69.72300000     63.54600000     78.96000000</v>
   <v name="DARWINR">      0.00000000      0.00000000      0.00000000</v>
   <v name="DARWINV">      1.00000000      1.00000000      1.00000000</v>
   <i type="logical" name="LCORR"> T  </i>
  </separator>
  <i type="logical" name="GGA_COMPAT"> T  </i>
  <i type="logical" name="LBERRY"> F  </i>
  <i type="int" name="ICORELEVEL">     0</i>
  <i type="logical" name="LDAU"> F  </i>
  <i type="int" name="I_CONSTRAINED_M">     0</i>
  <separator name="electronic exchange-correlation" >
   <i type="string" name="GGA">PS</i>
   <i type="int" name="VOSKOWN">     0</i>
   <i type="logical" name="LHFCALC"> F  </i>
   <i type="string" name="PRECFOCK"></i>
   <i type="logical" name="LSYMGRAD"> F  </i>
   <i type="logical" name="LHFONE"> F  </i>
   <i type="logical" name="LRHFCALC"> F  </i>
   <i type="logical" name="LTHOMAS"> F  </i>
   <i type="logical" name="LMODELHF"> F  </i>
   <i type="logical" name="LFOCKACE"> F  </i>
   <i name="ENCUT4O">     -1.00000000</i>
   <i type="int" name="EXXOEP">     0</i>
   <i type="int" name="FOURORBIT">     0</i>
   <i name="AEXX">      0.00000000</i>
   <i name="HFALPHA">      0.00000000</i>
   <i name="MCALPHA">      0.00000000</i>
   <i name="ALDAX">      1.00000000</i>
   <i name="AGGAX">      1.00000000</i>
   <i name="ALDAC">      1.00000000</i>
   <i name="AGGAC">      1.00000000</i>
   <i type="int" name="NKREDX">     1</i>
   <i type="int" name="NKREDY">     1</i>
   <i type="int" name="NKREDZ">     1</i>
   <i type="logical" name="SHIFTRED"> F  </i>
   <i type="logical" name="ODDONLY"> F  </i>
   <i type="logical" name="EVENONLY"> F  </i>
   <i type="int" name="LMAXFOCK">     0</i>
   <i type="int" name="NMAXFOCKAE">     0</i>
   <i type="logical" name="LFOCKAEDFT"> F  </i>
   <i name="HFSCREEN">      0.00000000</i>
   <i name="HFSCREENC">      0.00000000</i>
   <i type="int" name="NBANDSGWLOW">     0</i>
  </separator>
  <separator name="vdW DFT" >
   <i type="logical" name="LUSE_VDW"> F  </i>
   <i type="int" name="IVDW_NL">     1</i>
   <i type="logical" name="LSPIN_VDW"> F  </i>
   <i name="Zab_VDW">     -0.84910000</i>
   <i name="PARAM1">      0.12340000</i>
   <i name="PARAM2">      1.00000000</i>
   <i name="PARAM3">      0.00000000</i>
  </separator>
  <separator name="model GW" >
   <i type="int" name="MODEL_GW">     0</i>
   <i name="MODEL_EPS0">     13.07852443</i>
   <i name="MODEL_ALPHA">      1.00000000</i>
  </separator>
  <separator name="linear response parameters" >
   <i type="logical" name="LEPSILON"> F  </i>
   <i type="logical" name="LRPA"> F  </i>
   <i type="logical" name="LNABLA"> F  </i>
   <i type="logical" name="LVEL"> F  </i>
   <i name="CSHIFT">      0.10000000</i>
   <i name="OMEGAMAX">     -1.00000000</i>
   <i name="DEG_THRESHOLD">      0.00200000</i>
   <i name="RTIME">     -0.10000000</i>
   <i name="WPLASMAI">      0.00000000</i>
   <v name="DFIELD">      0.00000000      0.00000000      0.00000000</v>
   <v name="WPLASMA">      0.00000000      0.00000000      0.00000000      0.00000000      0.00000000      0.00000000      0.00000000      0.00000000      0.00000000</v>
  </separator>
  <separator name="orbital magnetization" >
   <i type="logical" name="NUCIND"> F  </i>
   <v name="MAGPOS">      0.00000000      0.00000000      0.00000000</v>
   <i type="logical" name="LNICSALL"> T  </i>
   <i type="logical" name="ORBITALMAG"> F  </i>
   <i type="logical" name="LMAGBLOCH"> F  </i>
   <i type="logical" name="LCHIMAG"> F  </i>
   <i type="logical" name="LGAUGE"> T  </i>
   <i type="int" name="MAGATOM">     0</i>
   <v name="MAGDIPOL">      0.00000000      0.00000000      0.00000000</v>
   <v name="AVECCONST">      0.00000000      0.00000000      0.00000000</v>
  </separator>
  <separator name="response functions" >
   <i type="logical" name="LALL_IN_ONE"> F  </i>
   <i type="int" name="IALL_IN_ONE">    -1</i>
   <i type="int" name="NBANDS_WAVE">    -1</i>
   <i type="logical" name="LFINITE_TEMPERATURE"> F  </i>
   <i type="logical" name="LADDER"> F  </i>
   <i type="logical" name="LRPAFORCE"> F  </i>
   <i type="logical" name="LFXC"> F  </i>
   <i type="logical" name="LHARTREE"> T  </i>
   <i type="int" name="IBSE">     0</i>
   <v type="int" name="KPOINT">    -1     0     0     0</v>
   <i type="logical" name="LTCTC"> F  </i>
   <i type="logical" name="LTCTE"> F  </i>
   <i type="logical" name="LTETE"> F  </i>
   <i type="logical" name="LTRIPLET"> F  </i>
   <i type="logical" name="LFXCEPS"> F  </i>
   <i type="logical" name="LFXHEG"> F  </i>
   <i type="int" name="NATURALO">     2</i>
   <i type="logical" name="LHOLEGF"> F  </i>
   <i type="logical" name="L2ORDER"> F  </i>
   <i type="logical" name="LDMP1"> F  </i>
   <i type="logical" name="LMP2LT"> F  </i>
   <i type="logical" name="LSMP2LT"> F  </i>
   <i type="logical" name="LGWLF"> F  </i>
   <i name="ENCUTGW">     -1.60000002</i>
   <i name="ENCUTGWSOFT">     -1.60000002</i>
   <i name="ENCUTLF">     -1.00000000</i>
   <i type="logical" name="LESF_SPLINES"> F  </i>
   <i type="int" name="LMAXMP2">    -1</i>
   <i name="SCISSOR">      0.00000000</i>
   <i type="int" name="NOMEGA">     0</i>
   <i type="int" name="NOMEGAR">     0</i>
   <i type="int" name="NBANDSGW">    -1</i>
   <i type="int" name="NBANDSO">    -1</i>
   <i type="int" name="NBANDSV">    -1</i>
   <i type="int" name="NELMGW">     1</i>
   <i type="int" name="NELMHF">     1</i>
   <i type="int" name="DIM">     3</i>
   <i type="int" name="IESPILON">     4</i>
   <i type="int" name="ANTIRES">     0</i>
   <i name="OMEGAMAX">    -30.00000000</i>
   <i name="OMEGAMIN">    -30.00000000</i>
   <i name="OMEGATL">   -200.00000000</i>
   <i type="int" name="OMEGAGRID">     0</i>
   <i name="CSHIFT">     -0.10000000</i>
   <i type="logical" name="LSELFENERGY"> F  </i>
   <i type="logical" name="LSPECTRAL"> F  </i>
   <i type="logical" name="LSPECTRALGW"> F  </i>
   <i type="logical" name="LSINGLES"> F  </i>
   <i type="logical" name="LFERMIGW"> F  </i>
   <i type="logical" name="ODDONLYGW"> F  </i>
   <i type="logical" name="EVENONLYGW"> F  </i>
   <i type="int" name="NKREDLFX">     1</i>
   <i type="int" name="NKREDLFY">     1</i>
   <i type="int" name="NKREDLFZ">     1</i>
   <i type="int" name="MAXMEM">  2800</i>
   <i type="int" name="TELESCOPE">     0</i>
   <i type="int" name="NTAUPAR">    -1</i>
   <i type="int" name="NOMEGAPAR">    -1</i>
   <i name="DAMP_NEWTON">      0.80000001</i>
   <i name="LAMBDA">      1.00000000</i>
  </separator>
  <separator name="External order field" >
   <i name="OFIELD_KAPPA">      0.00000000</i>
   <v name="OFIELD_K">      0.00000000      0.00000000      0.00000000</v>
   <i name="OFIELD_Q6_NEAR">      0.00000000</i>
   <i name="OFIELD_Q6_FAR">      0.00000000</i>
   <i name="OFIELD_A">      0.00000000</i>
  </separator>
  <separator name="optional k-points parameters" >
   <i type="int" name="KPOINTS_OPT_MODE">     1</i>
   <i type="logical" name="LKPOINTS_OPT"> F  </i>
  </separator>
 </parameters>
 <atominfo>
  <atoms>       8 </atoms>
  <types>       3 </types>
  <array name="atoms" >
   <dimension dim="1">ion</dimension>
   <field type="string">element</field>
   <field type="int">atomtype</field>
   <set>
    <rc><c>Ga</c><c>   1</c></rc>
    <rc><c>Ga</c><c>   1</c></rc>
    <rc><c>Cu</c><c>   2</c></rc>
    <rc><c>Cu</c><c>   2</c></rc>
    <rc><c>Se</c><c>   3</c></rc>
    <rc><c>Se</c><c>   3</c></rc>
    <rc><c>Se</c><c>   3</c></rc>
    <rc><c>Se</c><c>   3</c></rc>
   </set>
  </array>
  <array name="atomtypes" >
   <dimension dim="1">type</dimension>
   <field type="int">atomspertype</field>
   <field type="string">element</field>
   <field>mass</field>
   <field>valence</field>
   <field type="string">pseudopotential</field>
   <set>
    <rc><c>   2</c><c>Ga</c><c>     69.72300000</c><c>     13.00000000</c><c>  PAW_PBE Ga_d 06Jul2010                </c></rc>
    <rc><c>   2</c><c>Cu</c><c>     63.54600000</c><c>     11.00000000</c><c>  PAW_PBE Cu 22Jun2005                  </c></rc>
    <rc><c>   4</c><c>Se</c><c>     78.96000000</c><c>      6.00000000</c><c>  PAW_PBE Se 06Sep2000                  </c></rc>
   </set>
  </array>
 </atominfo>
 <structure name="initialpos" >
  <crystal>
   <varray name="basis" >
    <v>       5.10874036       0.00000000      -2.30030869 </v>
    <v>      -1.03575852       5.00264257      -2.30030916 </v>
    <v>       0.00000000       0.00000000       6.82313837 </v>
   </varray>
   <i name="volume">    174.38032574 </i>
   <varray name="rec_basis" >
    <v>       0.19574297       0.04052707       0.00000000 </v>
    <v>       0.00000000       0.19989435       0.00000000 </v>
    <v>       0.06599152       0.08105414       0.14656012 </v>
   </varray>
  </crystal>
  <varray name="positions" >
   <v>       0.50000000       0.50000000       0.00000000 </v>
   <v>       0.75000000       0.25000000       0.50000000 </v>
   <v>       0.00000000       0.00000000       0.00000000 </v>
   <v>       0.25000000       0.75000000       0.50000000 </v>
   <v>       0.37121578       0.37500000       0.25000000 </v>
   <v>       0.12500000       0.62878422       0.75000000 </v>
   <v>       0.62500000       0.12121578       0.75000000 </v>
   <v>       0.87878422       0.87500000       0.25000000 </v>
  </varray>
 </structure>
 <calculation>
  <scstep>
   <time name="dav">    0.72    0.73</time>
   <time name="total">    1.24    1.26</time>
   <energy>
    <i name="alphaZ">    236.66789905 </i>
    <i name="ewald">  -4863.29910036 </i>
    <i name="hartreedc">  -2637.76833053 </i>
    <i name="XCdc">    182.40154257 </i>
    <i name="pawpsdc">   6498.41434038 </i>
    <i name="pawaedc">  -7322.98261849 </i>
    <i name="eentropy">      0.00000000 </i>
    <i name="bandstr">    484.39465740 </i>
    <i name="atom">   8103.91845111 </i>
    <i name="e_fr_energy">    681.74684113 </i>
    <i name="e_wo_entrp">    681.74684113 </i>
    <i name="e_0_energy">    681.74684113 </i>
   </energy>
  </scstep>
  <scstep>
   <time name="dav">    0.63    0.64</time>
   <time name="total">    0.64    0.65</time>
   <energy>
    <i name="e_fr_energy">     70.51353171 </i>
    <i name="e_wo_entrp">     70.51353171 </i>
    <i name="e_0_energy">     70.51353171 </i>
   </energy>
  </scstep>
  <scstep>
   <time name="dav">    0.74    0.76</time>
   <time name="total">    0.75    0.77</time>
   <energy>
    <i name="e_fr_energy">    -29.51377857 </i>
    <i name="e_wo_entrp">    -29.51377857 </i>
    <i name="e_0_energy">    -29.51377857 </i>
   </energy>
  </scstep>
  <scstep>
   <time name="dav">    0.76    0.77</time>
   <time name="total">    0.76    0.78</time>
   <energy>
    <i name="e_fr_energy">    -35.58234812 </i>
    <i name="e_wo_entrp">    -35.58234812 </i>
    <i name="e_0_energy">    -35.58234812 </i>
   </energy>
  </scstep>
  <scstep>
   <time name="dav">    0.74    0.75</time>
   <time name="total">    0.80    0.82</time>
   <energy>
    <i name="e_fr_energy">    -35.74663831 </i>
    <i name="e_wo_entrp">    -35.74663831 </i>
    <i name="e_0_energy">    -35.74663831 </i>
   </energy>
  </scstep>
  <scstep>
   <time name="diag">    0.20    0.20</time>
   <time name="diis">    0.23    0.23</time>
   <time name="orth">    0.03    0.03</time>
   <time name="total">    0.99    1.01</time>
   <energy>
    <i name="e_fr_energy">    -36.51784677 </i>
    <i name="e_wo_entrp">    -36.51784677 </i>
    <i name="e_0_energy">    -36.51784677 </i>
   </energy>
  </scstep>
  <scstep>
   <time name="diag">    0.20    0.20</time>
   <time name="diis">    0.22    0.22</time>
   <time name="orth">    0.02    0.02</time>
   <time name="total">    0.98    1.00</time>
   <energy>
    <i name="e_fr_energy">    -34.38785983 </i>
    <i name="e_wo_entrp">    -34.38785983 </i>
    <i name="e_0_energy">    -34.38785983 </i>
   </energy>
  </scstep>
  <scstep>
   <time name="diag">    0.20    0.20</time>
   <time name="diis">    0.25    0.25</time>
   <time name="orth">    0.02    0.02</time>
   <time name="total">    1.01    1.02</time>
   <energy>
    <i name="e_fr_energy">    -34.37141860 </i>
    <i name="e_wo_entrp">    -34.37141860 </i>
    <i name="e_0_energy">    -34.37141860 </i>
   </energy>
  </scstep>
  <scstep>
   <time name="diag">    0.19    0.20</time>
   <time name="diis">    0.28    0.28</time>
   <time name="orth">    0.03    0.03</time>
   <time name="total">    1.03    1.05</time>
   <energy>
    <i name="e_fr_energy">    -34.37521152 </i>
    <i name="e_wo_entrp">    -34.37521152 </i>
    <i name="e_0_energy">    -34.37521152 </i>
   </energy>
  </scstep>
  <scstep>
   <time name="diag">    0.19    0.20</time>
   <time name="diis">    0.29    0.29</time>
   <time name="orth">    0.02    0.02</time>
   <time name="total">    1.05    1.07</time>
   <energy>
    <i name="e_fr_energy">    -34.37625129 </i>
    <i name="e_wo_entrp">    -34.37625129 </i>
    <i name="e_0_energy">    -34.37625129 </i>
   </energy>
  </scstep>
  <scstep>
   <time name="diag">    0.19    0.19</time>
   <time name="diis">    0.31    0.31</time>
   <time name="orth">    0.02    0.02</time>
   <time name="total">    1.07    1.09</time>
   <energy>
    <i name="e_fr_energy">    -34.37653504 </i>
    <i name="e_wo_entrp">    -34.37653504 </i>
    <i name="e_0_energy">    -34.37653504 </i>
   </energy>
  </scstep>
  <scstep>
   <time name="diag">    0.19    0.19</time>
   <time name="diis">    0.28    0.28</time>
   <time name="orth">    0.02    0.02</time>
   <time name="total">    1.04    1.06</time>
   <energy>
    <i name="e_fr_energy">    -34.37667140 </i>
    <i name="e_wo_entrp">    -34.37667140 </i>
    <i name="e_0_energy">    -34.37667140 </i>
   </energy>
  </scstep>
  <scstep>
   <time name="diag">    0.19    0.19</time>
   <time name="diis">    0.27    0.27</time>
   <time name="orth">    0.02    0.02</time>
   <time name="total">    1.03    1.05</time>
   <energy>
    <i name="e_fr_energy">    -34.37675548 </i>
    <i name="e_wo_entrp">    -34.37675548 </i>
    <i name="e_0_energy">    -34.37675548 </i>
   </energy>
  </scstep>
  <scstep>
   <time name="diag">    0.20    0.20</time>
   <time name="diis">    0.28    0.28</time>
   <time name="orth">    0.03    0.03</time>
   <time name="total">    1.06    1.08</time>
   <energy>
    <i name="e_fr_energy">    -34.37676194 </i>
    <i name="e_wo_entrp">    -34.37676194 </i>
    <i name="e_0_energy">    -34.37676194 </i>
   </energy>
  </scstep>
  <scstep>
   <time name="diag">    0.22    0.22</time>
   <time name="diis">    0.20    0.21</time>
   <time name="orth">    0.02    0.02</time>
   <time name="total">    0.95    0.97</time>
   <energy>
    <i name="alphaZ">    236.66789905 </i>
    <i name="ewald">  -4863.29910036 </i>
    <i name="hartreedc">  -2591.84359481 </i>
    <i name="XCdc">    181.04807151 </i>
    <i name="pawpsdc">   7587.39900367 </i>
    <i name="pawaedc">  -8416.96916946 </i>
    <i name="eentropy">      0.00000000 </i>
    <i name="bandstr">   -271.29832914 </i>
    <i name="atom">   8103.91845111 </i>
    <i name="e_fr_energy">    -34.37676843 </i>
    <i name="e_wo_entrp">    -34.37676843 </i>
    <i name="e_0_energy">    -34.37676843 </i>
   </energy>
  </scstep>
  <structure>
   <crystal>
    <varray name="basis" >
     <v>       5.10874036       0.00000000      -2.30030869 </v>
     <v>      -1.03575852       5.00264257      -2.30030916 </v>
     <v>       0.00000000       0.00000000       6.82313837 </v>
    </varray>
    <i name="volume">    174.38032574 </i>
    <varray name="rec_basis" >
     <v>       0.19574297       0.04052707       0.00000000 </v>
     <v>       0.00000000       0.19989435       0.00000000 </v>
     <v>       0.06599152       0.08105414       0.14656012 </v>
    </varray>
   </crystal>
   <varray name="positions" >
    <v>       0.50000000       0.50000000       0.00000000 </v>
    <v>       0.75000000       0.25000000       0.50000000 </v>
    <v>       0.00000000       0.00000000       0.00000000 </v>
    <v>       0.25000000       0.75000000       0.50000000 </v>
    <v>       0.37121578       0.37500000       0.25000000 </v>
    <v>       0.12500000       0.62878422       0.75000000 </v>
    <v>       0.62500000       0.12121578       0.75000000 </v>
    <v>       0.87878422       0.87500000       0.25000000 </v>
   </varray>
  </structure>
  <varray name="forces" >
   <v>      -0.00000000       0.00000000       0.00000000 </v>
   <v>      -0.00000000       0.00000000       0.00000000 </v>
   <v>      -0.00000000       0.00000000       0.00000000 </v>
   <v>      -0.00000000       0.00000000       0.00000000 </v>
   <v>      -0.16424486       0.00000000       0.07395441 </v>
   <v>      -0.03329940       0.16083384      -0.07395442 </v>
   <v>       0.03329940      -0.16083384       0.07395442 </v>
   <v>       0.16424486       0.00000000      -0.07395441 </v>
  </varray>
  <varray name="stress" >
   <v>      -7.96338012      -0.06462448      -0.11685326 </v>
   <v>      -0.06462448      -7.99014024      -0.14352434 </v>
   <v>      -0.11685326      -0.14352434      -8.17028359 </v>
  </varray>
  <energy>
   <i name="e_fr_energy">    -34.37676843 </i>
   <i name="e_wo_entrp">    -34.37676843 </i>
   <i name="e_0_energy">    -34.37676843 </i>
  </energy>
  <time name="totalsc">   18.32   18.59</time>
  <eigenvalues>
   <array>
    <dimension dim="1">band</dimension>
    <dimension dim="2">kpoint</dimension>
    <dimension dim="3">spin</dimension>
    <field>eigene</field>
    <field>occ</field>
    <set>
     <set comment="spin 1">
      <set comment="kpoint 1">
       <r>  -11.6219    1.0000 </r>
       <r>  -11.6216    1.0000 </r>
       <r>  -11.6216    1.0000 </r>
       <r>  -11.4691    1.0000 </r>
       <r>  -11.4544    1.0000 </r>
       <r>  -11.4544    1.0000 </r>
       <r>  -11.4106    1.0000 </r>
       <r>  -11.4042    1.0000 </r>
       <r>  -11.4019    1.0000 </r>
       <r>  -11.3895    1.0000 </r>
       <r>  -10.7092    1.0000 </r>
       <r>   -9.0944    1.0000 </r>
       <r>   -9.0944    1.0000 </r>
       <r>   -9.0939    1.0000 </r>
       <r>   -3.8097    1.0000 </r>
       <r>   -2.4714    1.0000 </r>
       <r>   -1.1517    1.0000 </r>
       <r>   -0.7683    1.0000 </r>
       <r>   -0.7319    1.0000 </r>
       <r>   -0.3666    1.0000 </r>
       <r>   -0.3666    1.0000 </r>
       <r>    0.3285    1.0000 </r>
       <r>    0.3285    1.0000 </r>
       <r>    0.6380    1.0000 </r>
       <r>    0.6380    1.0000 </r>
       <r>    0.6948    1.0000 </r>
       <r>    1.6967    1.0000 </r>
       <r>    1.7387    1.0000 </r>
       <r>    1.8319    1.0000 </r>
       <r>    2.1249    1.0000 </r>
       <r>    2.1702    1.0000 </r>
       <r>    2.1702    1.0000 </r>
       <r>    2.2662    1.0000 </r>
       <r>    3.7819    1.0000 </r>
       <r>    3.7819    1.0000 </r>
       <r>    3.8835    1.0000 </r>
       <r>    4.0088    0.0000 </r>
       <r>    5.7079    0.0000 </r>
       <r>    6.0610    0.0000 </r>
       <r>    7.7951    0.0000 </r>
       <r>    7.7951    0.0000 </r>
       <r>    8.1538    0.0000 </r>
       <r>    8.6011    0.0000 </r>
       <r>    8.6014    0.0000 </r>
       <r>    8.6410    0.0000 </r>
       <r>    8.9498    0.0000 </r>
       <r>   10.2650    0.0000 </r>
       <r>   10.4205    0.0000 </r>
      </set>
      <set comment="kpoint 2">
       <r>  -11.6316    1.0000 </r>
       <r>  -11.6242    1.0000 </r>
       <r>  -11.6114    1.0000 </r>
       <r>  -11.4891    1.0000 </r>
       <r>  -11.4645    1.0000 </r>
       <r>  -11.4521    1.0000 </r>
       <r>  -11.4103    1.0000 </r>
       <r>  -11.4040    1.0000 </r>
       <r>  -11.4004    1.0000 </r>
       <r>  -11.3899    1.0000 </r>
       <r>  -10.4766    1.0000 </r>
       <r>   -9.2869    1.0000 </r>
       <r>   -9.1760    1.0000 </r>
       <r>   -9.1355    1.0000 </r>
       <r>   -3.6018    1.0000 </r>
       <r>   -2.5513    1.0000 </r>
       <r>   -1.2352    1.0000 </r>
       <r>   -0.9457    1.0000 </r>
       <r>   -0.5149    1.0000 </r>
       <r>   -0.2363    1.0000 </r>
       <r>   -0.1007    1.0000 </r>
       <r>    0.0796    1.0000 </r>
       <r>    0.3539    1.0000 </r>
       <r>    0.4472    1.0000 </r>
       <r>    0.6270    1.0000 </r>
       <r>    0.7896    1.0000 </r>
       <r>    1.7836    1.0000 </r>
       <r>    1.8551    1.0000 </r>
       <r>    1.8895    1.0000 </r>
       <r>    1.9810    1.0000 </r>
       <r>    2.0814    1.0000 </r>
       <r>    2.3270    1.0000 </r>
       <r>    2.3720    1.0000 </r>
       <r>    2.7760    1.0000 </r>
       <r>    3.2731    1.0000 </r>
       <r>    3.6317    1.0000 </r>
       <r>    5.4256    0.0000 </r>
       <r>    6.3334    0.0000 </r>
       <r>    6.6601    0.0000 </r>
       <r>    7.1266    0.0000 </r>
       <r>    7.3360    0.0000 </r>
       <r>    8.1086    0.0000 </r>
       <r>    8.6677    0.0000 </r>
       <r>    8.6929    0.0000 </r>
       <r>    8.9811    0.0000 </r>
       <r>    9.5020    0.0000 </r>
       <r>    9.9773    0.0000 </r>
       <r>   10.7613    0.0000 </r>
      </set>
      <set comment="kpoint 3">
       <r>  -11.6395    1.0000 </r>
       <r>  -11.6279    1.0000 </r>
       <r>  -11.5977    1.0000 </r>
       <r>  -11.5148    1.0000 </r>
       <r>  -11.4662    1.0000 </r>
       <r>  -11.4503    1.0000 </r>
       <r>  -11.4089    1.0000 </r>
       <r>  -11.4064    1.0000 </r>
       <r>  -11.3963    1.0000 </r>
       <r>  -11.3913    1.0000 </r>
       <r>  -10.0605    1.0000 </r>
       <r>   -9.6931    1.0000 </r>
       <r>   -9.2407    1.0000 </r>
       <r>   -9.1759    1.0000 </r>
       <r>   -3.3537    1.0000 </r>
       <r>   -2.5231    1.0000 </r>
       <r>   -1.2122    1.0000 </r>
       <r>   -0.8637    1.0000 </r>
       <r>   -0.7909    1.0000 </r>
       <r>   -0.4612    1.0000 </r>
       <r>   -0.0435    1.0000 </r>
       <r>    0.1835    1.0000 </r>
       <r>    0.3705    1.0000 </r>
       <r>    0.4152    1.0000 </r>
       <r>    0.5914    1.0000 </r>
       <r>    0.8288    1.0000 </r>
       <r>    1.8455    1.0000 </r>
       <r>    1.8870    1.0000 </r>
       <r>    1.9107    1.0000 </r>
       <r>    2.0252    1.0000 </r>
       <r>    2.1418    1.0000 </r>
       <r>    2.4490    1.0000 </r>
       <r>    2.5139    1.0000 </r>
       <r>    2.6238    1.0000 </r>
       <r>    2.7123    1.0000 </r>
       <r>    3.2987    1.0000 </r>
       <r>    6.0171    0.0000 </r>
       <r>    6.3975    0.0000 </r>
       <r>    7.0081    0.0000 </r>
       <r>    7.9344    0.0000 </r>
       <r>    7.9609    0.0000 </r>
       <r>    8.2615    0.0000 </r>
       <r>    8.6175    0.0000 </r>
       <r>    9.1065    0.0000 </r>
       <r>    9.3244    0.0000 </r>
       <r>    9.3419    0.0000 </r>
       <r>   10.0853    0.0000 </r>
       <r>   10.1092    0.0000 </r>
      </set>
      <set comment="kpoint 4">
       <r>  -11.6362    1.0000 </r>
       <r>  -11.6303    1.0000 </r>
       <r>  -11.5951    1.0000 </r>
       <r>  -11.5177    1.0000 </r>
       <r>  -11.4617    1.0000 </r>
       <r>  -11.4550    1.0000 </r>
       <r>  -11.4089    1.0000 </r>
       <r>  -11.4046    1.0000 </r>
       <r>  -11.3977    1.0000 </r>
       <r>  -11.3908    1.0000 </r>
       <r>  -10.1998    1.0000 </r>
       <r>   -9.4206    1.0000 </r>
       <r>   -9.2882    1.0000 </r>
       <r>   -9.2300    1.0000 </r>
       <r>   -3.4270    1.0000 </r>
       <r>   -2.7663    1.0000 </r>
       <r>   -1.5056    1.0000 </r>
       <r>   -0.8906    1.0000 </r>
       <r>   -0.3155    1.0000 </r>
       <r>   -0.2991    1.0000 </r>
       <r>   -0.1719    1.0000 </r>
       <r>    0.3543    1.0000 </r>
       <r>    0.3930    1.0000 </r>
       <r>    0.5269    1.0000 </r>
       <r>    0.6823    1.0000 </r>
       <r>    0.7462    1.0000 </r>
       <r>    1.7905    1.0000 </r>
       <r>    1.8871    1.0000 </r>
       <r>    1.9882    1.0000 </r>
       <r>    1.9894    1.0000 </r>
       <r>    2.1683    1.0000 </r>
       <r>    2.3162    1.0000 </r>
       <r>    2.4811    1.0000 </r>
       <r>    2.7409    1.0000 </r>
       <r>    3.4279    1.0000 </r>
       <r>    3.4425    1.0000 </r>
       <r>    5.1379    0.0000 </r>
       <r>    5.9086    0.0000 </r>
       <r>    6.6372    0.0000 </r>
       <r>    6.8485    0.0000 </r>
       <r>    7.8834    0.0000 </r>
       <r>    8.3637    0.0000 </r>
       <r>    8.9449    0.0000 </r>
       <r>    9.1501    0.0000 </r>
       <r>    9.3006    0.0000 </r>
       <r>    9.6284    0.0000 </r>
       <r>   10.4372    0.0000 </r>
       <r>   10.6071    0.0000 </r>
      </set>
      <set comment="kpoint 5">
       <r>  -11.6416    1.0000 </r>
       <r>  -11.6323    1.0000 </r>
       <r>  -11.5856    1.0000 </r>
       <r>  -11.5283    1.0000 </r>
       <r>  -11.4648    1.0000 </r>
       <r>  -11.4565    1.0000 </r>
       <r>  -11.4061    1.0000 </r>
       <r>  -11.4043    1.0000 </r>
       <r>  -11.3967    1.0000 </r>
       <r>  -11.3927    1.0000 </r>
       <r>   -9.9604    1.0000 </r>
       <r>   -9.6030    1.0000 </r>
       <r>   -9.3704    1.0000 </r>
       <r>   -9.2077    1.0000 </r>
       <r>   -3.3888    1.0000 </r>
       <r>   -2.8890    1.0000 </r>
       <r>   -1.5757    1.0000 </r>
       <r>   -1.2613    1.0000 </r>
       <r>   -0.6378    1.0000 </r>
       <r>   -0.0070    1.0000 </r>
       <r>    0.2735    1.0000 </r>
       <r>    0.3343    1.0000 </r>
       <r>    0.4056    1.0000 </r>
       <r>    0.5695    1.0000 </r>
       <r>    0.6958    1.0000 </r>
       <r>    0.7451    1.0000 </r>
       <r>    1.8241    1.0000 </r>
       <r>    1.8636    1.0000 </r>
       <r>    1.9192    1.0000 </r>
       <r>    2.0260    1.0000 </r>
       <r>    2.3304    1.0000 </r>
       <r>    2.4611    1.0000 </r>
       <r>    2.6435    1.0000 </r>
       <r>    2.8148    1.0000 </r>
       <r>    3.1077    1.0000 </r>
       <r>    3.2116    1.0000 </r>
       <r>    5.5446    0.0000 </r>
       <r>    5.8583    0.0000 </r>
       <r>    7.0936    0.0000 </r>
       <r>    7.6607    0.0000 </r>
       <r>    7.9891    0.0000 </r>
       <r>    8.2495    0.0000 </r>
       <r>    8.5174    0.0000 </r>
       <r>    8.8721    0.0000 </r>
       <r>    9.3467    0.0000 </r>
       <r>    9.8652    0.0000 </r>
       <r>   10.1295    0.0000 </r>
       <r>   10.3053    0.0000 </r>
      </set>
      <set comment="kpoint 6">
       <r>  -11.6354    1.0000 </r>
       <r>  -11.6284    1.0000 </r>
       <r>  -11.6057    1.0000 </r>
       <r>  -11.4943    1.0000 </r>
       <r>  -11.4668    1.0000 </r>
       <r>  -11.4575    1.0000 </r>
       <r>  -11.4075    1.0000 </r>
       <r>  -11.4018    1.0000 </r>
       <r>  -11.4015    1.0000 </r>
       <r>  -11.3910    1.0000 </r>
       <r>  -10.3589    1.0000 </r>
       <r>   -9.3222    1.0000 </r>
       <r>   -9.2727    1.0000 </r>
       <r>   -9.1155    1.0000 </r>
       <r>   -3.6014    1.0000 </r>
       <r>   -2.7498    1.0000 </r>
       <r>   -1.4390    1.0000 </r>
       <r>   -0.8533    1.0000 </r>
       <r>   -0.7972    1.0000 </r>
       <r>   -0.2126    1.0000 </r>
       <r>    0.1279    1.0000 </r>
       <r>    0.2608    1.0000 </r>
       <r>    0.3922    1.0000 </r>
       <r>    0.4604    1.0000 </r>
       <r>    0.6994    1.0000 </r>
       <r>    0.8127    1.0000 </r>
       <r>    1.8110    1.0000 </r>
       <r>    1.8967    1.0000 </r>
       <r>    1.9205    1.0000 </r>
       <r>    1.9731    1.0000 </r>
       <r>    2.1481    1.0000 </r>
       <r>    2.3981    1.0000 </r>
       <r>    2.5164    1.0000 </r>
       <r>    2.5913    1.0000 </r>
       <r>    3.2212    1.0000 </r>
       <r>    3.6266    1.0000 </r>
       <r>    5.5083    0.0000 </r>
       <r>    6.0084    0.0000 </r>
       <r>    7.0203    0.0000 </r>
       <r>    7.3854    0.0000 </r>
       <r>    8.0194    0.0000 </r>
       <r>    8.2069    0.0000 </r>
       <r>    8.2270    0.0000 </r>
       <r>    8.8545    0.0000 </r>
       <r>    9.2338    0.0000 </r>
       <r>    9.2863    0.0000 </r>
       <r>   10.4254    0.0000 </r>
       <r>   10.7478    0.0000 </r>
      </set>
      <set comment="kpoint 7">
       <r>  -11.6400    1.0000 </r>
       <r>  -11.6400    1.0000 </r>
       <r>  -11.5576    1.0000 </r>
       <r>  -11.5576    1.0000 </r>
       <r>  -11.4629    1.0000 </r>
       <r>  -11.4629    1.0000 </r>
       <r>  -11.4030    1.0000 </r>
       <r>  -11.4030    1.0000 </r>
       <r>  -11.3958    1.0000 </r>
       <r>  -11.3958    1.0000 </r>
       <r>   -9.7045    1.0000 </r>
       <r>   -9.7045    1.0000 </r>
       <r>   -9.3518    1.0000 </r>
       <r>   -9.3517    1.0000 </r>
       <r>   -3.3152    1.0000 </r>
       <r>   -3.3152    1.0000 </r>
       <r>   -1.5932    1.0000 </r>
       <r>   -1.5932    1.0000 </r>
       <r>   -0.3639    1.0000 </r>
       <r>   -0.3639    1.0000 </r>
       <r>    0.4959    1.0000 </r>
       <r>    0.4959    1.0000 </r>
       <r>    0.6416    1.0000 </r>
       <r>    0.6416    1.0000 </r>
       <r>    0.7445    1.0000 </r>
       <r>    0.7445    1.0000 </r>
       <r>    1.8653    1.0000 </r>
       <r>    1.8653    1.0000 </r>
       <r>    2.0162    1.0000 </r>
       <r>    2.0162    1.0000 </r>
       <r>    2.4929    1.0000 </r>
       <r>    2.4929    1.0000 </r>
       <r>    3.0418    1.0000 </r>
       <r>    3.0418    1.0000 </r>
       <r>    3.3766    1.0000 </r>
       <r>    3.3766    1.0000 </r>
       <r>    4.9601    0.0000 </r>
       <r>    4.9601    0.0000 </r>
       <r>    7.1897    0.0000 </r>
       <r>    7.1897    0.0000 </r>
       <r>    8.5313    0.0000 </r>
       <r>    8.5314    0.0000 </r>
       <r>    8.7873    0.0000 </r>
       <r>    8.7875    0.0000 </r>
       <r>    9.5783    0.0000 </r>
       <r>    9.5843    0.0000 </r>
       <r>   10.1985    0.0000 </r>
       <r>   10.2473    0.0000 </r>
      </set>
      <set comment="kpoint 8">
       <r>  -11.6244    1.0000 </r>
       <r>  -11.6244    1.0000 </r>
       <r>  -11.5986    1.0000 </r>
       <r>  -11.5306    1.0000 </r>
       <r>  -11.4480    1.0000 </r>
       <r>  -11.4480    1.0000 </r>
       <r>  -11.4137    1.0000 </r>
       <r>  -11.4090    1.0000 </r>
       <r>  -11.3959    1.0000 </r>
       <r>  -11.3892    1.0000 </r>
       <r>  -10.3535    1.0000 </r>
       <r>   -9.5748    1.0000 </r>
       <r>   -9.1122    1.0000 </r>
       <r>   -9.1122    1.0000 </r>
       <r>   -3.4200    1.0000 </r>
       <r>   -2.8839    1.0000 </r>
       <r>   -1.1091    1.0000 </r>
       <r>   -0.2435    1.0000 </r>
       <r>   -0.0991    1.0000 </r>
       <r>   -0.0800    1.0000 </r>
       <r>   -0.0800    1.0000 </r>
       <r>    0.1668    1.0000 </r>
       <r>    0.3425    1.0000 </r>
       <r>    0.3425    1.0000 </r>
       <r>    0.6039    1.0000 </r>
       <r>    0.6039    1.0000 </r>
       <r>    1.6156    1.0000 </r>
       <r>    1.7484    1.0000 </r>
       <r>    1.8703    1.0000 </r>
       <r>    1.9707    1.0000 </r>
       <r>    2.3440    1.0000 </r>
       <r>    2.4741    1.0000 </r>
       <r>    2.4741    1.0000 </r>
       <r>    2.7715    1.0000 </r>
       <r>    3.1739    1.0000 </r>
       <r>    3.1739    1.0000 </r>
       <r>    5.6737    0.0000 </r>
       <r>    5.7655    0.0000 </r>
       <r>    6.1371    0.0000 </r>
       <r>    6.1371    0.0000 </r>
       <r>    6.3040    0.0000 </r>
       <r>    6.8799    0.0000 </r>
       <r>    7.6312    0.0000 </r>
       <r>    7.9533    0.0000 </r>
       <r>    9.5919    0.0000 </r>
       <r>    9.5925    0.0000 </r>
       <r>   11.7599    0.0000 </r>
       <r>   12.0010    0.0000 </r>
      </set>
      <set comment="kpoint 9">
       <r>  -11.6362    1.0000 </r>
       <r>  -11.6246    1.0000 </r>
       <r>  -11.5803    1.0000 </r>
       <r>  -11.5498    1.0000 </r>
       <r>  -11.4539    1.0000 </r>
       <r>  -11.4469    1.0000 </r>
       <r>  -11.4111    1.0000 </r>
       <r>  -11.4096    1.0000 </r>
       <r>  -11.3931    1.0000 </r>
       <r>  -11.3914    1.0000 </r>
       <r>   -9.9769    1.0000 </r>
       <r>   -9.7937    1.0000 </r>
       <r>   -9.3421    1.0000 </r>
       <r>   -9.1053    1.0000 </r>
       <r>   -3.1634    1.0000 </r>
       <r>   -2.8644    1.0000 </r>
       <r>   -0.9979    1.0000 </r>
       <r>   -0.8078    1.0000 </r>
       <r>   -0.5045    1.0000 </r>
       <r>   -0.0073    1.0000 </r>
       <r>    0.0988    1.0000 </r>
       <r>    0.1687    1.0000 </r>
       <r>    0.3275    1.0000 </r>
       <r>    0.4975    1.0000 </r>
       <r>    0.5858    1.0000 </r>
       <r>    0.5946    1.0000 </r>
       <r>    1.7476    1.0000 </r>
       <r>    1.8479    1.0000 </r>
       <r>    1.8916    1.0000 </r>
       <r>    1.9523    1.0000 </r>
       <r>    2.1982    1.0000 </r>
       <r>    2.3713    1.0000 </r>
       <r>    2.4965    1.0000 </r>
       <r>    2.7032    1.0000 </r>
       <r>    2.9395    1.0000 </r>
       <r>    3.2126    1.0000 </r>
       <r>    5.6790    0.0000 </r>
       <r>    6.0101    0.0000 </r>
       <r>    6.1069    0.0000 </r>
       <r>    6.5899    0.0000 </r>
       <r>    7.3968    0.0000 </r>
       <r>    7.5223    0.0000 </r>
       <r>    8.0862    0.0000 </r>
       <r>    8.4003    0.0000 </r>
       <r>    9.3942    0.0000 </r>
       <r>    9.6273    0.0000 </r>
       <r>   10.0896    0.0000 </r>
       <r>   10.8824    0.0000 </r>
      </set>
      <set comment="kpoint 10">
       <r>  -11.6422    1.0000 </r>
       <r>  -11.6241    1.0000 </r>
       <r>  -11.5979    1.0000 </r>
       <r>  -11.5174    1.0000 </r>
       <r>  -11.4649    1.0000 </r>
       <r>  -11.4496    1.0000 </r>
       <r>  -11.4090    1.0000 </r>
       <r>  -11.4062    1.0000 </r>
       <r>  -11.3963    1.0000 </r>
       <r>  -11.3914    1.0000 </r>
       <r>  -10.0819    1.0000 </r>
       <r>   -9.6036    1.0000 </r>
       <r>   -9.3862    1.0000 </r>
       <r>   -9.0993    1.0000 </r>
       <r>   -3.3324    1.0000 </r>
       <r>   -2.5634    1.0000 </r>
       <r>   -1.1784    1.0000 </r>
       <r>   -0.8605    1.0000 </r>
       <r>   -0.7304    1.0000 </r>
       <r>   -0.3437    1.0000 </r>
       <r>   -0.2688    1.0000 </r>
       <r>    0.0132    1.0000 </r>
       <r>    0.3939    1.0000 </r>
       <r>    0.5519    1.0000 </r>
       <r>    0.6294    1.0000 </r>
       <r>    0.8298    1.0000 </r>
       <r>    1.8544    1.0000 </r>
       <r>    1.8665    1.0000 </r>
       <r>    1.9309    1.0000 </r>
       <r>    2.0547    1.0000 </r>
       <r>    2.1295    1.0000 </r>
       <r>    2.2279    1.0000 </r>
       <r>    2.4273    1.0000 </r>
       <r>    2.7417    1.0000 </r>
       <r>    2.9625    1.0000 </r>
       <r>    3.3205    1.0000 </r>
       <r>    5.9077    0.0000 </r>
       <r>    6.3477    0.0000 </r>
       <r>    6.6228    0.0000 </r>
       <r>    7.6862    0.0000 </r>
       <r>    8.3322    0.0000 </r>
       <r>    8.5295    0.0000 </r>
       <r>    8.9447    0.0000 </r>
       <r>    9.1694    0.0000 </r>
       <r>    9.3438    0.0000 </r>
       <r>    9.7447    0.0000 </r>
       <r>   10.0292    0.0000 </r>
       <r>   10.1894    0.0000 </r>
      </set>
      <set comment="kpoint 11">
       <r>  -11.6316    1.0000 </r>
       <r>  -11.6258    1.0000 </r>
       <r>  -11.6063    1.0000 </r>
       <r>  -11.5031    1.0000 </r>
       <r>  -11.4608    1.0000 </r>
       <r>  -11.4510    1.0000 </r>
       <r>  -11.4111    1.0000 </r>
       <r>  -11.4052    1.0000 </r>
       <r>  -11.3988    1.0000 </r>
       <r>  -11.3897    1.0000 </r>
       <r>  -10.3954    1.0000 </r>
       <r>   -9.3527    1.0000 </r>
       <r>   -9.2286    1.0000 </r>
       <r>   -9.1370    1.0000 </r>
       <r>   -3.5102    1.0000 </r>
       <r>   -2.6103    1.0000 </r>
       <r>   -1.2020    1.0000 </r>
       <r>   -0.9300    1.0000 </r>
       <r>   -0.3563    1.0000 </r>
       <r>   -0.1762    1.0000 </r>
       <r>   -0.1080    1.0000 </r>
       <r>    0.0472    1.0000 </r>
       <r>    0.3823    1.0000 </r>
       <r>    0.4143    1.0000 </r>
       <r>    0.6163    1.0000 </r>
       <r>    0.7459    1.0000 </r>
       <r>    1.7725    1.0000 </r>
       <r>    1.8702    1.0000 </r>
       <r>    1.9079    1.0000 </r>
       <r>    1.9545    1.0000 </r>
       <r>    2.1432    1.0000 </r>
       <r>    2.2852    1.0000 </r>
       <r>    2.4010    1.0000 </r>
       <r>    2.7326    1.0000 </r>
       <r>    3.1194    1.0000 </r>
       <r>    3.6820    1.0000 </r>
       <r>    5.4638    0.0000 </r>
       <r>    6.1311    0.0000 </r>
       <r>    6.7726    0.0000 </r>
       <r>    6.9489    0.0000 </r>
       <r>    7.0697    0.0000 </r>
       <r>    7.8946    0.0000 </r>
       <r>    8.5615    0.0000 </r>
       <r>    8.7528    0.0000 </r>
       <r>    9.0862    0.0000 </r>
       <r>    9.3342    0.0000 </r>
       <r>   10.3101    0.0000 </r>
       <r>   10.6544    0.0000 </r>
      </set>
      <set comment="kpoint 12">
       <r>  -11.6359    1.0000 </r>
       <r>  -11.6335    1.0000 </r>
       <r>  -11.5752    1.0000 </r>
       <r>  -11.5474    1.0000 </r>
       <r>  -11.4562    1.0000 </r>
       <r>  -11.4538    1.0000 </r>
       <r>  -11.4088    1.0000 </r>
       <r>  -11.4072    1.0000 </r>
       <r>  -11.3944    1.0000 </r>
       <r>  -11.3919    1.0000 </r>
       <r>   -9.9532    1.0000 </r>
       <r>   -9.6610    1.0000 </r>
       <r>   -9.2984    1.0000 </r>
       <r>   -9.2861    1.0000 </r>
       <r>   -3.1695    1.0000 </r>
       <r>   -2.9086    1.0000 </r>
       <r>   -1.3876    1.0000 </r>
       <r>   -1.1479    1.0000 </r>
       <r>   -0.2405    1.0000 </r>
       <r>   -0.1226    1.0000 </r>
       <r>    0.2140    1.0000 </r>
       <r>    0.2494    1.0000 </r>
       <r>    0.2687    1.0000 </r>
       <r>    0.5111    1.0000 </r>
       <r>    0.6440    1.0000 </r>
       <r>    0.6614    1.0000 </r>
       <r>    1.8406    1.0000 </r>
       <r>    1.8531    1.0000 </r>
       <r>    1.9235    1.0000 </r>
       <r>    1.9588    1.0000 </r>
       <r>    2.2121    1.0000 </r>
       <r>    2.3352    1.0000 </r>
       <r>    2.7105    1.0000 </r>
       <r>    2.7977    1.0000 </r>
       <r>    3.1160    1.0000 </r>
       <r>    3.1664    1.0000 </r>
       <r>    5.4666    0.0000 </r>
       <r>    5.8530    0.0000 </r>
       <r>    6.6674    0.0000 </r>
       <r>    6.8738    0.0000 </r>
       <r>    7.5940    0.0000 </r>
       <r>    7.7603    0.0000 </r>
       <r>    8.7446    0.0000 </r>
       <r>    8.8541    0.0000 </r>
       <r>    9.5174    0.0000 </r>
       <r>    9.9260    0.0000 </r>
       <r>   10.0931    0.0000 </r>
       <r>   10.4478    0.0000 </r>
      </set>
      <set comment="kpoint 13">
       <r>  -11.6412    1.0000 </r>
       <r>  -11.6327    1.0000 </r>
       <r>  -11.5861    1.0000 </r>
       <r>  -11.5272    1.0000 </r>
       <r>  -11.4655    1.0000 </r>
       <r>  -11.4564    1.0000 </r>
       <r>  -11.4061    1.0000 </r>
       <r>  -11.4044    1.0000 </r>
       <r>  -11.3967    1.0000 </r>
       <r>  -11.3926    1.0000 </r>
       <r>   -9.9517    1.0000 </r>
       <r>   -9.6325    1.0000 </r>
       <r>   -9.3334    1.0000 </r>
       <r>   -9.2235    1.0000 </r>
       <r>   -3.4006    1.0000 </r>
       <r>   -2.8573    1.0000 </r>
       <r>   -1.6319    1.0000 </r>
       <r>   -1.3070    1.0000 </r>
       <r>   -0.4253    1.0000 </r>
       <r>   -0.1792    1.0000 </r>
       <r>    0.3002    1.0000 </r>
       <r>    0.3547    1.0000 </r>
       <r>    0.4494    1.0000 </r>
       <r>    0.5096    1.0000 </r>
       <r>    0.7152    1.0000 </r>
       <r>    0.7432    1.0000 </r>
       <r>    1.8083    1.0000 </r>
       <r>    1.8704    1.0000 </r>
       <r>    1.9304    1.0000 </r>
       <r>    2.0161    1.0000 </r>
       <r>    2.3898    1.0000 </r>
       <r>    2.4488    1.0000 </r>
       <r>    2.7012    1.0000 </r>
       <r>    2.7865    1.0000 </r>
       <r>    3.0855    1.0000 </r>
       <r>    3.1251    1.0000 </r>
       <r>    5.5433    0.0000 </r>
       <r>    5.9431    0.0000 </r>
       <r>    7.0004    0.0000 </r>
       <r>    7.6809    0.0000 </r>
       <r>    8.0467    0.0000 </r>
       <r>    8.2475    0.0000 </r>
       <r>    8.3978    0.0000 </r>
       <r>    8.7450    0.0000 </r>
       <r>    9.5848    0.0000 </r>
       <r>    9.9546    0.0000 </r>
       <r>   10.1841    0.0000 </r>
       <r>   10.4216    0.0000 </r>
      </set>
      <set comment="kpoint 14">
       <r>  -11.6363    1.0000 </r>
       <r>  -11.6318    1.0000 </r>
       <r>  -11.5864    1.0000 </r>
       <r>  -11.5322    1.0000 </r>
       <r>  -11.4588    1.0000 </r>
       <r>  -11.4540    1.0000 </r>
       <r>  -11.4091    1.0000 </r>
       <r>  -11.4060    1.0000 </r>
       <r>  -11.3960    1.0000 </r>
       <r>  -11.3912    1.0000 </r>
       <r>  -10.0866    1.0000 </r>
       <r>   -9.5259    1.0000 </r>
       <r>   -9.2950    1.0000 </r>
       <r>   -9.2658    1.0000 </r>
       <r>   -3.3062    1.0000 </r>
       <r>   -2.8177    1.0000 </r>
       <r>   -1.4656    1.0000 </r>
       <r>   -1.0074    1.0000 </r>
       <r>   -0.3224    1.0000 </r>
       <r>   -0.1646    1.0000 </r>
       <r>    0.0031    1.0000 </r>
       <r>    0.3130    1.0000 </r>
       <r>    0.3263    1.0000 </r>
       <r>    0.5343    1.0000 </r>
       <r>    0.6637    1.0000 </r>
       <r>    0.7075    1.0000 </r>
       <r>    1.8077    1.0000 </r>
       <r>    1.8633    1.0000 </r>
       <r>    1.9737    1.0000 </r>
       <r>    1.9884    1.0000 </r>
       <r>    2.1662    1.0000 </r>
       <r>    2.3470    1.0000 </r>
       <r>    2.5618    1.0000 </r>
       <r>    2.7339    1.0000 </r>
       <r>    3.2847    1.0000 </r>
       <r>    3.3735    1.0000 </r>
       <r>    5.2257    0.0000 </r>
       <r>    5.8852    0.0000 </r>
       <r>    6.5842    0.0000 </r>
       <r>    6.8842    0.0000 </r>
       <r>    7.7209    0.0000 </r>
       <r>    8.0693    0.0000 </r>
       <r>    8.9559    0.0000 </r>
       <r>    9.0413    0.0000 </r>
       <r>    9.2710    0.0000 </r>
       <r>    9.8252    0.0000 </r>
       <r>   10.1681    0.0000 </r>
       <r>   10.6016    0.0000 </r>
      </set>
      <set comment="kpoint 15">
       <r>  -11.6400    1.0000 </r>
       <r>  -11.6400    1.0000 </r>
       <r>  -11.5575    1.0000 </r>
       <r>  -11.5575    1.0000 </r>
       <r>  -11.4629    1.0000 </r>
       <r>  -11.4629    1.0000 </r>
       <r>  -11.4029    1.0000 </r>
       <r>  -11.4029    1.0000 </r>
       <r>  -11.3958    1.0000 </r>
       <r>  -11.3958    1.0000 </r>
       <r>   -9.7035    1.0000 </r>
       <r>   -9.7035    1.0000 </r>
       <r>   -9.3529    1.0000 </r>
       <r>   -9.3529    1.0000 </r>
       <r>   -3.2868    1.0000 </r>
       <r>   -3.2868    1.0000 </r>
       <r>   -1.7386    1.0000 </r>
       <r>   -1.7386    1.0000 </r>
       <r>   -0.0678    1.0000 </r>
       <r>   -0.0678    1.0000 </r>
       <r>    0.4069    1.0000 </r>
       <r>    0.4069    1.0000 </r>
       <r>    0.5665    1.0000 </r>
       <r>    0.5665    1.0000 </r>
       <r>    0.7776    1.0000 </r>
       <r>    0.7776    1.0000 </r>
       <r>    1.8284    1.0000 </r>
       <r>    1.8284    1.0000 </r>
       <r>    2.0358    1.0000 </r>
       <r>    2.0358    1.0000 </r>
       <r>    2.4773    1.0000 </r>
       <r>    2.4773    1.0000 </r>
       <r>    3.0295    1.0000 </r>
       <r>    3.0295    1.0000 </r>
       <r>    3.2218    1.0000 </r>
       <r>    3.2218    1.0000 </r>
       <r>    5.2923    0.0000 </r>
       <r>    5.2923    0.0000 </r>
       <r>    7.0054    0.0000 </r>
       <r>    7.0055    0.0000 </r>
       <r>    8.3361    0.0000 </r>
       <r>    8.3361    0.0000 </r>
       <r>    8.7423    0.0000 </r>
       <r>    8.7423    0.0000 </r>
       <r>    9.5459    0.0000 </r>
       <r>    9.5470    0.0000 </r>
       <r>   10.0516    0.0000 </r>
       <r>   10.0530    0.0000 </r>
      </set>
      <set comment="kpoint 16">
       <r>  -11.6420    1.0000 </r>
       <r>  -11.6320    1.0000 </r>
       <r>  -11.5850    1.0000 </r>
       <r>  -11.5294    1.0000 </r>
       <r>  -11.4642    1.0000 </r>
       <r>  -11.4565    1.0000 </r>
       <r>  -11.4062    1.0000 </r>
       <r>  -11.4043    1.0000 </r>
       <r>  -11.3967    1.0000 </r>
       <r>  -11.3927    1.0000 </r>
       <r>   -9.9684    1.0000 </r>
       <r>   -9.5660    1.0000 </r>
       <r>   -9.4110    1.0000 </r>
       <r>   -9.1964    1.0000 </r>
       <r>   -3.3755    1.0000 </r>
       <r>   -2.9214    1.0000 </r>
       <r>   -1.4998    1.0000 </r>
       <r>   -1.2263    1.0000 </r>
       <r>   -0.7868    1.0000 </r>
       <r>    0.1021    1.0000 </r>
       <r>    0.2547    1.0000 </r>
       <r>    0.2862    1.0000 </r>
       <r>    0.3918    1.0000 </r>
       <r>    0.6150    1.0000 </r>
       <r>    0.6761    1.0000 </r>
       <r>    0.7411    1.0000 </r>
       <r>    1.8388    1.0000 </r>
       <r>    1.8632    1.0000 </r>
       <r>    1.9028    1.0000 </r>
       <r>    2.0542    1.0000 </r>
       <r>    2.2517    1.0000 </r>
       <r>    2.4738    1.0000 </r>
       <r>    2.5923    1.0000 </r>
       <r>    2.8606    1.0000 </r>
       <r>    3.1382    1.0000 </r>
       <r>    3.2663    1.0000 </r>
       <r>    5.5861    0.0000 </r>
       <r>    5.7299    0.0000 </r>
       <r>    7.2628    0.0000 </r>
       <r>    7.6280    0.0000 </r>
       <r>    7.7986    0.0000 </r>
       <r>    8.3635    0.0000 </r>
       <r>    8.5827    0.0000 </r>
       <r>    9.0697    0.0000 </r>
       <r>    9.2526    0.0000 </r>
       <r>    9.7160    0.0000 </r>
       <r>    9.8210    0.0000 </r>
       <r>   10.2671    0.0000 </r>
      </set>
      <set comment="kpoint 17">
       <r>  -11.6356    1.0000 </r>
       <r>  -11.6286    1.0000 </r>
       <r>  -11.6046    1.0000 </r>
       <r>  -11.4972    1.0000 </r>
       <r>  -11.4662    1.0000 </r>
       <r>  -11.4571    1.0000 </r>
       <r>  -11.4078    1.0000 </r>
       <r>  -11.4022    1.0000 </r>
       <r>  -11.4009    1.0000 </r>
       <r>  -11.3909    1.0000 </r>
       <r>  -10.3404    1.0000 </r>
       <r>   -9.3302    1.0000 </r>
       <r>   -9.2749    1.0000 </r>
       <r>   -9.1331    1.0000 </r>
       <r>   -3.5809    1.0000 </r>
       <r>   -2.7479    1.0000 </r>
       <r>   -1.4655    1.0000 </r>
       <r>   -0.8037    1.0000 </r>
       <r>   -0.7659    1.0000 </r>
       <r>   -0.2110    1.0000 </r>
       <r>   -0.0101    1.0000 </r>
       <r>    0.3478    1.0000 </r>
       <r>    0.4077    1.0000 </r>
       <r>    0.4543    1.0000 </r>
       <r>    0.6984    1.0000 </r>
       <r>    0.8032    1.0000 </r>
       <r>    1.8028    1.0000 </r>
       <r>    1.9081    1.0000 </r>
       <r>    1.9343    1.0000 </r>
       <r>    1.9648    1.0000 </r>
       <r>    2.1582    1.0000 </r>
       <r>    2.3479    1.0000 </r>
       <r>    2.5025    1.0000 </r>
       <r>    2.6636    1.0000 </r>
       <r>    3.2571    1.0000 </r>
       <r>    3.6028    1.0000 </r>
       <r>    5.4227    0.0000 </r>
       <r>    5.9964    0.0000 </r>
       <r>    6.9509    0.0000 </r>
       <r>    7.1755    0.0000 </r>
       <r>    8.0948    0.0000 </r>
       <r>    8.1921    0.0000 </r>
       <r>    8.4420    0.0000 </r>
       <r>    8.9921    0.0000 </r>
       <r>    9.2851    0.0000 </r>
       <r>    9.3065    0.0000 </r>
       <r>   10.3966    0.0000 </r>
       <r>   10.7453    0.0000 </r>
      </set>
     </set>
     <set comment="spin 2">
      <set comment="kpoint 1">
       <r>  -11.6219    1.0000 </r>
       <r>  -11.6216    1.0000 </r>
       <r>  -11.6216    1.0000 </r>
       <r>  -11.4692    1.0000 </r>
       <r>  -11.4544    1.0000 </r>
       <r>  -11.4544    1.0000 </r>
       <r>  -11.4106    1.0000 </r>
       <r>  -11.4043    1.0000 </r>
       <r>  -11.4019    1.0000 </r>
       <r>  -11.3895    1.0000 </r>
       <r>  -10.7091    1.0000 </r>
       <r>   -9.0944    1.0000 </r>
       <r>   -9.0944    1.0000 </r>
       <r>   -9.0939    1.0000 </r>
       <r>   -3.8097    1.0000 </r>
       <r>   -2.4713    1.0000 </r>
       <r>   -1.1517    1.0000 </r>
       <r>   -0.7682    1.0000 </r>
       <r>   -0.7319    1.0000 </r>
       <r>   -0.3665    1.0000 </r>
       <r>   -0.3665    1.0000 </r>
       <r>    0.3285    1.0000 </r>
       <r>    0.3285    1.0000 </r>
       <r>    0.6380    1.0000 </r>
       <r>    0.6380    1.0000 </r>
       <r>    0.6949    1.0000 </r>
       <r>    1.6967    1.0000 </r>
       <r>    1.7387    1.0000 </r>
       <r>    1.8319    1.0000 </r>
       <r>    2.1249    1.0000 </r>
       <r>    2.1702    1.0000 </r>
       <r>    2.1702    1.0000 </r>
       <r>    2.2662    1.0000 </r>
       <r>    3.7819    1.0000 </r>
       <r>    3.7819    1.0000 </r>
       <r>    3.8835    1.0000 </r>
       <r>    4.0089    0.0000 </r>
       <r>    5.7080    0.0000 </r>
       <r>    6.0611    0.0000 </r>
       <r>    7.7952    0.0000 </r>
       <r>    7.7952    0.0000 </r>
       <r>    8.1538    0.0000 </r>
       <r>    8.6012    0.0000 </r>
       <r>    8.6012    0.0000 </r>
       <r>    8.6405    0.0000 </r>
       <r>    8.9489    0.0000 </r>
       <r>   10.2587    0.0000 </r>
       <r>   10.2754    0.0000 </r>
      </set>
      <set comment="kpoint 2">
       <r>  -11.6316    1.0000 </r>
       <r>  -11.6243    1.0000 </r>
       <r>  -11.6114    1.0000 </r>
       <r>  -11.4891    1.0000 </r>
       <r>  -11.4645    1.0000 </r>
       <r>  -11.4521    1.0000 </r>
       <r>  -11.4103    1.0000 </r>
       <r>  -11.4040    1.0000 </r>
       <r>  -11.4004    1.0000 </r>
       <r>  -11.3899    1.0000 </r>
       <r>  -10.4765    1.0000 </r>
       <r>   -9.2869    1.0000 </r>
       <r>   -9.1759    1.0000 </r>
       <r>   -9.1355    1.0000 </r>
       <r>   -3.6018    1.0000 </r>
       <r>   -2.5513    1.0000 </r>
       <r>   -1.2351    1.0000 </r>
       <r>   -0.9456    1.0000 </r>
       <r>   -0.5148    1.0000 </r>
       <r>   -0.2363    1.0000 </r>
       <r>   -0.1007    1.0000 </r>
       <r>    0.0797    1.0000 </r>
       <r>    0.3539    1.0000 </r>
       <r>    0.4472    1.0000 </r>
       <r>    0.6270    1.0000 </r>
       <r>    0.7896    1.0000 </r>
       <r>    1.7836    1.0000 </r>
       <r>    1.8551    1.0000 </r>
       <r>    1.8895    1.0000 </r>
       <r>    1.9810    1.0000 </r>
       <r>    2.0814    1.0000 </r>
       <r>    2.3270    1.0000 </r>
       <r>    2.3720    1.0000 </r>
       <r>    2.7760    1.0000 </r>
       <r>    3.2731    1.0000 </r>
       <r>    3.6318    1.0000 </r>
       <r>    5.4257    0.0000 </r>
       <r>    6.3335    0.0000 </r>
       <r>    6.6602    0.0000 </r>
       <r>    7.1267    0.0000 </r>
       <r>    7.3361    0.0000 </r>
       <r>    8.1086    0.0000 </r>
       <r>    8.6678    0.0000 </r>
       <r>    8.6929    0.0000 </r>
       <r>    8.9811    0.0000 </r>
       <r>    9.5022    0.0000 </r>
       <r>    9.9774    0.0000 </r>
       <r>   10.7863    0.0000 </r>
      </set>
      <set comment="kpoint 3">
       <r>  -11.6396    1.0000 </r>
       <r>  -11.6279    1.0000 </r>
       <r>  -11.5978    1.0000 </r>
       <r>  -11.5148    1.0000 </r>
       <r>  -11.4663    1.0000 </r>
       <r>  -11.4504    1.0000 </r>
       <r>  -11.4090    1.0000 </r>
       <r>  -11.4064    1.0000 </r>
       <r>  -11.3963    1.0000 </r>
       <r>  -11.3914    1.0000 </r>
       <r>  -10.0605    1.0000 </r>
       <r>   -9.6930    1.0000 </r>
       <r>   -9.2407    1.0000 </r>
       <r>   -9.1759    1.0000 </r>
       <r>   -3.3536    1.0000 </r>
       <r>   -2.5231    1.0000 </r>
       <r>   -1.2121    1.0000 </r>
       <r>   -0.8637    1.0000 </r>
       <r>   -0.7909    1.0000 </r>
       <r>   -0.4611    1.0000 </r>
       <r>   -0.0435    1.0000 </r>
       <r>    0.1835    1.0000 </r>
       <r>    0.3705    1.0000 </r>
       <r>    0.4152    1.0000 </r>
       <r>    0.5915    1.0000 </r>
       <r>    0.8288    1.0000 </r>
       <r>    1.8455    1.0000 </r>
       <r>    1.8870    1.0000 </r>
       <r>    1.9107    1.0000 </r>
       <r>    2.0252    1.0000 </r>
       <r>    2.1418    1.0000 </r>
       <r>    2.4490    1.0000 </r>
       <r>    2.5139    1.0000 </r>
       <r>    2.6238    1.0000 </r>
       <r>    2.7124    1.0000 </r>
       <r>    3.2988    1.0000 </r>
       <r>    6.0171    0.0000 </r>
       <r>    6.3976    0.0000 </r>
       <r>    7.0082    0.0000 </r>
       <r>    7.9344    0.0000 </r>
       <r>    7.9610    0.0000 </r>
       <r>    8.2616    0.0000 </r>
       <r>    8.6178    0.0000 </r>
       <r>    9.1065    0.0000 </r>
       <r>    9.3277    0.0000 </r>
       <r>    9.3473    0.0000 </r>
       <r>   10.0650    0.0000 </r>
       <r>   10.1310    0.0000 </r>
      </set>
      <set comment="kpoint 4">
       <r>  -11.6362    1.0000 </r>
       <r>  -11.6303    1.0000 </r>
       <r>  -11.5952    1.0000 </r>
       <r>  -11.5178    1.0000 </r>
       <r>  -11.4617    1.0000 </r>
       <r>  -11.4550    1.0000 </r>
       <r>  -11.4090    1.0000 </r>
       <r>  -11.4046    1.0000 </r>
       <r>  -11.3978    1.0000 </r>
       <r>  -11.3908    1.0000 </r>
       <r>  -10.1998    1.0000 </r>
       <r>   -9.4205    1.0000 </r>
       <r>   -9.2882    1.0000 </r>
       <r>   -9.2300    1.0000 </r>
       <r>   -3.4269    1.0000 </r>
       <r>   -2.7663    1.0000 </r>
       <r>   -1.5055    1.0000 </r>
       <r>   -0.8905    1.0000 </r>
       <r>   -0.3155    1.0000 </r>
       <r>   -0.2991    1.0000 </r>
       <r>   -0.1719    1.0000 </r>
       <r>    0.3544    1.0000 </r>
       <r>    0.3930    1.0000 </r>
       <r>    0.5269    1.0000 </r>
       <r>    0.6824    1.0000 </r>
       <r>    0.7462    1.0000 </r>
       <r>    1.7905    1.0000 </r>
       <r>    1.8871    1.0000 </r>
       <r>    1.9882    1.0000 </r>
       <r>    1.9894    1.0000 </r>
       <r>    2.1683    1.0000 </r>
       <r>    2.3162    1.0000 </r>
       <r>    2.4811    1.0000 </r>
       <r>    2.7409    1.0000 </r>
       <r>    3.4279    1.0000 </r>
       <r>    3.4426    1.0000 </r>
       <r>    5.1379    0.0000 </r>
       <r>    5.9086    0.0000 </r>
       <r>    6.6373    0.0000 </r>
       <r>    6.8486    0.0000 </r>
       <r>    7.8835    0.0000 </r>
       <r>    8.3638    0.0000 </r>
       <r>    8.9449    0.0000 </r>
       <r>    9.1500    0.0000 </r>
       <r>    9.3000    0.0000 </r>
       <r>    9.6218    0.0000 </r>
       <r>   10.4045    0.0000 </r>
       <r>   10.6077    0.0000 </r>
      </set>
      <set comment="kpoint 5">
       <r>  -11.6416    1.0000 </r>
       <r>  -11.6324    1.0000 </r>
       <r>  -11.5856    1.0000 </r>
       <r>  -11.5283    1.0000 </r>
       <r>  -11.4649    1.0000 </r>
       <r>  -11.4565    1.0000 </r>
       <r>  -11.4062    1.0000 </r>
       <r>  -11.4044    1.0000 </r>
       <r>  -11.3968    1.0000 </r>
       <r>  -11.3927    1.0000 </r>
       <r>   -9.9604    1.0000 </r>
       <r>   -9.6029    1.0000 </r>
       <r>   -9.3703    1.0000 </r>
       <r>   -9.2077    1.0000 </r>
       <r>   -3.3887    1.0000 </r>
       <r>   -2.8889    1.0000 </r>
       <r>   -1.5757    1.0000 </r>
       <r>   -1.2612    1.0000 </r>
       <r>   -0.6377    1.0000 </r>
       <r>   -0.0070    1.0000 </r>
       <r>    0.2736    1.0000 </r>
       <r>    0.3343    1.0000 </r>
       <r>    0.4057    1.0000 </r>
       <r>    0.5695    1.0000 </r>
       <r>    0.6958    1.0000 </r>
       <r>    0.7451    1.0000 </r>
       <r>    1.8241    1.0000 </r>
       <r>    1.8636    1.0000 </r>
       <r>    1.9192    1.0000 </r>
       <r>    2.0260    1.0000 </r>
       <r>    2.3305    1.0000 </r>
       <r>    2.4611    1.0000 </r>
       <r>    2.6435    1.0000 </r>
       <r>    2.8148    1.0000 </r>
       <r>    3.1078    1.0000 </r>
       <r>    3.2116    1.0000 </r>
       <r>    5.5447    0.0000 </r>
       <r>    5.8583    0.0000 </r>
       <r>    7.0936    0.0000 </r>
       <r>    7.6607    0.0000 </r>
       <r>    7.9892    0.0000 </r>
       <r>    8.2496    0.0000 </r>
       <r>    8.5178    0.0000 </r>
       <r>    8.8725    0.0000 </r>
       <r>    9.3479    0.0000 </r>
       <r>    9.8671    0.0000 </r>
       <r>   10.1278    0.0000 </r>
       <r>   10.3002    0.0000 </r>
      </set>
      <set comment="kpoint 6">
       <r>  -11.6355    1.0000 </r>
       <r>  -11.6285    1.0000 </r>
       <r>  -11.6057    1.0000 </r>
       <r>  -11.4944    1.0000 </r>
       <r>  -11.4669    1.0000 </r>
       <r>  -11.4575    1.0000 </r>
       <r>  -11.4075    1.0000 </r>
       <r>  -11.4018    1.0000 </r>
       <r>  -11.4015    1.0000 </r>
       <r>  -11.3910    1.0000 </r>
       <r>  -10.3588    1.0000 </r>
       <r>   -9.3222    1.0000 </r>
       <r>   -9.2727    1.0000 </r>
       <r>   -9.1154    1.0000 </r>
       <r>   -3.6013    1.0000 </r>
       <r>   -2.7498    1.0000 </r>
       <r>   -1.4389    1.0000 </r>
       <r>   -0.8532    1.0000 </r>
       <r>   -0.7971    1.0000 </r>
       <r>   -0.2126    1.0000 </r>
       <r>    0.1279    1.0000 </r>
       <r>    0.2609    1.0000 </r>
       <r>    0.3923    1.0000 </r>
       <r>    0.4604    1.0000 </r>
       <r>    0.6995    1.0000 </r>
       <r>    0.8128    1.0000 </r>
       <r>    1.8110    1.0000 </r>
       <r>    1.8967    1.0000 </r>
       <r>    1.9205    1.0000 </r>
       <r>    1.9731    1.0000 </r>
       <r>    2.1481    1.0000 </r>
       <r>    2.3982    1.0000 </r>
       <r>    2.5164    1.0000 </r>
       <r>    2.5913    1.0000 </r>
       <r>    3.2213    1.0000 </r>
       <r>    3.6266    1.0000 </r>
       <r>    5.5083    0.0000 </r>
       <r>    6.0085    0.0000 </r>
       <r>    7.0203    0.0000 </r>
       <r>    7.3855    0.0000 </r>
       <r>    8.0195    0.0000 </r>
       <r>    8.2070    0.0000 </r>
       <r>    8.2271    0.0000 </r>
       <r>    8.8546    0.0000 </r>
       <r>    9.2338    0.0000 </r>
       <r>    9.2864    0.0000 </r>
       <r>   10.4259    0.0000 </r>
       <r>   10.7488    0.0000 </r>
      </set>
      <set comment="kpoint 7">
       <r>  -11.6400    1.0000 </r>
       <r>  -11.6400    1.0000 </r>
       <r>  -11.5576    1.0000 </r>
       <r>  -11.5576    1.0000 </r>
       <r>  -11.4629    1.0000 </r>
       <r>  -11.4629    1.0000 </r>
       <r>  -11.4030    1.0000 </r>
       <r>  -11.4030    1.0000 </r>
       <r>  -11.3958    1.0000 </r>
       <r>  -11.3958    1.0000 </r>
       <r>   -9.7044    1.0000 </r>
       <r>   -9.7044    1.0000 </r>
       <r>   -9.3517    1.0000 </r>
       <r>   -9.3517    1.0000 </r>
       <r>   -3.3152    1.0000 </r>
       <r>   -3.3152    1.0000 </r>
       <r>   -1.5931    1.0000 </r>
       <r>   -1.5931    1.0000 </r>
       <r>   -0.3638    1.0000 </r>
       <r>   -0.3638    1.0000 </r>
       <r>    0.4959    1.0000 </r>
       <r>    0.4959    1.0000 </r>
       <r>    0.6416    1.0000 </r>
       <r>    0.6416    1.0000 </r>
       <r>    0.7445    1.0000 </r>
       <r>    0.7445    1.0000 </r>
       <r>    1.8653    1.0000 </r>
       <r>    1.8653    1.0000 </r>
       <r>    2.0162    1.0000 </r>
       <r>    2.0162    1.0000 </r>
       <r>    2.4929    1.0000 </r>
       <r>    2.4929    1.0000 </r>
       <r>    3.0418    1.0000 </r>
       <r>    3.0418    1.0000 </r>
       <r>    3.3767    1.0000 </r>
       <r>    3.3767    1.0000 </r>
       <r>    4.9601    0.0000 </r>
       <r>    4.9601    0.0000 </r>
       <r>    7.1897    0.0000 </r>
       <r>    7.1897    0.0000 </r>
       <r>    8.5314    0.0000 </r>
       <r>    8.5317    0.0000 </r>
       <r>    8.7873    0.0000 </r>
       <r>    8.7875    0.0000 </r>
       <r>    9.5816    0.0000 </r>
       <r>    9.5943    0.0000 </r>
       <r>   10.2059    0.0000 </r>
       <r>   10.2633    0.0000 </r>
      </set>
      <set comment="kpoint 8">
       <r>  -11.6245    1.0000 </r>
       <r>  -11.6245    1.0000 </r>
       <r>  -11.5986    1.0000 </r>
       <r>  -11.5306    1.0000 </r>
       <r>  -11.4480    1.0000 </r>
       <r>  -11.4480    1.0000 </r>
       <r>  -11.4138    1.0000 </r>
       <r>  -11.4090    1.0000 </r>
       <r>  -11.3959    1.0000 </r>
       <r>  -11.3892    1.0000 </r>
       <r>  -10.3534    1.0000 </r>
       <r>   -9.5747    1.0000 </r>
       <r>   -9.1122    1.0000 </r>
       <r>   -9.1122    1.0000 </r>
       <r>   -3.4200    1.0000 </r>
       <r>   -2.8839    1.0000 </r>
       <r>   -1.1091    1.0000 </r>
       <r>   -0.2434    1.0000 </r>
       <r>   -0.0990    1.0000 </r>
       <r>   -0.0799    1.0000 </r>
       <r>   -0.0799    1.0000 </r>
       <r>    0.1669    1.0000 </r>
       <r>    0.3426    1.0000 </r>
       <r>    0.3426    1.0000 </r>
       <r>    0.6039    1.0000 </r>
       <r>    0.6039    1.0000 </r>
       <r>    1.6156    1.0000 </r>
       <r>    1.7484    1.0000 </r>
       <r>    1.8703    1.0000 </r>
       <r>    1.9707    1.0000 </r>
       <r>    2.3440    1.0000 </r>
       <r>    2.4741    1.0000 </r>
       <r>    2.4741    1.0000 </r>
       <r>    2.7715    1.0000 </r>
       <r>    3.1740    1.0000 </r>
       <r>    3.1740    1.0000 </r>
       <r>    5.6737    0.0000 </r>
       <r>    5.7655    0.0000 </r>
       <r>    6.1372    0.0000 </r>
       <r>    6.1372    0.0000 </r>
       <r>    6.3041    0.0000 </r>
       <r>    6.8799    0.0000 </r>
       <r>    7.6313    0.0000 </r>
       <r>    7.9533    0.0000 </r>
       <r>    9.5919    0.0000 </r>
       <r>    9.5919    0.0000 </r>
       <r>   11.7320    0.0000 </r>
       <r>   11.9495    0.0000 </r>
      </set>
      <set comment="kpoint 9">
       <r>  -11.6362    1.0000 </r>
       <r>  -11.6247    1.0000 </r>
       <r>  -11.5803    1.0000 </r>
       <r>  -11.5499    1.0000 </r>
       <r>  -11.4540    1.0000 </r>
       <r>  -11.4469    1.0000 </r>
       <r>  -11.4111    1.0000 </r>
       <r>  -11.4097    1.0000 </r>
       <r>  -11.3931    1.0000 </r>
       <r>  -11.3915    1.0000 </r>
       <r>   -9.9769    1.0000 </r>
       <r>   -9.7936    1.0000 </r>
       <r>   -9.3420    1.0000 </r>
       <r>   -9.1053    1.0000 </r>
       <r>   -3.1634    1.0000 </r>
       <r>   -2.8644    1.0000 </r>
       <r>   -0.9979    1.0000 </r>
       <r>   -0.8078    1.0000 </r>
       <r>   -0.5045    1.0000 </r>
       <r>   -0.0072    1.0000 </r>
       <r>    0.0988    1.0000 </r>
       <r>    0.1687    1.0000 </r>
       <r>    0.3275    1.0000 </r>
       <r>    0.4975    1.0000 </r>
       <r>    0.5858    1.0000 </r>
       <r>    0.5946    1.0000 </r>
       <r>    1.7477    1.0000 </r>
       <r>    1.8479    1.0000 </r>
[...]
        <r>  0.0000  0.0082  0.0056  0.0004  0.0338  0.0440  0.0221  0.0461  0.0346 </r>
        <r>  0.0000  0.0001  0.0056  0.0085  0.0322  0.0442  0.0221  0.0460  0.0363 </r>
        <r>  0.0000  0.0358  0.0298  0.0111  0.0003  0.0001  0.0000  0.0000  0.0000 </r>
        <r>  0.0000  0.0188  0.0582  0.0065  0.0002  0.0002  0.0002  0.0000  0.0001 </r>
        <r>  0.0000  0.0105  0.0298  0.0363  0.0002  0.0000  0.0000  0.0001  0.0001 </r>
        <r>  0.0000  0.0029  0.0582  0.0224  0.0002  0.0000  0.0002  0.0002  0.0000 </r>
       </set>
       <set comment="band 25">
        <r>  0.0009  0.0084  0.0020  0.0097  0.0001  0.0016  0.0000  0.0023  0.0026 </r>
        <r>  0.0009  0.0061  0.0020  0.0120  0.0002  0.0017  0.0000  0.0022  0.0025 </r>
        <r>  0.0012  0.0000  0.0011  0.0010  0.0074  0.0608  0.0057  0.0599  0.0735 </r>
        <r>  0.0012  0.0010  0.0011  0.0001  0.0138  0.0390  0.0057  0.0818  0.0671 </r>
        <r>  0.0000  0.0158  0.0070  0.0431  0.0000  0.0002  0.0001  0.0005  0.0000 </r>
        <r>  0.0000  0.0251  0.0079  0.0448  0.0001  0.0001  0.0000  0.0001  0.0005 </r>
        <r>  0.0000  0.0319  0.0070  0.0271  0.0000  0.0003  0.0001  0.0004  0.0000 </r>
        <r>  0.0000  0.0308  0.0079  0.0391  0.0000  0.0001  0.0000  0.0002  0.0006 </r>
       </set>
       <set comment="band 26">
        <r>  0.0004  0.0083  0.0102  0.0047  0.0061  0.0012  0.0003  0.0013  0.0001 </r>
        <r>  0.0004  0.0049  0.0102  0.0080  0.0051  0.0016  0.0003  0.0008  0.0010 </r>
        <r>  0.0011  0.0012  0.0017  0.0060  0.0725  0.0125  0.0123  0.0175  0.0251 </r>
        <r>  0.0011  0.0066  0.0017  0.0007  0.0921  0.0157  0.0123  0.0142  0.0055 </r>
        <r>  0.0001  0.0050  0.0506  0.0339  0.0006  0.0001  0.0000  0.0001  0.0001 </r>
        <r>  0.0000  0.0174  0.0390  0.0300  0.0002  0.0002  0.0001  0.0001  0.0000 </r>
        <r>  0.0001  0.0358  0.0506  0.0030  0.0006  0.0001  0.0000  0.0001  0.0001 </r>
        <r>  0.0000  0.0385  0.0390  0.0089  0.0001  0.0002  0.0001  0.0002  0.0001 </r>
       </set>
       <set comment="band 27">
        <r>  0.0038  0.0015  0.0008  0.0004  0.0000  0.0000  0.0000  0.0000  0.0000 </r>
        <r>  0.0038  0.0007  0.0008  0.0011  0.0000  0.0000  0.0000  0.0000  0.0000 </r>
        <r>  0.0001  0.0002  0.0005  0.0002  0.2489  0.0603  0.0189  0.0602  0.0553 </r>
        <r>  0.0001  0.0003  0.0005  0.0001  0.1444  0.0562  0.0189  0.0643  0.1598 </r>
        <r>  0.0002  0.0001  0.0002  0.0003  0.0007  0.0001  0.0001  0.0000  0.0012 </r>
        <r>  0.0001  0.0010  0.0007  0.0007  0.0001  0.0006  0.0006  0.0003  0.0001 </r>
        <r>  0.0002  0.0004  0.0002  0.0000  0.0014  0.0000  0.0001  0.0001  0.0005 </r>
        <r>  0.0001  0.0009  0.0007  0.0008  0.0002  0.0001  0.0006  0.0008  0.0001 </r>
       </set>
       <set comment="band 28">
        <r>  0.0003  0.0018  0.0028  0.0002  0.0003  0.0001  0.0000  0.0001  0.0001 </r>
        <r>  0.0003  0.0003  0.0028  0.0017  0.0002  0.0001  0.0000  0.0001  0.0001 </r>
        <r>  0.0000  0.0002  0.0002  0.0004  0.0005  0.0761  0.0375  0.1374  0.1912 </r>
        <r>  0.0000  0.0003  0.0002  0.0003  0.0313  0.1212  0.0375  0.0924  0.1605 </r>
        <r>  0.0002  0.0011  0.0017  0.0015  0.0002  0.0003  0.0003  0.0001  0.0003 </r>
        <r>  0.0001  0.0008  0.0003  0.0035  0.0004  0.0005  0.0001  0.0002  0.0003 </r>
        <r>  0.0002  0.0010  0.0017  0.0017  0.0000  0.0001  0.0003  0.0003  0.0005 </r>
        <r>  0.0001  0.0035  0.0003  0.0008  0.0005  0.0002  0.0001  0.0006  0.0001 </r>
       </set>
       <set comment="band 29">
        <r>  0.0049  0.0029  0.0036  0.0003  0.0000  0.0001  0.0002  0.0000  0.0000 </r>
        <r>  0.0049  0.0007  0.0036  0.0025  0.0000  0.0000  0.0002  0.0001  0.0000 </r>
        <r>  0.0005  0.0002  0.0003  0.0003  0.0126  0.0799  0.0886  0.1912  0.0657 </r>
        <r>  0.0005  0.0003  0.0003  0.0001  0.0180  0.2245  0.0886  0.0466  0.0604 </r>
        <r>  0.0004  0.0001  0.0041  0.0011  0.0002  0.0001  0.0007  0.0004  0.0003 </r>
        <r>  0.0001  0.0019  0.0000  0.0011  0.0008  0.0001  0.0000  0.0000  0.0003 </r>
        <r>  0.0004  0.0011  0.0041  0.0001  0.0002  0.0005  0.0007  0.0001  0.0004 </r>
        <r>  0.0001  0.0015  0.0000  0.0015  0.0010  0.0001  0.0000  0.0001  0.0000 </r>
       </set>
       <set comment="band 30">
        <r>  0.0010  0.0003  0.0011  0.0046  0.0001  0.0002  0.0004  0.0000  0.0000 </r>
        <r>  0.0010  0.0049  0.0011  0.0000  0.0001  0.0001  0.0004  0.0002  0.0000 </r>
        <r>  0.0027  0.0001  0.0005  0.0010  0.0146  0.1866  0.0963  0.0456  0.0869 </r>
        <r>  0.0027  0.0010  0.0005  0.0001  0.0000  0.0829  0.0963  0.1493  0.1015 </r>
        <r>  0.0003  0.0002  0.0058  0.0015  0.0006  0.0003  0.0000  0.0001  0.0002 </r>
        <r>  0.0000  0.0029  0.0014  0.0023  0.0002  0.0002  0.0010  0.0003  0.0000 </r>
        <r>  0.0003  0.0016  0.0058  0.0001  0.0005  0.0002  0.0000  0.0003  0.0003 </r>
        <r>  0.0000  0.0033  0.0014  0.0019  0.0001  0.0003  0.0010  0.0002  0.0001 </r>
       </set>
       <set comment="band 31">
        <r>  0.0016  0.0037  0.0002  0.0003  0.0002  0.0007  0.0001  0.0006  0.0001 </r>
        <r>  0.0016  0.0004  0.0002  0.0036  0.0003  0.0009  0.0001  0.0004  0.0000 </r>
        <r>  0.0038  0.0042  0.0017  0.0007  0.0757  0.0023  0.2373  0.0202  0.0385 </r>
        <r>  0.0038  0.0015  0.0017  0.0034  0.1030  0.0220  0.2373  0.0004  0.0112 </r>
        <r>  0.0016  0.0067  0.0031  0.0025  0.0003  0.0003  0.0004  0.0002  0.0002 </r>
        <r>  0.0017  0.0022  0.0080  0.0025  0.0001  0.0003  0.0006  0.0009  0.0006 </r>
        <r>  0.0016  0.0037  0.0031  0.0055  0.0004  0.0002  0.0004  0.0002  0.0001 </r>
        <r>  0.0017  0.0028  0.0080  0.0019  0.0002  0.0010  0.0006  0.0002  0.0005 </r>
       </set>
       <set comment="band 32">
        <r>  0.0250  0.0000  0.0009  0.0031  0.0006  0.0006  0.0004  0.0003  0.0002 </r>
        <r>  0.0250  0.0029  0.0009  0.0002  0.0008  0.0003  0.0004  0.0006  0.0000 </r>
        <r>  0.0019  0.0004  0.0017  0.0059  0.0062  0.0979  0.1844  0.0057  0.0429 </r>
        <r>  0.0019  0.0055  0.0017  0.0008  0.0085  0.0076  0.1844  0.0960  0.0406 </r>
        <r>  0.0045  0.0097  0.0036  0.0016  0.0001  0.0002  0.0004  0.0005  0.0002 </r>
        <r>  0.0079  0.0038  0.0091  0.0065  0.0001  0.0008  0.0000  0.0002  0.0003 </r>
        <r>  0.0045  0.0006  0.0036  0.0106  0.0000  0.0004  0.0004  0.0002  0.0002 </r>
        <r>  0.0079  0.0062  0.0091  0.0041  0.0002  0.0001  0.0000  0.0009  0.0002 </r>
       </set>
       <set comment="band 33">
        <r>  0.0003  0.0033  0.0048  0.0033  0.0002  0.0009  0.0001  0.0003  0.0012 </r>
        <r>  0.0003  0.0025  0.0048  0.0041  0.0004  0.0002  0.0001  0.0010  0.0010 </r>
        <r>  0.0007  0.0010  0.0072  0.0003  0.0518  0.1528  0.0422  0.0028  0.0911 </r>
        <r>  0.0007  0.0005  0.0072  0.0008  0.1072  0.0165  0.0422  0.1391  0.0356 </r>
        <r>  0.0011  0.0003  0.0092  0.0136  0.0000  0.0007  0.0000  0.0004  0.0002 </r>
        <r>  0.0012  0.0119  0.0185  0.0048  0.0001  0.0000  0.0002  0.0004  0.0002 </r>
        <r>  0.0011  0.0123  0.0092  0.0017  0.0001  0.0005  0.0000  0.0006  0.0001 </r>
        <r>  0.0012  0.0030  0.0185  0.0138  0.0001  0.0004  0.0002  0.0000  0.0002 </r>
       </set>
       <set comment="band 34">
        <r>  0.0053  0.0020  0.0065  0.0025  0.0014  0.0002  0.0000  0.0000  0.0001 </r>
        <r>  0.0053  0.0028  0.0065  0.0017  0.0015  0.0001  0.0000  0.0002  0.0000 </r>
        <r>  0.0019  0.0020  0.0006  0.0063  0.0443  0.0136  0.0531  0.1465  0.0740 </r>
        <r>  0.0019  0.0051  0.0006  0.0033  0.0654  0.1262  0.0531  0.0339  0.0529 </r>
        <r>  0.0059  0.0044  0.0083  0.0142  0.0000  0.0001  0.0001  0.0001  0.0005 </r>
        <r>  0.0019  0.0164  0.0043  0.0115  0.0004  0.0000  0.0000  0.0002  0.0002 </r>
        <r>  0.0059  0.0128  0.0083  0.0059  0.0001  0.0002  0.0001  0.0000  0.0005 </r>
        <r>  0.0019  0.0110  0.0043  0.0170  0.0005  0.0002  0.0000  0.0000  0.0001 </r>
       </set>
       <set comment="band 35">
        <r>  0.0027  0.0078  0.0034  0.0041  0.0019  0.0000  0.0002  0.0000  0.0007 </r>
        <r>  0.0027  0.0064  0.0034  0.0055  0.0025  0.0000  0.0002  0.0000  0.0001 </r>
        <r>  0.0001  0.0052  0.0056  0.0020  0.1971  0.0118  0.0075  0.0352  0.0059 </r>
        <r>  0.0001  0.0029  0.0056  0.0043  0.1514  0.0385  0.0075  0.0085  0.0516 </r>
        <r>  0.0002  0.0379  0.0099  0.0027  0.0005  0.0003  0.0007  0.0002  0.0001 </r>
        <r>  0.0024  0.0160  0.0273  0.0016  0.0004  0.0002  0.0010  0.0000  0.0003 </r>
        <r>  0.0002  0.0080  0.0099  0.0326  0.0003  0.0002  0.0007  0.0003  0.0003 </r>
        <r>  0.0024  0.0028  0.0273  0.0148  0.0005  0.0000  0.0010  0.0002  0.0003 </r>
       </set>
       <set comment="band 36">
        <r>  0.0004  0.0014  0.0006  0.0046  0.0002  0.0021  0.0000  0.0030  0.0032 </r>
        <r>  0.0004  0.0035  0.0006  0.0025  0.0001  0.0020  0.0000  0.0030  0.0033 </r>
        <r>  0.0001  0.0061  0.0004  0.0063  0.0035  0.0499  0.0016  0.0718  0.0876 </r>
        <r>  0.0001  0.0038  0.0004  0.0085  0.0084  0.0477  0.0016  0.0740  0.0827 </r>
        <r>  0.0007  0.0356  0.0019  0.0420  0.0001  0.0001  0.0002  0.0001  0.0007 </r>
        <r>  0.0006  0.0327  0.0021  0.0385  0.0003  0.0002  0.0002  0.0002  0.0001 </r>
        <r>  0.0007  0.0265  0.0019  0.0511  0.0004  0.0001  0.0002  0.0001  0.0004 </r>
        <r>  0.0006  0.0243  0.0021  0.0468  0.0002  0.0001  0.0002  0.0003  0.0002 </r>
       </set>
       <set comment="band 37">
        <r>  0.1021  0.0009  0.0119  0.0026  0.0002  0.0007  0.0003  0.0011  0.0000 </r>
        <r>  0.1021  0.0024  0.0119  0.0011  0.0002  0.0012  0.0003  0.0006  0.0000 </r>
        <r>  0.0099  0.0033  0.0063  0.0001  0.0068  0.0029  0.0099  0.0004  0.0003 </r>
        <r>  0.0099  0.0004  0.0063  0.0030  0.0067  0.0001  0.0099  0.0032  0.0003 </r>
        <r>  0.0184  0.0160  0.0150  0.0389  0.0008  0.0000  0.0014  0.0016  0.0003 </r>
        <r>  0.0238  0.0287  0.0230  0.0068  0.0002  0.0003  0.0015  0.0018  0.0004 </r>
        <r>  0.0184  0.0454  0.0150  0.0096  0.0010  0.0016  0.0014  0.0001  0.0000 </r>
        <r>  0.0238  0.0080  0.0230  0.0274  0.0004  0.0020  0.0015  0.0001  0.0002 </r>
       </set>
       <set comment="band 38">
        <r>  0.0885  0.0083  0.0084  0.0109  0.0033  0.0004  0.0011  0.0009  0.0002 </r>
        <r>  0.0885  0.0112  0.0084  0.0080  0.0033  0.0007  0.0011  0.0006  0.0002 </r>
        <r>  0.0008  0.0006  0.0061  0.0010  0.0179  0.0057  0.0117  0.0050  0.0011 </r>
        <r>  0.0008  0.0012  0.0061  0.0005  0.0184  0.0056  0.0117  0.0051  0.0006 </r>
        <r>  0.0088  0.0063  0.0287  0.0065  0.0039  0.0013  0.0035  0.0009  0.0005 </r>
        <r>  0.0089  0.0018  0.0048  0.0366  0.0053  0.0009  0.0010  0.0003  0.0010 </r>
        <r>  0.0088  0.0046  0.0287  0.0082  0.0044  0.0005  0.0035  0.0017  0.0000 </r>
        <r>  0.0089  0.0384  0.0048  0.0000  0.0062  0.0001  0.0010  0.0011  0.0001 </r>
       </set>
       <set comment="band 39">
        <r>  0.0149  0.0053  0.0299  0.0182  0.0054  0.0009  0.0047  0.0016  0.0006 </r>
        <r>  0.0149  0.0140  0.0299  0.0095  0.0058  0.0011  0.0047  0.0014  0.0001 </r>
        <r>  0.0317  0.0028  0.0032  0.0038  0.0070  0.0013  0.0021  0.0038  0.0002 </r>
        <r>  0.0317  0.0051  0.0032  0.0016  0.0058  0.0031  0.0021  0.0020  0.0013 </r>
        <r>  0.0142  0.0079  0.0125  0.0088  0.0031  0.0010  0.0031  0.0064  0.0001 </r>
        <r>  0.0074  0.0036  0.0067  0.0089  0.0030  0.0000  0.0044  0.0046  0.0003 </r>
        <r>  0.0142  0.0119  0.0125  0.0049  0.0028  0.0056  0.0031  0.0019  0.0004 </r>
        <r>  0.0074  0.0108  0.0067  0.0017  0.0021  0.0044  0.0044  0.0003  0.0012 </r>
       </set>
       <set comment="band 40">
        <r>  0.0082  0.0390  0.0275  0.0067  0.0005  0.0011  0.0021  0.0027  0.0002 </r>
        <r>  0.0082  0.0101  0.0275  0.0356  0.0006  0.0020  0.0021  0.0019  0.0001 </r>
        <r>  0.0353  0.0014  0.0037  0.0035  0.0023  0.0060  0.0062  0.0005  0.0003 </r>
        <r>  0.0353  0.0030  0.0037  0.0019  0.0020  0.0000  0.0062  0.0064  0.0006 </r>
        <r>  0.0222  0.0026  0.0021  0.0016  0.0000  0.0048  0.0075  0.0025  0.0000 </r>
        <r>  0.0174  0.0030  0.0255  0.0052  0.0005  0.0037  0.0014  0.0012  0.0000 </r>
        <r>  0.0222  0.0019  0.0021  0.0023  0.0000  0.0012  0.0075  0.0061  0.0000 </r>
        <r>  0.0174  0.0061  0.0255  0.0022  0.0005  0.0005  0.0014  0.0044  0.0000 </r>
       </set>
       <set comment="band 41">
        <r>  0.0273  0.0339  0.0041  0.0352  0.0036  0.0033  0.0017  0.0017  0.0000 </r>
        <r>  0.0273  0.0340  0.0041  0.0351  0.0032  0.0016  0.0017  0.0034  0.0004 </r>
        <r>  0.0043  0.0007  0.0023  0.0039  0.0008  0.0008  0.0036  0.0061  0.0008 </r>
        <r>  0.0043  0.0042  0.0023  0.0004  0.0002  0.0061  0.0036  0.0007  0.0013 </r>
        <r>  0.0008  0.0126  0.0140  0.0008  0.0002  0.0077  0.0008  0.0049  0.0037 </r>
        <r>  0.0044  0.0272  0.0044  0.0307  0.0029  0.0026  0.0027  0.0008  0.0033 </r>
        <r>  0.0008  0.0007  0.0140  0.0126  0.0007  0.0049  0.0008  0.0078  0.0031 </r>
        <r>  0.0044  0.0421  0.0044  0.0158  0.0051  0.0012  0.0027  0.0022  0.0012 </r>
       </set>
       <set comment="band 42">
        <r>  0.0100  0.0345  0.0005  0.0404  0.0031  0.0044  0.0028  0.0005  0.0012 </r>
        <r>  0.0100  0.0545  0.0005  0.0205  0.0025  0.0001  0.0028  0.0048  0.0018 </r>
        <r>  0.0279  0.0016  0.0031  0.0014  0.0056  0.0011  0.0026  0.0032  0.0031 </r>
        <r>  0.0279  0.0019  0.0031  0.0012  0.0079  0.0025  0.0026  0.0018  0.0008 </r>
        <r>  0.0074  0.0091  0.0133  0.0156  0.0018  0.0001  0.0006  0.0017  0.0024 </r>
        <r>  0.0037  0.0183  0.0036  0.0089  0.0164  0.0006  0.0045  0.0005  0.0026 </r>
        <r>  0.0074  0.0200  0.0132  0.0046  0.0006  0.0015  0.0006  0.0002  0.0036 </r>
        <r>  0.0037  0.0143  0.0036  0.0129  0.0119  0.0005  0.0045  0.0006  0.0071 </r>
       </set>
       <set comment="band 43">
        <r>  0.0009  0.0230  0.0191  0.0703  0.0021  0.0002  0.0017  0.0026  0.0056 </r>
        <r>  0.0009  0.0607  0.0191  0.0326  0.0005  0.0028  0.0017  0.0000  0.0072 </r>
        <r>  0.0045  0.0076  0.0018  0.0079  0.0017  0.0002  0.0017  0.0023  0.0013 </r>
        <r>  0.0045  0.0062  0.0018  0.0092  0.0006  0.0023  0.0017  0.0002  0.0024 </r>
        <r>  0.0019  0.0026  0.0212  0.0048  0.0021  0.0001  0.0025  0.0041  0.0012 </r>
        <r>  0.0047  0.0020  0.0027  0.0054  0.0030  0.0012  0.0015  0.0079  0.0162 </r>
        <r>  0.0019  0.0053  0.0212  0.0021  0.0009  0.0040  0.0026  0.0002  0.0023 </r>
        <r>  0.0047  0.0062  0.0027  0.0012  0.0006  0.0066  0.0015  0.0025  0.0186 </r>
       </set>
       <set comment="band 44">
        <r>  0.0073  0.0180  0.0704  0.0029  0.0007  0.0007  0.0022  0.0002  0.0016 </r>
        <r>  0.0073  0.0022  0.0703  0.0190  0.0004  0.0001  0.0023  0.0008  0.0019 </r>
        <r>  0.0231  0.0045  0.0091  0.0003  0.0001  0.0018  0.0049  0.0025  0.0016 </r>
        <r>  0.0228  0.0008  0.0092  0.0041  0.0006  0.0033  0.0048  0.0010  0.0011 </r>
        <r>  0.0005  0.0060  0.0366  0.0045  0.0002  0.0035  0.0129  0.0053  0.0011 </r>
        <r>  0.0067  0.0007  0.0148  0.0048  0.0034  0.0001  0.0075  0.0028  0.0029 </r>
        <r>  0.0005  0.0066  0.0366  0.0038  0.0007  0.0060  0.0130  0.0027  0.0006 </r>
        <r>  0.0066  0.0047  0.0148  0.0008  0.0052  0.0026  0.0076  0.0003  0.0010 </r>
       </set>
       <set comment="band 45">
        <r>  0.0000  0.0127  0.0033  0.0135  0.0011  0.0033  0.0023  0.0034  0.0001 </r>
        <r>  0.0000  0.0086  0.0034  0.0175  0.0011  0.0047  0.0023  0.0020  0.0001 </r>
        <r>  0.0637  0.0165  0.0009  0.0098  0.0028  0.0045  0.0000  0.0006  0.0027 </r>
        <r>  0.0640  0.0053  0.0008  0.0210  0.0027  0.0007  0.0000  0.0044  0.0027 </r>
        <r>  0.0011  0.0204  0.0064  0.0095  0.0103  0.0052  0.0006  0.0020  0.0111 </r>
        <r>  0.0027  0.0108  0.0101  0.0045  0.0020  0.0081  0.0008  0.0055  0.0016 </r>
        <r>  0.0011  0.0126  0.0063  0.0171  0.0062  0.0018  0.0006  0.0054  0.0153 </r>
        <r>  0.0027  0.0069  0.0100  0.0084  0.0021  0.0055  0.0008  0.0082  0.0015 </r>
       </set>
       <set comment="band 46">
        <r>  0.0011  0.0223  0.0125  0.0056  0.0039  0.0007  0.0011  0.0007  0.0039 </r>
        <r>  0.0011  0.0098  0.0126  0.0179  0.0058  0.0005  0.0011  0.0009  0.0020 </r>
        <r>  0.0163  0.0182  0.0051  0.0162  0.0018  0.0017  0.0006  0.0001  0.0028 </r>
        <r>  0.0160  0.0231  0.0051  0.0114  0.0025  0.0002  0.0007  0.0016  0.0021 </r>
        <r>  0.0029  0.0007  0.0136  0.0056  0.0141  0.0003  0.0010  0.0006  0.0083 </r>
        <r>  0.0005  0.0250  0.0018  0.0107  0.0057  0.0006  0.0034  0.0014  0.0079 </r>
        <r>  0.0029  0.0053  0.0138  0.0010  0.0177  0.0005  0.0010  0.0004  0.0048 </r>
        <r>  0.0005  0.0179  0.0018  0.0179  0.0083  0.0014  0.0034  0.0006  0.0053 </r>
       </set>
       <set comment="band 47">
        <r>  0.0112  0.0299  0.0051  0.0221  0.0001  0.0001  0.0010  0.0027  0.0055 </r>
        <r>  0.0109  0.0113  0.0060  0.0401  0.0013  0.0029  0.0010  0.0002  0.0035 </r>
        <r>  0.0140  0.0136  0.0126  0.0015  0.0004  0.0008  0.0001  0.0004  0.0022 </r>
        <r>  0.0183  0.0048  0.0156  0.0088  0.0009  0.0005  0.0001  0.0007  0.0014 </r>
        <r>  0.0040  0.0059  0.0102  0.0276  0.0070  0.0017  0.0010  0.0051  0.0016 </r>
        <r>  0.0012  0.0183  0.0174  0.0139  0.0008  0.0058  0.0077  0.0079  0.0004 </r>
        <r>  0.0043  0.0331  0.0097  0.0051  0.0068  0.0065  0.0013  0.0012  0.0012 </r>
        <r>  0.0015  0.0093  0.0155  0.0254  0.0005  0.0088  0.0062  0.0021  0.0009 </r>
       </set>
       <set comment="band 48">
        <r>  0.0030  0.0072  0.0237  0.0042  0.0016  0.0006  0.0011  0.0011  0.0027 </r>
        <r>  0.0015  0.0038  0.0346  0.0039  0.0007  0.0003  0.0019  0.0021  0.0045 </r>
        <r>  0.0129  0.0099  0.0029  0.0264  0.0023  0.0015  0.0024  0.0027  0.0030 </r>
        <r>  0.0108  0.0176  0.0065  0.0228  0.0012  0.0046  0.0011  0.0022  0.0055 </r>
        <r>  0.0000  0.0115  0.0094  0.0026  0.0034  0.0098  0.0053  0.0025  0.0093 </r>
        <r>  0.0022  0.0005  0.0272  0.0134  0.0002  0.0172  0.0007  0.0014  0.0002 </r>
        <r>  0.0006  0.0037  0.0107  0.0101  0.0049  0.0056  0.0022  0.0102  0.0104 </r>
        <r>  0.0027  0.0049  0.0282  0.0003  0.0002  0.0022  0.0005  0.0142  0.0008 </r>
       </set>
      </set>
     </set>
    </set>
   </array>
  </projected>
 </calculation>
 <structure name="finalpos" >
  <crystal>
   <varray name="basis" >
    <v>       5.10874036       0.00000000      -2.30030869 </v>
    <v>      -1.03575852       5.00264257      -2.30030916 </v>
    <v>       0.00000000       0.00000000       6.82313837 </v>
   </varray>
   <i name="volume">    174.38032574 </i>
   <varray name="rec_basis" >
    <v>       0.19574297       0.04052707       0.00000000 </v>
    <v>       0.00000000       0.19989435       0.00000000 </v>
    <v>       0.06599152       0.08105414       0.14656012 </v>
   </varray>
  </crystal>
  <varray name="positions" >
   <v>       0.50000000       0.50000000       0.00000000 </v>
   <v>       0.75000000       0.25000000       0.50000000 </v>
   <v>       0.00000000       0.00000000       0.00000000 </v>
   <v>       0.25000000       0.75000000       0.50000000 </v>
   <v>       0.37121578       0.37500000       0.25000000 </v>
   <v>       0.12500000       0.62878422       0.75000000 </v>
   <v>       0.62500000       0.12121578       0.75000000 </v>
   <v>       0.87878422       0.87500000       0.25000000 </v>
  </varray>
 </structure>
</modeling>
