 vasp.6.4.2 20Jul23 (build Mar 15 2024 16:31:38) complex                        
  
 executed on             LinuxIFC date 2025.03.24  15:53:12
 running  120 mpi-ranks, on    3 nodes
 distrk:  each k-point on  120 cores,    1 groups
 distr:  one band on NCORE=  10 cores,   12 groups


--------------------------------------------------------------------------------------------------------


 INCAR:
   ALGO = Normal
   CSHIFT = 1e-05
   EDIFF = 1e-05
   ENAUG = 1360
   ENCUT = 680
   GGA = Pe
   HFSCREEN = 0.2
   ISMEAR = -5
   ISPIN = 1
   LAECHG = True
   LASPH = True
   LCHARG = True
   LDAU = False
   LELF = False
   LHFCALC = True
   LMAXMIX = 4
   LMIXTAU = True
   LOPTICS = True
   LORBIT = 11
   LREAL = False
   LVTOT = True
   LWAVE = True
   NBANDS = 58
   NCORE = 10
   NEDOS = 1372
   NELM = 200
   NELMIN = 5
   NSW = 0
   PREC = Accurate
   PRECFOCK = Fast
   SIGMA = 0.05

 POTCAR:    PAW_PBE Ga_d 06Jul2010                
 POTCAR:    PAW_PBE Cu 22Jun2005                  
 POTCAR:    PAW_PBE Se 06Sep2000                  
 WARNING: For LVTOT=.TRUE., VASP.5.x writes the TOTAL local potential to the
     file LOCPOT. If you want only the Hartree contributions, use LVHAR=.TRUE.
     instead. 

 POTCAR:    PAW_PBE Ga_d 06Jul2010                
   VRHFIN =Ga: s2p1                                                                                 
   LEXCH  = PE                                                                                      
   EATOM  =  2148.8298 eV,  157.9345 Ry                                                             
                                                                                                    
   TITEL  = PAW_PBE Ga_d 06Jul2010                                                                  
   LULTRA =        F    use ultrasoft PP ?                                                          
   IUNSCR =        1    unscreen: 0-lin 1-nonlin 2-no                                               
   RPACOR =    1.700    partial core radius                                                         
   POMASS =   69.723; ZVAL   =   13.000    mass and valenz                                          
   RCORE  =    2.300    outmost cutoff radius                                                       
   RWIGS  =    2.300; RWIGS  =    1.217    wigner-seitz radius (au A)                               
   ENMAX  =  282.691; ENMIN  =  212.018 eV                                                          
   ICORE  =        3    local potential                                                             
   LCOR   =        T    correct aug charges                                                         
   LPAW   =        T    paw PP                                                                      
   EAUG   =  490.690                                                                                
   DEXC   =    0.000                                                                                
   RMAX   =    2.341    core radius for proj-oper                                                   
   RAUG   =    1.300    factor for augmentation sphere                                              
   RDEP   =    2.413    radius for radial grids                                                     
   RDEPT  =    1.856    core radius for aug-charge                                                  
                                                                                                    
   Atomic configuration                                                                             
    9 entries                                                                                       
     n  l   j            E        occ.                                                              
     1  0  0.50    -10228.7831   2.0000                                                             
     2  0  0.50     -1262.1604   2.0000                                                             
     2  1  1.50     -1098.6333   6.0000                                                             
     3  0  0.50      -148.1110   2.0000                                                             
     3  1  1.50       -98.8436   6.0000                                                             
     3  2  2.50       -19.1549  10.0000                                                             
     4  0  0.50        -8.9483   2.0000                                                             
     4  1  0.50        -2.5791   1.0000                                                             
     4  3  2.50        -2.7416   0.0000                                                             
   Description                                                                                      
     l       E           TYP  RCUT    TYP  RCUT                                                     
     2    -19.1549037     23  2.300                                                                 
     2     -5.4423304     23  2.300                                                                 
     0     -8.9483111     23  2.300                                                                 
     0     68.0291300     23  2.300                                                                 
     1     -2.5790802     23  2.100                                                                 
     1     81.6349560     23  2.300                                                                 
     3      6.8029130     23  2.300                                                                 
  local pseudopotential read in
  partial core-charges read in
  partial kinetic energy density read in
  atomic valenz-charges read in
  non local Contribution for L=           2  read in
    real space projection operators read in
  non local Contribution for L=           2  read in
    real space projection operators read in
  non local Contribution for L=           0  read in
    real space projection operators read in
  non local Contribution for L=           0  read in
    real space projection operators read in
  non local Contribution for L=           1  read in
    real space projection operators read in
  non local Contribution for L=           1  read in
    real space projection operators read in
    PAW grid and wavefunctions read in
 
   number of l-projection  operators is LMAX  =           6
   number of lm-projection operators is LMMAX =          18
 
 POTCAR:    PAW_PBE Cu 22Jun2005                  
   VRHFIN =Cu: d10 p1                                                                               
   LEXCH  = PE                                                                                      
   EATOM  =  1390.9808 eV,  102.2342 Ry                                                             
                                                                                                    
   TITEL  = PAW_PBE Cu 22Jun2005                                                                    
   LULTRA =        F    use ultrasoft PP ?                                                          
   IUNSCR =        1    unscreen: 0-lin 1-nonlin 2-no                                               
   RPACOR =    2.000    partial core radius                                                         
   POMASS =   63.546; ZVAL   =   11.000    mass and valenz                                          
   RCORE  =    2.300    outmost cutoff radius                                                       
   RWIGS  =    2.200; RWIGS  =    1.164    wigner-seitz radius (au A)                               
   ENMAX  =  295.446; ENMIN  =  221.585 eV                                                          
   ICORE  =        3    local potential                                                             
   LCOR   =        T    correct aug charges                                                         
   LPAW   =        T    paw PP                                                                      
   EAUG   =  586.980                                                                                
   DEXC   =    0.000                                                                                
   RMAX   =    2.344    core radius for proj-oper                                                   
   RAUG   =    1.300    factor for augmentation sphere                                              
   RDEP   =    2.302    radius for radial grids                                                     
   RDEPT  =    1.771    core radius for aug-charge                                                  
                                                                                                    
   Atomic configuration                                                                             
    9 entries                                                                                       
     n  l   j            E        occ.                                                              
     1  0  0.50     -8850.2468   2.0000                                                             
     2  0  0.50     -1062.3498   2.0000                                                             
     2  1  1.50      -916.8226   6.0000                                                             
     3  0  0.50      -114.6929   2.0000                                                             
     3  1  1.50       -72.1325   6.0000                                                             
     3  2  2.50        -5.0394  10.0000                                                             
     4  0  0.50        -4.6097   1.0000                                                             
     4  1  0.50        -4.0817   0.0000                                                             
     4  3  2.50        -1.3606   0.0000                                                             
   Description                                                                                      
     l       E           TYP  RCUT    TYP  RCUT                                                     
     2     -5.0393973     23  2.200                                                                 
     2     10.8846608     23  2.200                                                                 
     0     -4.6097109     23  2.200                                                                 
     0      8.2520465     23  2.200                                                                 
     1     -2.7211652     23  2.200                                                                 
     1     21.7055443     23  2.200                                                                 
     3      2.7211652     23  2.300                                                                 
  local pseudopotential read in
  partial core-charges read in
  partial kinetic energy density read in
  atomic valenz-charges read in
  non local Contribution for L=           2  read in
    real space projection operators read in
  non local Contribution for L=           2  read in
    real space projection operators read in
  non local Contribution for L=           0  read in
    real space projection operators read in
  non local Contribution for L=           0  read in
    real space projection operators read in
  non local Contribution for L=           1  read in
    real space projection operators read in
  non local Contribution for L=           1  read in
    real space projection operators read in
    PAW grid and wavefunctions read in
 
   number of l-projection  operators is LMAX  =           6
   number of lm-projection operators is LMMAX =          18
 
 POTCAR:    PAW_PBE Se 06Sep2000                  
   VRHFIN =Se: s2p4                                                                                 
   LEXCH  = PE                                                                                      
   EATOM  =   257.1286 eV,   18.8984 Ry                                                             
                                                                                                    
   TITEL  = PAW_PBE Se 06Sep2000                                                                    
   LULTRA =        F    use ultrasoft PP ?                                                          
   IUNSCR =        1    unscreen: 0-lin 1-nonlin 2-no                                               
   RPACOR =    1.900    partial core radius                                                         
   POMASS =   78.960; ZVAL   =    6.000    mass and valenz                                          
   RCORE  =    2.100    outmost cutoff radius                                                       
   RWIGS  =    2.200; RWIGS  =    1.164    wigner-seitz radius (au A)                               
   ENMAX  =  211.555; ENMIN  =  158.666 eV                                                          
   ICORE  =        3    local potential                                                             
   LCOR   =        T    correct aug charges                                                         
   LPAW   =        T    paw PP                                                                      
   EAUG   =  446.842                                                                                
   DEXC   =    0.000                                                                                
   RMAX   =    2.147    core radius for proj-oper                                                   
   RAUG   =    1.300    factor for augmentation sphere                                              
   RDEP   =    2.177    radius for radial grids                                                     
   RDEPT  =    1.928    core radius for aug-charge                                                  
                                                                                                    
   Atomic configuration                                                                             
   10 entries                                                                                       
     n  l   j            E        occ.                                                              
     1  0  0.50    -12503.4787   2.0000                                                             
     2  0  0.50     -1606.9547   2.0000                                                             
     2  1  1.50     -1413.3140   6.0000                                                             
     3  0  0.50      -213.4885   2.0000                                                             
     3  1  1.50      -152.9538   6.0000                                                             
     3  2  2.50       -53.1221  10.0000                                                             
     4  0  0.50       -17.2865   2.0000                                                             
     4  1  0.50        -6.5110   4.0000                                                             
     4  2  2.50        -6.8029   0.0000                                                             
     4  3  2.50        -6.8029   0.0000                                                             
   Description                                                                                      
     l       E           TYP  RCUT    TYP  RCUT                                                     
     0    -17.2865377     23  2.100                                                                 
     0    -15.3094411     23  2.100                                                                 
     1     -6.5110275     23  2.100                                                                 
     1     -0.0695192     23  2.100                                                                 
     2     -6.8029130     23  2.100                                                                 
     3     -1.3605826      7  2.100                                                                 
  local pseudopotential read in
  partial core-charges read in
  partial kinetic energy density read in
  atomic valenz-charges read in
  non local Contribution for L=           0  read in
    real space projection operators read in
  non local Contribution for L=           0  read in
    real space projection operators read in
  non local Contribution for L=           1  read in
    real space projection operators read in
  non local Contribution for L=           1  read in
    real space projection operators read in
  non local Contribution for L=           2  read in
    real space projection operators read in
    PAW grid and wavefunctions read in
 
   number of l-projection  operators is LMAX  =           5
   number of lm-projection operators is LMMAX =          13
 
  PAW_PBE Ga_d 06Jul2010                :
 energy of atom  1       EATOM=-2148.8298
 kinetic energy error for atom=    0.0008 (will be added to EATOM!!)
  PAW_PBE Cu 22Jun2005                  :
 energy of atom  2       EATOM=-1390.9808
 kinetic energy error for atom=    0.0018 (will be added to EATOM!!)
  PAW_PBE Se 06Sep2000                  :
 energy of atom  3       EATOM= -257.1286
 kinetic energy error for atom=    0.0004 (will be added to EATOM!!)
 
 
 POSCAR: Ga2 Cu2 Se4
  positions in direct lattice
  No initial velocities read in
 exchange correlation table for  LEXCH =        8
   RHO(1)=    0.500       N(1)  =     2000
   RHO(2)=  100.500       N(2)  =     4000
 


--------------------------------------------------------------------------------------------------------


 ion  position               nearest neighbor table
   1  0.500  0.500  0.000-   8 2.43   7 2.43   6 2.43   5 2.43
   2  0.750  0.250  0.500-   6 2.43   8 2.43   5 2.43   7 2.43
   3  0.000  0.000  0.000-   5 2.41   6 2.41   7 2.41   8 2.41
   4  0.250  0.750  0.500-   7 2.41   5 2.41   8 2.41   6 2.41
   5  0.371  0.375  0.250-   3 2.41   4 2.41   2 2.43   1 2.43
   6  0.125  0.629  0.750-   3 2.41   4 2.41   2 2.43   1 2.43
   7  0.625  0.121  0.750-   4 2.41   3 2.41   1 2.43   2 2.43
   8  0.879  0.875  0.250-   4 2.41   3 2.41   1 2.43   2 2.43
 
  LATTYP: Found a body centered tetragonal cell.
 ALAT       =     5.6027357700
 C/A-ratio  =     1.9830197459
  
  Lattice vectors:
  
 A1 = (   1.0357585192,  -5.0026425748,  -4.5228292072)
 A2 = (  -5.1087403584,   0.0000000000,  -4.5228296824)
 A3 = (   4.0729818392,   5.0026425748,   2.2225205196)


Analysis of symmetry for initial positions (statically):
=====================================================================
 Subroutine PRICEL returns:
 Original cell was already a primitive cell.
 

 Routine SETGRP: Setting up the symmetry group for a 
 body centered tetragonal supercell.


 Subroutine GETGRP returns: Found  8 space group operations
 (whereof  4 operations were pure point group operations)
 out of a pool of 16 trial point group operations.


The static configuration has the point symmetry S_4 .
 The point group associated with its full space group is D_2d.


Analysis of symmetry for dynamics (positions and initial velocities):
=====================================================================
 Subroutine PRICEL returns:
 Original cell was already a primitive cell.
 

 Routine SETGRP: Setting up the symmetry group for a 
 body centered tetragonal supercell.


 Subroutine GETGRP returns: Found  8 space group operations
 (whereof  4 operations were pure point group operations)
 out of a pool of 16 trial point group operations.


The dynamic configuration has the point symmetry S_4 .
 The point group associated with its full space group is D_2d.


 Subroutine INISYM returns: Found  8 space group operations
 (whereof  4 operations are pure point group operations),
 and found     1 'primitive' translations


----------------------------------------------------------------------------------------

                                     Primitive cell                                     

  volume of cell :     174.3803

  direct lattice vectors                    reciprocal lattice vectors
     5.108740358  0.000000000 -2.300308688     0.195742968  0.040527070  0.000000000
    -1.035758519  5.002642575 -2.300309163     0.000000000  0.199894353  0.000000000
     0.000000000  0.000000000  6.823138370     0.065991517  0.081054136  0.146560123

  length of vectors
     5.602735770  5.602736000  6.823138370     0.199894354  0.199894353  0.180012563

  position of ions in fractional coordinates (direct lattice)
     0.500000000  0.500000000  1.000000000
     0.750000000  0.250000000  0.500000000
     0.000000000  0.000000000  0.000000000
     0.250000000  0.750000000  0.500000000
     0.371215780  0.375000000  0.250000000
     0.125000000  0.628784220  0.750000000
     0.625000000  0.121215780  0.750000000
     0.878784220  0.875000000  0.250000000

  ion indices of the primitive-cell ions
   primitive index   ion index
                 1           1
                 2           2
                 3           3
                 4           4
                 5           5
                 6           6
                 7           7
                 8           8

----------------------------------------------------------------------------------------

 
 
 KPOINTS: pymatgen with grid density = 728 / numbe

Automatic generation of k-mesh.
 Grid dimensions read from file:
 generate k-points for:    4    4    3

 Generating k-lattice:

  Cartesian coordinates                     Fractional coordinates (reciprocal lattice)
     0.048935742  0.010131768  0.000000000     0.250000000  0.000000000  0.000000000
     0.000000000  0.049973588  0.000000000     0.000000000  0.250000000  0.000000000
     0.021997172  0.027018045  0.048853374    -0.000000000  0.000000000  0.333333333

  Length of vectors
     0.049973589  0.049973588  0.060004188

  Shift w.r.t. Gamma in fractional coordinates (k-lattice)
     0.000000000  0.000000000  0.000000000

 -----------------------------------------------------------------------------
|                                                                             |
|           W    W    AA    RRRRR   N    N  II  N    N   GGGG   !!!           |
|           W    W   A  A   R    R  NN   N  II  NN   N  G    G  !!!           |
|           W    W  A    A  R    R  N N  N  II  N N  N  G       !!!           |
|           W WW W  AAAAAA  RRRRR   N  N N  II  N  N N  G  GGG   !            |
|           WW  WW  A    A  R   R   N   NN  II  N   NN  G    G                |
|           W    W  A    A  R    R  N    N  II  N    N   GGGG   !!!           |
|                                                                             |
|     Your reciprocal lattice and k-lattice belong to different lattice       |
|     classes:                                                                |
|                                                                             |
|        The reciprocal lattice is body-centered tetragonal,                  |
|        whereas your k-lattice is base-centered monoclinic.                  |
|                                                                             |
|     Results are often still useful ...                                      |
|                                                                             |
 -----------------------------------------------------------------------------

 WARNING: IBZKPT: internal override: KBLOWUP is changed to .FALSE.
      ... skipping the blow-up phase ...

 TETIRR: Found     74 inequivalent tetrahedra from      288
 
 Subroutine IBZKPT returns following result:
 ===========================================
 
 Found     17 irreducible k-points:
 
 Following reciprocal coordinates:
            Coordinates               Weight
  0.000000  0.000000  0.000000      1.000000
  0.250000 -0.000000  0.000000      4.000000
  0.500000 -0.000000  0.000000      2.000000
  0.250000  0.250000  0.000000      2.000000
  0.500000  0.250000  0.000000      4.000000
 -0.250000  0.250000  0.000000      2.000000
  0.500000  0.500000  0.000000      1.000000
  0.000000 -0.000000  0.333333      2.000000
  0.250000  0.000000  0.333333      4.000000
  0.500000 -0.000000  0.333333      4.000000
 -0.250000 -0.000000  0.333333      4.000000
  0.250000  0.250000  0.333333      2.000000
  0.500000  0.250000  0.333333      4.000000
 -0.250000  0.250000  0.333333      4.000000
  0.500000  0.500000  0.333333      2.000000
 -0.250000  0.500000  0.333333      4.000000
 -0.250000 -0.250000  0.333333      2.000000
 
 Following cartesian coordinates:
            Coordinates               Weight
  0.000000  0.000000  0.000000      1.000000
  0.048936  0.010132  0.000000      4.000000
  0.097871  0.020264  0.000000      2.000000
  0.048936  0.060105  0.000000      2.000000
  0.097871  0.070237  0.000000      4.000000
 -0.048936  0.039842  0.000000      2.000000
  0.097871  0.120211  0.000000      1.000000
  0.021997  0.027018  0.048853      2.000000
  0.070933  0.037150  0.048853      4.000000
  0.119869  0.047282  0.048853      4.000000
 -0.026939  0.016886  0.048853      4.000000
  0.070933  0.087123  0.048853      2.000000
  0.119869  0.097255  0.048853      4.000000
 -0.026939  0.066860  0.048853      4.000000
  0.119869  0.147229  0.048853      2.000000
 -0.026939  0.116833  0.048853      4.000000
 -0.026939 -0.033087  0.048853      2.000000
 
 WARNING: full set of k-points will be restricted to regular points only.

 
 Subroutine IBZKPT_HF returns following result:
 ==============================================
 
 Found     48 k-points in 1st BZ
 the following     48 k-points will be used (e.g. in the exchange kernel)
 Following reciprocal coordinates:   # in IRBZ
  0.000000  0.000000  0.000000    0.02083333   1 t-inv F
  0.250000 -0.000000  0.000000    0.02083333   2 t-inv F
  0.500000 -0.000000  0.000000    0.02083333   3 t-inv F
  0.250000  0.250000  0.000000    0.02083333   4 t-inv F
  0.500000  0.250000  0.000000    0.02083333   5 t-inv F
 -0.250000  0.250000  0.000000    0.02083333   6 t-inv F
  0.500000  0.500000  0.000000    0.02083333   7 t-inv F
  0.000000 -0.000000  0.333333    0.02083333   8 t-inv F
  0.250000  0.000000  0.333333    0.02083333   9 t-inv F
  0.500000 -0.000000  0.333333    0.02083333  10 t-inv F
 -0.250000 -0.000000  0.333333    0.02083333  11 t-inv F
  0.250000  0.250000  0.333333    0.02083333  12 t-inv F
  0.500000  0.250000  0.333333    0.02083333  13 t-inv F
 -0.250000  0.250000  0.333333    0.02083333  14 t-inv F
  0.500000  0.500000  0.333333    0.02083333  15 t-inv F
 -0.250000  0.500000  0.333333    0.02083333  16 t-inv F
 -0.250000 -0.250000  0.333333    0.02083333  17 t-inv F
 -0.000000 -0.250000  0.000000    0.02083333   2 t-inv F
 -0.250000 -0.000000  0.000000    0.02083333   2 t-inv F
 -0.000000  0.250000  0.000000    0.02083333   2 t-inv F
 -0.000000 -0.500000  0.000000    0.02083333   3 t-inv F
  0.250000  0.500000  0.000000    0.02083333   5 t-inv F
  0.250000 -0.250000  0.000000    0.02083333   6 t-inv F
  0.000000  0.000000 -0.333333    0.02083333   8 t-inv F
  0.000000 -0.250000 -0.333333    0.02083333   9 t-inv F
 -0.250000  0.000000 -0.333333    0.02083333   9 t-inv F
  0.000000  0.250000  0.333333    0.02083333   9 t-inv F
 -0.000000 -0.500000 -0.333333    0.02083333  10 t-inv F
 -0.500000 -0.000000 -0.333333    0.02083333  10 t-inv F
 -0.000000  0.500000  0.333333    0.02083333  10 t-inv F
 -0.000000  0.250000 -0.333333    0.02083333  11 t-inv F
  0.250000 -0.000000 -0.333333    0.02083333  11 t-inv F
 -0.000000 -0.250000  0.333333    0.02083333  11 t-inv F
  0.250000  0.500000  0.333333    0.02083333  13 t-inv F
  0.250000 -0.250000  0.333333    0.02083333  14 t-inv F
  0.500000 -0.250000  0.333333    0.02083333  16 t-inv F
 -0.250000 -0.250000  0.000000    0.02083333   4 t-inv T
 -0.500000 -0.250000  0.000000    0.02083333   5 t-inv T
 -0.250000 -0.500000  0.000000    0.02083333   5 t-inv T
 -0.250000 -0.250000 -0.333333    0.02083333  12 t-inv T
 -0.500000 -0.250000 -0.333333    0.02083333  13 t-inv T
 -0.250000 -0.500000 -0.333333    0.02083333  13 t-inv T
  0.250000 -0.250000 -0.333333    0.02083333  14 t-inv T
 -0.250000  0.250000 -0.333333    0.02083333  14 t-inv T
 -0.500000 -0.500000 -0.333333    0.02083333  15 t-inv T
  0.250000 -0.500000 -0.333333    0.02083333  16 t-inv T
 -0.500000  0.250000 -0.333333    0.02083333  16 t-inv T
  0.250000  0.250000 -0.333333    0.02083333  17 t-inv T
 -----------------------------------------------------------------------------
|                                                                             |
|           W    W    AA    RRRRR   N    N  II  N    N   GGGG   !!!           |
|           W    W   A  A   R    R  NN   N  II  NN   N  G    G  !!!           |
|           W    W  A    A  R    R  N N  N  II  N N  N  G       !!!           |
|           W WW W  AAAAAA  RRRRR   N  N N  II  N  N N  G  GGG   !            |
|           WW  WW  A    A  R   R   N   NN  II  N   NN  G    G                |
|           W    W  A    A  R    R  N    N  II  N    N   GGGG   !!!           |
|                                                                             |
|     The number of bands has been changed from the values supplied in        |
|     the INCAR file. This is a result of running the parallel version.       |
|     The orbitals not found in the WAVECAR file will be initialized with     |
|     random numbers, which is usually adequate. For correlated               |
|     calculations, however, you should redo the groundstate calculation.     |
|     I found NBANDS = 58. Now, NBANDS = 60.                                  |
|                                                                             |
 -----------------------------------------------------------------------------



--------------------------------------------------------------------------------------------------------




 Dimension of arrays:
   k-points           NKPTS =     17   k-points in BZ     NKDIM =     48   number of bands    NBANDS=     60
   number of dos      NEDOS =   1372   number of ions     NIONS =      8
   non local maximal  LDIM  =      6   non local SUM 2l+1 LMDIM =     18
   total plane-waves  NPLWV = 138240
   max r-space proj   IRMAX =      1   max aug-charges    IRDMAX=  34767
   dimension x,y,z NGX =    48 NGY =   48 NGZ =   60
   dimension x,y,z NGXF=    96 NGYF=   96 NGZF=  120
   support grid    NGXF=    96 NGYF=   96 NGZF=  120
   ions per type =               2   2   4
   NGX,Y,Z   is equivalent  to a cutoff of  14.24, 14.24, 14.62 a.u.
   NGXF,Y,Z  is equivalent  to a cutoff of  28.49, 28.49, 29.24 a.u.

 SYSTEM =  unknown system                          
 POSCAR =  Ga2 Cu2 Se4                             

 Startparameter for this run:
   NWRITE =      2    write-flag & timer
   PREC   = accura    normal or accurate (medium, high low for compatibility)
   ISTART =      0    job   : 0-new  1-cont  2-samecut
   ICHARG =      2    charge: 1-file 2-atom 10-const
   ISPIN  =      1    spin polarized calculation?
   LNONCOLLINEAR =      F non collinear calculations
   LSORBIT =      F    spin-orbit coupling
   INIWAV =      1    electr: 0-lowe 1-rand  2-diag
   LASPH  =      T    aspherical Exc in radial PAW
 Electronic Relaxation 1
   ENCUT  =  680.0 eV  49.98 Ry    7.07 a.u.  11.91 11.91 14.51*2*pi/ulx,y,z
   ENINI  =  680.0     initial cutoff
   ENAUG  = 1360.0 eV  augmentation charge cutoff
   NELM   =    200;   NELMIN=  5; NELMDL=  0     # of ELM steps 
   EDIFF  = 0.1E-04   stopping-criterion for ELM
   LREAL  =      F    real-space projection
   NLSPLINE    = F    spline interpolate recip. space projectors
   LCOMPAT=      F    compatible to vasp.4.4
   GGA_COMPAT  = T    GGA compatible to vasp.4.4-vasp.4.6
   LMAXPAW     = -100 max onsite density
   LMAXMIX     =    4 max onsite mixed and CHGCAR
   VOSKOWN=      0    Vosko Wilk Nusair interpolation
   ROPT   =    0.00000   0.00000   0.00000
 Ionic relaxation
   EDIFFG = 0.1E-03   stopping-criterion for IOM
   NSW    =      0    number of steps for IOM
   NBLOCK =      1;   KBLOCK =      1    inner block; outer block 
   IBRION =     -1    ionic relax: 0-MD 1-quasi-New 2-CG
   NFREE  =      0    steps in history (QN), initial steepest desc. (CG)
   ISIF   =      0    stress and relaxation
   IWAVPR =     10    prediction:  0-non 1-charg 2-wave 3-comb
   ISYM   =      3    0-nonsym 1-usesym 2-fastsym
   LCORR  =      T    Harris-Foulkes like correction to forces

   POTIM  = 0.5000    time-step for ionic-motion
   TEIN   =    0.0    initial temperature
   TEBEG  =    0.0;   TEEND  =   0.0 temperature during run
   SMASS  =  -3.00    Nose mass-parameter (am)
   estimated Nose-frequenzy (Omega)   =  0.10E-29 period in steps = 0.13E+47 mass=  -0.717E-27a.u.
   SCALEE = 1.0000    scale energy and forces
   NPACO  =    256;   APACO  = 10.0  distance and # of slots for P.C.
   PSTRESS=    0.0 pullay stress

  Mass of Ions in am
   POMASS =  69.72 63.55 78.96
  Ionic Valenz
   ZVAL   =  13.00 11.00  6.00
  Atomic Wigner-Seitz radii
   RWIGS  =  -1.00 -1.00 -1.00
  virtual crystal weights 
   VCA    =   1.00  1.00  1.00
   NELECT =      72.0000    total number of electrons
   NUPDOWN=      -1.0000    fix difference up-down

 DOS related values:
   EMIN   =  10.00;   EMAX   =-10.00  energy-range for DOS
   EFERMI =   0.00;   METHOD = LEGACY      
   ISMEAR =    -5;   SIGMA  =   0.05  broadening in eV -4-tet -1-fermi 0-gaus

 Electronic relaxation 2 (details)
   IALGO  =     38    algorithm
   LDIAG  =      T    sub-space diagonalisation (order eigenvalues)
   LSUBROT=      F    optimize rotation matrix (better conditioning)
   TURBO    =      0    0=normal 1=particle mesh
   IRESTART =      0    0=no restart 2=restart with 2 vectors
   NREBOOT  =      0    no. of reboots
   NMIN     =      0    reboot dimension
   EREF     =   0.00    reference energy to select bands
   IMIX   =      1    mixing-type and parameters
     AMIX     =   0.40;   BMIX     =  1.00
     AMIX_MAG =   1.60;   BMIX_MAG =  1.00
     AMIN     =   0.10
     WC   =   100.;   INIMIX=   1;  MIXPRE=   1;  MAXMIX= -45

 Intra band minimization:
   WEIMIN = 0.0000     energy-eigenvalue tresh-hold
   EBREAK =  0.42E-07  absolut break condition
   DEPER  =   0.30     relativ break condition  

   TIME   =   0.40     timestep for ELM

  volume/ion in A,a.u.               =      21.80       147.10
  Fermi-wavevector in a.u.,A,eV,Ry     =   1.219045  2.303662 20.219229  1.486071
  Thomas-Fermi vector in A             =   2.354311
 
 Write flags
   LWAVE        =      T    write WAVECAR
   LDOWNSAMPLE  =      F    k-point downsampling of WAVECAR
   LCHARG       =      T    write CHGCAR
   LVTOT        =      T    write LOCPOT, total local potential
   LVHAR        =      F    write LOCPOT, Hartree potential only
   LELF         =      F    write electronic localiz. function (ELF)
   LORBIT       =     11    0 simple, 1 ext, 2 COOP (PROOUT), +10 PAW based schemes


 Dipole corrections
   LMONO  =      F    monopole corrections only (constant potential shift)
   LDIPOL =      F    correct potential (dipole corrections)
   IDIPOL =      0    1-x, 2-y, 3-z, 4-all directions 
   EPSILON=  1.0000000 bulk dielectric constant

 Exchange correlation treatment:
   GGA     =    PE    GGA type
   LEXCH   =     8    internal setting for exchange type
   LIBXC   =     F    Libxc                    
   VOSKOWN =     0    Vosko Wilk Nusair interpolation
   EXXOEP  =     0    0=HF, 1=EXX-LHF (local Hartree Fock) 2=EXX OEP
   LHFCALC =     T    Hartree Fock is set to
   LSYMGRAD=     F    symmetrize gradient (conserves proper symmetry)
   PRECFOCK=fast      Normal, Fast or Accurate (Low or Medium for compatibility)
   LRHFCALC=     F    long range Hartree Fock
   LRSCOR  =     F    long range correlation only (use DFT for short range part)
   LTHOMAS =     F    Thomas Fermi screening in HF
   LMODELHF=     F    short range full HF, long range fraction AEXX
   FOCKCORR=     1    mode to apply convergence corrections
   LFOCKACE=     T    use Adeptively-Compressed-Exchange operator
   ENCUT4O =  -1.0   cutoff for four orbital integrals eV
   LMAXFOCK=     4    L truncation for augmentation on plane wave grid
   LMAXFOCKAE=  -1    L truncation for all-electron charge restoration on plane wave grid
   NMAXFOCKAE=   1    number of basis functions for all-electron charge restoration
   LFOCKAEDFT=     F  apply the AE augmentation even for DFT
   NKREDX  =     1    reduce k-point grid by
   NKREDY  =     1    reduce k-point grid by
   NKREDZ  =     1    reduce k-point grid by
   SHIFTRED=     F    shift reduced grid of Gamma
   HFKIDENT=     F    idential grid for each k-point
   ODDONLY =     F    use only odd q-grid points
   EVENONLY=     F    use only even q-grid points
   HFALPHA =   -1.0000 decay constant for conv. correction
   MCALPHA =    0.0000 extent of test-charge in conv. correction in multipole expansion
   AEXX    =    0.2500 exact exchange contribution
   HFSCREEN=    0.2000 screening length (either q_TF or 0.3 A-1)
   HFSCREENC=   0.2000 screening length for correlation (either q_TF or 0.3 A-1)
   HFRCUT  =    0.0000 spherical cutoff for potential kernel
   ALDAX   =    0.7500 LDA exchange part
   AGGAX   =    0.7500 GGA exchange part
   ALDAC   =    1.0000 LDA correlation
   AGGAC   =    1.0000 GGA correlation
   ENCUTFOCK=  -1.0 apply spherical cutoff to Coloumb kernel
   NBANDSGWLOW=     1    first orbital included in HF term
   NBLOCK_FOCK=    64    blocking factor in FOCK_ACC

 Linear response parameters
   LEPSILON=     F    determine dielectric tensor
   LRPA    =     F    only Hartree local field effects (RPA)
   LNABLA  =     F    use nabla operator in PAW spheres
   LVEL    =     F    velocity operator in full k-point grid
   CSHIFT  =0.0000    complex shift for real part using Kramers Kronig
   OMEGAMAX=  -1.0    maximum frequency
   DEG_THRESHOLD= 0.2000000E-02 threshold for treating states as degnerate
   RTIME   =   -0.100 relaxation time in fs
  (WPLASMAI=    0.000 imaginary part of plasma frequency in eV, 0.658/RTIME)
   DFIELD  = 0.0000000 0.0000000 0.0000000 field for delta impulse in time
 
  Optional k-point grid parameters
   LKPOINTS_OPT  =     F    use optional k-point grid
   KPOINTS_OPT_MODE=     1    mode for optional k-point grid
 
 Orbital magnetization related:
   ORBITALMAG=     F  switch on orbital magnetization
   LCHIMAG   =     F  perturbation theory with respect to B field
   DQ        =  0.001000  dq finite difference perturbation B field
   LLRAUG    =     F  two centre corrections for induced B field
   LBONE     =     F  B-component reconstruction in AE one-centre
   LVGVCALC  =     T  calculate vGv susceptibility
   LVGVAPPL  =     F  apply vGv susceptibility instead of pGv for G=0

 Random number generation:
   RANDOM_GENERATOR = DEFAULT
   PCG_SEED         = not used


--------------------------------------------------------------------------------------------------------


 Static calculation
 charge density and potential will be updated during run
 non-spin polarized calculation
 Variant of blocked Davidson
 Davidson routine will perform the subspace rotation
 perform sub-space diagonalisation
    after iterative eigenvector-optimisation
 Kerker-like  mixing scheme
 using additional bands           24
 reciprocal scheme for non local part
 use partial core corrections
 calculate Harris-corrections to forces 
   (improved forces if not selfconsistent)
 use gradient corrections 
 use of overlap-Matrix (Vanderbilt PP)
 Fermi weights with tetrahedron method with Bloechl corrections


--------------------------------------------------------------------------------------------------------


  energy-cutoff  :      680.00
  volume of cell :      174.38
      direct lattice vectors                 reciprocal lattice vectors
     5.108740358  0.000000000 -2.300308688     0.195742968  0.040527070  0.000000000
    -1.035758519  5.002642575 -2.300309163     0.000000000  0.199894353  0.000000000
     0.000000000  0.000000000  6.823138370     0.065991517  0.081054136  0.146560123

  length of vectors
     5.602735770  5.602736000  6.823138370     0.199894354  0.199894353  0.180012563


 
 k-points in units of 2pi/SCALE and weight: pymatgen with grid density = 728 / numbe
   0.00000000  0.00000000  0.00000000       0.021
   0.04893574  0.01013177  0.00000000       0.083
   0.09787148  0.02026354  0.00000000       0.042
   0.04893574  0.06010536  0.00000000       0.042
   0.09787148  0.07023712  0.00000000       0.083
  -0.04893574  0.03984182  0.00000000       0.042
   0.09787148  0.12021071  0.00000000       0.021
   0.02199717  0.02701805  0.04885337       0.042
   0.07093291  0.03714981  0.04885337       0.083
   0.11986866  0.04728158  0.04885337       0.083
  -0.02693857  0.01688628  0.04885337       0.083
   0.07093291  0.08712340  0.04885337       0.042
   0.11986866  0.09725517  0.04885337       0.083
  -0.02693857  0.06685987  0.04885337       0.083
   0.11986866  0.14722876  0.04885337       0.042
  -0.02693857  0.11683345  0.04885337       0.083
  -0.02693857 -0.03308731  0.04885337       0.042
 
 k-points in reciprocal lattice and weights: pymatgen with grid density = 728 / numbe
   0.00000000  0.00000000  0.00000000       0.021
   0.25000000 -0.00000000  0.00000000       0.083
   0.50000000 -0.00000000  0.00000000       0.042
   0.25000000  0.25000000  0.00000000       0.042
   0.50000000  0.25000000  0.00000000       0.083
  -0.25000000  0.25000000  0.00000000       0.042
   0.50000000  0.50000000  0.00000000       0.021
   0.00000000 -0.00000000  0.33333333       0.042
   0.25000000  0.00000000  0.33333333       0.083
   0.50000000 -0.00000000  0.33333333       0.083
  -0.25000000 -0.00000000  0.33333333       0.083
   0.25000000  0.25000000  0.33333333       0.042
   0.50000000  0.25000000  0.33333333       0.083
  -0.25000000  0.25000000  0.33333333       0.083
   0.50000000  0.50000000  0.33333333       0.042
  -0.25000000  0.50000000  0.33333333       0.083
  -0.25000000 -0.25000000  0.33333333       0.042
 
 position of ions in fractional coordinates (direct lattice) 
   0.50000000  0.50000000  0.00000000
   0.75000000  0.25000000  0.50000000
   0.00000000  0.00000000  0.00000000
   0.25000000  0.75000000  0.50000000
   0.37121578  0.37500000  0.25000000
   0.12500000  0.62878422  0.75000000
   0.62500000  0.12121578  0.75000000
   0.87878422  0.87500000  0.25000000
 
 position of ions in cartesian coordinates  (Angst):
   2.03649092  2.50132129 -2.30030893
   3.57261564  1.25066064  1.11126038
   0.00000000  0.00000000  0.00000000
   0.50036620  3.75198193  1.11126014
   1.50803559  1.87599097 -0.01074223
  -0.01267607  3.14558271  3.38341709
   3.06741245  0.60639922  3.40082708
   3.58319171  4.37731225 -2.32846090
 


--------------------------------------------------------------------------------------------------------


 k-point   1 :   0.0000 0.0000 0.0000  plane waves:    7043
 k-point   2 :   0.2500-0.0000 0.0000  plane waves:    7032
 k-point   3 :   0.5000-0.0000 0.0000  plane waves:    7016
 k-point   4 :   0.2500 0.2500 0.0000  plane waves:    7031
 k-point   5 :   0.5000 0.2500 0.0000  plane waves:    7016
 k-point   6 :  -0.2500 0.2500 0.0000  plane waves:    7013
 k-point   7 :   0.5000 0.5000 0.0000  plane waves:    7032
 k-point   8 :   0.0000-0.0000 0.3333  plane waves:    7016
 k-point   9 :   0.2500 0.0000 0.3333  plane waves:    7004
 k-point  10 :   0.5000-0.0000 0.3333  plane waves:    7027
 k-point  11 :  -0.2500-0.0000 0.3333  plane waves:    7015
 k-point  12 :   0.2500 0.2500 0.3333  plane waves:    7022
 k-point  13 :   0.5000 0.2500 0.3333  plane waves:    7029
 k-point  14 :  -0.2500 0.2500 0.3333  plane waves:    7032
 k-point  15 :   0.5000 0.5000 0.3333  plane waves:    7046
 k-point  16 :  -0.2500 0.5000 0.3333  plane waves:    7031
 k-point  17 :  -0.2500-0.2500 0.3333  plane waves:    7032

 maximum and minimum number of plane-waves per node :       732      679

 maximum number of plane-waves:      7046
 maximum index in each direction: 
   IXMAX=   12   IYMAX=   12   IZMAX=   14
   IXMIN=  -12   IYMIN=  -12   IZMIN=  -14


 parallel 3D FFT for wavefunctions:
    minimum data exchange during FFTs selected (reduces bandwidth)
 parallel 3D FFT for charge:
    minimum data exchange during FFTs selected (reduces bandwidth)


 FFT grid for exact exchange (Hartree Fock) 
  NGX = 28; NGY = 28; NGZ = 32

 
 Radii for the augmentation spheres in the non-local exchange
 for species   1 augmentation radius   1.392 (default was   1.031)
       energy cutoff for augmentation   2720.0
 for species   2 augmentation radius   1.273 (default was   0.943)
       energy cutoff for augmentation   2720.0
 for species   3 augmentation radius   1.459 (default was   1.081)
       energy cutoff for augmentation   2720.0

 real space projection operators:
  total allocation   :       2587.50 KBytes
  max/ min on nodes  :        278.71        189.06

 Maximum index for augmentation-charges in exchange          263
  SETUP_FOCK is finished

 total amount of memory used by VASP MPI-rank0    39610. kBytes
=======================================================================

   base      :      30000. kBytes
   nonl-proj :       5559. kBytes
   fftplans  :        995. kBytes
   grid      :       1326. kBytes
   one-center:         15. kBytes
   HF        :         64. kBytes
   nonlr-proj:        607. kBytes
   wavefun   :       1044. kBytes
 
     INWAV:  cpu time      0.0001: real time      0.0006
 initial charge density was supplied:
 charge density of overlapping atoms calculated
 number of electron      72.0000000 magnetization 
 keeping initial charge density in first step


--------------------------------------------------------------------------------------------------------


 Maximum index for augmentation-charges          927 (set IRDMAX)


--------------------------------------------------------------------------------------------------------


 First call to EWALD:  gamma=   0.317
 Maximum number of real-space cells 3x 3x 3
 Maximum number of reciprocal cells 3x 3x 3

    FEWALD:  cpu time      0.0022: real time      0.0026


--------------------------------------- Ionic step        1  -------------------------------------------




--------------------------------------- Iteration      1(   1)  ---------------------------------------


    POTLOK:  cpu time      0.0207: real time      0.0931
    SETDIJ:  cpu time      0.1555: real time      0.1560
     EDDAV:  cpu time      0.4820: real time      0.5162
 BZINTS: Fermi energy:   18.128248;   72.000000 electrons
         Band energy: 0.355418E+03;  BLOECHL correction:   -0.338884
       DOS:  cpu time      0.0114: real time      0.0116
    --------------------------------------------
      LOOP:  cpu time      0.6696: real time      0.7769

 eigenvalue-minimisations  :  2352
 total energy-change (2. order) :-0.3213677E+04  (-0.3630479E+04)
 number of electron      72.0000000 magnetization 
 augmentation part       72.0000000 magnetization 

 Free energy of the ion-electron system (eV)
  ---------------------------------------------------
  alpha Z        PSCENC =       236.66789905
  Ewald energy   TEWEN  =     -4863.29910036
  -Hartree energ DENC   =     -2637.76833053
  -exchange      EXHF   =         0.00000000
  -V(xc)+E(xc)   XCENC  =       176.81049871
  PAW double counting   =      6503.92661446   -11078.58983084
  entropy T*S    EENTRO =         0.00000000
  eigenvalues    EBANDS =       355.41805981
  atomic energy  EATOM  =      8093.15734121
  Solvation  Ediel_sol  =         0.00000000
  ---------------------------------------------------
  free energy    TOTEN  =     -3213.67684849 eV

  energy without entropy =    -3213.67684849  energy(sigma->0) =    -3213.67684849
  exchange ACFDT corr.  =         0.00000000  see jH, gK, PRB 81, 115126


--------------------------------------------------------------------------------------------------------




--------------------------------------- Iteration      1(   2)  ---------------------------------------


     EDDAV:  cpu time      0.3852: real time      0.3886
 BZINTS: Fermi energy:    5.836907;   72.000000 electrons
         Band energy:-0.292857E+03;  BLOECHL correction:    0.000000
       DOS:  cpu time      0.0059: real time      0.0059
    --------------------------------------------
      LOOP:  cpu time      0.3911: real time      0.3945

 eigenvalue-minimisations  :  2040
 total energy-change (2. order) :-0.6482750E+03  (-0.5890765E+03)
 number of electron      72.0000000 magnetization 
 augmentation part       72.0000000 magnetization 

 Free energy of the ion-electron system (eV)
  ---------------------------------------------------
  alpha Z        PSCENC =       236.66789905
  Ewald energy   TEWEN  =     -4863.29910036
  -Hartree energ DENC   =     -2637.76833053
  -exchange      EXHF   =         0.00000000
  -V(xc)+E(xc)   XCENC  =       176.81049871
  PAW double counting   =      6503.92661446   -11078.58983084
  entropy T*S    EENTRO =         0.00000000
  eigenvalues    EBANDS =      -292.85694788
  atomic energy  EATOM  =      8093.15734121
  Solvation  Ediel_sol  =         0.00000000
  ---------------------------------------------------
  free energy    TOTEN  =     -3861.95185618 eV

  energy without entropy =    -3861.95185618  energy(sigma->0) =    -3861.95185618
  exchange ACFDT corr.  =         0.00000000  see jH, gK, PRB 81, 115126


--------------------------------------------------------------------------------------------------------




--------------------------------------- Iteration      1(   3)  ---------------------------------------


     EDDAV:  cpu time      0.4153: real time      0.4345
 BZINTS: Fermi energy:    2.447863;   72.000000 electrons
         Band energy:-0.415804E+03;  BLOECHL correction:    0.000000
       DOS:  cpu time      0.0058: real time      0.0058
    --------------------------------------------
      LOOP:  cpu time      0.4212: real time      0.4404

 eigenvalue-minimisations  :  2400
 total energy-change (2. order) :-0.1229469E+03  (-0.1186673E+03)
 number of electron      72.0000000 magnetization 
 augmentation part       72.0000000 magnetization 

 Free energy of the ion-electron system (eV)
  ---------------------------------------------------
  alpha Z        PSCENC =       236.66789905
  Ewald energy   TEWEN  =     -4863.29910036
  -Hartree energ DENC   =     -2637.76833053
  -exchange      EXHF   =         0.00000000
  -V(xc)+E(xc)   XCENC  =       176.81049871
  PAW double counting   =      6503.92661446   -11078.58983084
  entropy T*S    EENTRO =         0.00000000
  eigenvalues    EBANDS =      -415.80388563
  atomic energy  EATOM  =      8093.15734121
  Solvation  Ediel_sol  =         0.00000000
  ---------------------------------------------------
  free energy    TOTEN  =     -3984.89879393 eV

  energy without entropy =    -3984.89879393  energy(sigma->0) =    -3984.89879393
  exchange ACFDT corr.  =         0.00000000  see jH, gK, PRB 81, 115126


--------------------------------------------------------------------------------------------------------




--------------------------------------- Iteration      1(   4)  ---------------------------------------


     EDDAV:  cpu time      0.4345: real time      0.4534
 BZINTS: Fermi energy:    2.168378;   72.000000 electrons
         Band energy:-0.422444E+03;  BLOECHL correction:    0.000000
       DOS:  cpu time      0.0056: real time      0.0056
    --------------------------------------------
      LOOP:  cpu time      0.4401: real time      0.4590

 eigenvalue-minimisations  :  2556
 total energy-change (2. order) :-0.6640116E+01  (-0.6599418E+01)
 number of electron      72.0000000 magnetization 
 augmentation part       72.0000000 magnetization 

 Free energy of the ion-electron system (eV)
  ---------------------------------------------------
  alpha Z        PSCENC =       236.66789905
  Ewald energy   TEWEN  =     -4863.29910036
  -Hartree energ DENC   =     -2637.76833053
  -exchange      EXHF   =         0.00000000
  -V(xc)+E(xc)   XCENC  =       176.81049871
  PAW double counting   =      6503.92661446   -11078.58983084
  entropy T*S    EENTRO =         0.00000000
  eigenvalues    EBANDS =      -422.44400166
  atomic energy  EATOM  =      8093.15734121
  Solvation  Ediel_sol  =         0.00000000
  ---------------------------------------------------
  free energy    TOTEN  =     -3991.53890996 eV

  energy without entropy =    -3991.53890996  energy(sigma->0) =    -3991.53890996
  exchange ACFDT corr.  =         0.00000000  see jH, gK, PRB 81, 115126


--------------------------------------------------------------------------------------------------------




--------------------------------------- Iteration      1(   5)  ---------------------------------------


    POTLOK:  cpu time      0.0187: real time      0.0370
    SETDIJ:  cpu time      0.4239: real time      0.4249
     EDDAV:  cpu time     30.4595: real time     30.7758
 BZINTS: Fermi energy:    2.975764;   72.000000 electrons
         Band energy:-0.385024E+03;  BLOECHL correction:    0.000000
       DOS:  cpu time      0.0066: real time      0.0066
    CHARGE:  cpu time      0.0327: real time      0.0587
    MIXING:  cpu time      0.0006: real time      0.0006
    --------------------------------------------
      LOOP:  cpu time     30.9419: real time     31.3036

 eigenvalue-minimisations  :  2796
 total energy-change (2. order) : 0.3954264E+04  (-0.2310009E+01)
 number of electron      72.0000006 magnetization 
 augmentation part       26.8774826 magnetization 

 Free energy of the ion-electron system (eV)
  ---------------------------------------------------
  alpha Z        PSCENC =       236.66789905
  Ewald energy   TEWEN  =     -4863.29910036
  -Hartree energ DENC   =     -2637.76833053
  -exchange      EXHF   =       173.12238621
  -V(xc)+E(xc)   XCENC  =       131.38906548
  PAW double counting   =      6546.60506962    -7332.12543583
  entropy T*S    EENTRO =         0.00000000
  eigenvalues    EBANDS =      -385.02403599
  atomic energy  EATOM  =      8093.15734121
  Solvation  Ediel_sol  =         0.00000000
  ---------------------------------------------------
  free energy    TOTEN  =       -37.27514114 eV

  energy without entropy =      -37.27514114  energy(sigma->0) =      -37.27514114
  exchange ACFDT corr.  =         0.00000000  see jH, gK, PRB 81, 115126


--------------------------------------------------------------------------------------------------------




--------------------------------------- Iteration      1(   6)  ---------------------------------------


    POTLOK:  cpu time      0.0186: real time      0.0349
    SETDIJ:  cpu time      0.4209: real time      0.4219
     EDDAV:  cpu time     30.4958: real time     30.5681
 BZINTS: Fermi energy:    3.233657;   72.000000 electrons
         Band energy:-0.383763E+03;  BLOECHL correction:    0.000000
       DOS:  cpu time      0.0059: real time      0.0060
    CHARGE:  cpu time      0.0341: real time      0.0341
    MIXING:  cpu time      0.0002: real time      0.0002
    --------------------------------------------
      LOOP:  cpu time     30.9754: real time     31.0651

 eigenvalue-minimisations  :  2628
 total energy-change (2. order) : 0.3330322E+00  (-0.2467435E+00)
 number of electron      72.0000009 magnetization 
 augmentation part       26.8348761 magnetization 

 Free energy of the ion-electron system (eV)
  ---------------------------------------------------
  alpha Z        PSCENC =       236.66789905
  Ewald energy   TEWEN  =     -4863.29910036
  -Hartree energ DENC   =     -2629.19275266
  -exchange      EXHF   =       169.07024147
  -V(xc)+E(xc)   XCENC  =       131.60733401
  PAW double counting   =      7009.38326718    -7800.57284094
  entropy T*S    EENTRO =         0.00000000
  eigenvalues    EBANDS =      -383.76349794
  atomic energy  EATOM  =      8093.15734121
  Solvation  Ediel_sol  =         0.00000000
  ---------------------------------------------------
  free energy    TOTEN  =       -36.94210897 eV

  energy without entropy =      -36.94210897  energy(sigma->0) =      -36.94210897
  exchange ACFDT corr.  =         0.00000000  see jH, gK, PRB 81, 115126


--------------------------------------------------------------------------------------------------------




--------------------------------------- Iteration      1(   7)  ---------------------------------------


    POTLOK:  cpu time      0.0210: real time      0.0380
    SETDIJ:  cpu time      0.4222: real time      0.4232
     EDDAV:  cpu time     29.0928: real time     29.1616
 BZINTS: Fermi energy:    3.182968;   72.000000 electrons
         Band energy:-0.390321E+03;  BLOECHL correction:    0.000000
       DOS:  cpu time      0.0060: real time      0.0062
    CHARGE:  cpu time      0.0411: real time      0.0412
    MIXING:  cpu time      0.0002: real time      0.0002
    --------------------------------------------
      LOOP:  cpu time     29.5833: real time     29.6704

 eigenvalue-minimisations  :  3072
 total energy-change (2. order) : 0.5127628E-01  (-0.8122921E-01)
 number of electron      72.0000011 magnetization 
 augmentation part       27.0210889 magnetization 

 Free energy of the ion-electron system (eV)
  ---------------------------------------------------
  alpha Z        PSCENC =       236.66789905
  Ewald energy   TEWEN  =     -4863.29910036
  -Hartree energ DENC   =     -2618.72581627
  -exchange      EXHF   =       167.84858466
  -V(xc)+E(xc)   XCENC  =       131.51221779
  PAW double counting   =      7358.49495499    -8152.22595605
  entropy T*S    EENTRO =         0.00000000
  eigenvalues    EBANDS =      -390.32095771
  atomic energy  EATOM  =      8093.15734121
  Solvation  Ediel_sol  =         0.00000000
  ---------------------------------------------------
  free energy    TOTEN  =       -36.89083269 eV

  energy without entropy =      -36.89083269  energy(sigma->0) =      -36.89083269
  exchange ACFDT corr.  =         0.00000000  see jH, gK, PRB 81, 115126


--------------------------------------------------------------------------------------------------------




--------------------------------------- Iteration      1(   8)  ---------------------------------------


    POTLOK:  cpu time      0.0203: real time      0.0361
    SETDIJ:  cpu time      0.4213: real time      0.4223
     EDDAV:  cpu time     29.5438: real time     29.6137
 BZINTS: Fermi energy:    3.261618;   72.000000 electrons
         Band energy:-0.386999E+03;  BLOECHL correction:    0.000000
       DOS:  cpu time      0.0060: real time      0.0061
    CHARGE:  cpu time      0.0305: real time      0.0306
    MIXING:  cpu time      0.0001: real time      0.0001
    --------------------------------------------
      LOOP:  cpu time     30.0221: real time     30.1090

 eigenvalue-minimisations  :  3096
 total energy-change (2. order) :-0.2300503E-03  (-0.1655038E-01)
 number of electron      72.0000012 magnetization 
 augmentation part       27.0058171 magnetization 

 Free energy of the ion-electron system (eV)
  ---------------------------------------------------
  alpha Z        PSCENC =       236.66789905
  Ewald energy   TEWEN  =     -4863.29910036
  -Hartree energ DENC   =     -2618.91185424
  -exchange      EXHF   =       167.92642011
  -V(xc)+E(xc)   XCENC  =       131.62708088
  PAW double counting   =      7633.33076723    -8430.39067651
  entropy T*S    EENTRO =         0.00000000
  eigenvalues    EBANDS =      -386.99894010
  atomic energy  EATOM  =      8093.15734121
  Solvation  Ediel_sol  =         0.00000000
  ---------------------------------------------------
  free energy    TOTEN  =       -36.89106274 eV

  energy without entropy =      -36.89106274  energy(sigma->0) =      -36.89106274
  exchange ACFDT corr.  =         0.00000000  see jH, gK, PRB 81, 115126


--------------------------------------------------------------------------------------------------------




--------------------------------------- Iteration      1(   9)  ---------------------------------------


    POTLOK:  cpu time      0.0195: real time      0.0372
    SETDIJ:  cpu time      0.4505: real time      0.4516
     EDDAV:  cpu time     30.6021: real time     30.6743
 BZINTS: Fermi energy:    3.267517;   72.000000 electrons
         Band energy:-0.386160E+03;  BLOECHL correction:    0.000000
       DOS:  cpu time      0.0058: real time      0.0058
    CHARGE:  cpu time      0.0311: real time      0.0311
    MIXING:  cpu time      0.0001: real time      0.0001
    --------------------------------------------
      LOOP:  cpu time     31.1092: real time     31.2002

 eigenvalue-minimisations  :  3204
 total energy-change (2. order) : 0.1150626E-01  (-0.8169669E-03)
 number of electron      72.0000013 magnetization 
 augmentation part       26.9904609 magnetization 

 Free energy of the ion-electron system (eV)
  ---------------------------------------------------
  alpha Z        PSCENC =       236.66789905
  Ewald energy   TEWEN  =     -4863.29910036
  -Hartree energ DENC   =     -2618.06635654
  -exchange      EXHF   =       167.73465083
  -V(xc)+E(xc)   XCENC  =       131.65912469
  PAW double counting   =      7826.34895492    -8624.92234929
  entropy T*S    EENTRO =         0.00000000
  eigenvalues    EBANDS =      -386.15972099
  atomic energy  EATOM  =      8093.15734121
  Solvation  Ediel_sol  =         0.00000000
  ---------------------------------------------------
  free energy    TOTEN  =       -36.87955648 eV

  energy without entropy =      -36.87955648  energy(sigma->0) =      -36.87955648
  exchange ACFDT corr.  =         0.00000000  see jH, gK, PRB 81, 115126


--------------------------------------------------------------------------------------------------------




--------------------------------------- Iteration      1(  10)  ---------------------------------------


    POTLOK:  cpu time      0.0183: real time      0.0355
    SETDIJ:  cpu time      0.4210: real time      0.4220
     EDDAV:  cpu time     30.6760: real time     30.7487
 BZINTS: Fermi energy:    3.245536;   72.000000 electrons
         Band energy:-0.386370E+03;  BLOECHL correction:    0.000000
       DOS:  cpu time      0.0060: real time      0.0060
    CHARGE:  cpu time      0.0348: real time      0.0349
    MIXING:  cpu time      0.0002: real time      0.0002
    --------------------------------------------
      LOOP:  cpu time     31.1563: real time     31.2473

 eigenvalue-minimisations  :  3108
 total energy-change (2. order) : 0.3650867E-02  (-0.4692570E-03)
 number of electron      72.0000013 magnetization 
 augmentation part       26.9905895 magnetization 

 Free energy of the ion-electron system (eV)
  ---------------------------------------------------
  alpha Z        PSCENC =       236.66789905
  Ewald energy   TEWEN  =     -4863.29910036
  -Hartree energ DENC   =     -2617.10927229
  -exchange      EXHF   =       167.70512663
  -V(xc)+E(xc)   XCENC  =       131.66611224
  PAW double counting   =      7941.15931453    -8740.45323886
  entropy T*S    EENTRO =         0.00000000
  eigenvalues    EBANDS =      -386.37008776
  atomic energy  EATOM  =      8093.15734121
  Solvation  Ediel_sol  =         0.00000000
  ---------------------------------------------------
  free energy    TOTEN  =       -36.87590561 eV

  energy without entropy =      -36.87590561  energy(sigma->0) =      -36.87590561
  exchange ACFDT corr.  =         0.00000000  see jH, gK, PRB 81, 115126


--------------------------------------------------------------------------------------------------------




--------------------------------------- Iteration      1(  11)  ---------------------------------------


    POTLOK:  cpu time      0.0208: real time      0.0372
    SETDIJ:  cpu time      0.4233: real time      0.4243
     EDDAV:  cpu time     28.9796: real time     29.0481
 BZINTS: Fermi energy:    3.271265;   72.000000 electrons
         Band energy:-0.386234E+03;  BLOECHL correction:    0.000000
       DOS:  cpu time      0.0058: real time      0.0058
    CHARGE:  cpu time      0.0358: real time      0.0359
    MIXING:  cpu time      0.0002: real time      0.0002
    --------------------------------------------
      LOOP:  cpu time     29.4656: real time     29.5515

 eigenvalue-minimisations  :  2640
 total energy-change (2. order) : 0.6674207E-03  (-0.1143083E-03)
 number of electron      72.0000014 magnetization 
 augmentation part       26.9879880 magnetization 

 Free energy of the ion-electron system (eV)
  ---------------------------------------------------
  alpha Z        PSCENC =       236.66789905
  Ewald energy   TEWEN  =     -4863.29910036
  -Hartree energ DENC   =     -2616.81483477
  -exchange      EXHF   =       167.75180330
  -V(xc)+E(xc)   XCENC  =       131.68174595
  PAW double counting   =      8003.64093492    -8803.42727990
  entropy T*S    EENTRO =         0.00000000
  eigenvalues    EBANDS =      -386.23374759
  atomic energy  EATOM  =      8093.15734121
  Solvation  Ediel_sol  =         0.00000000
  ---------------------------------------------------
  free energy    TOTEN  =       -36.87523819 eV

  energy without entropy =      -36.87523819  energy(sigma->0) =      -36.87523819
  exchange ACFDT corr.  =         0.00000000  see jH, gK, PRB 81, 115126


--------------------------------------------------------------------------------------------------------




--------------------------------------- Iteration      1(  12)  ---------------------------------------


    POTLOK:  cpu time      0.0182: real time      0.0362
    SETDIJ:  cpu time      0.4228: real time      0.4238
     EDDAV:  cpu time     29.3250: real time     29.3943
 BZINTS: Fermi energy:    3.271226;   72.000000 electrons
         Band energy:-0.386119E+03;  BLOECHL correction:    0.000000
       DOS:  cpu time      0.0060: real time      0.0061
    CHARGE:  cpu time      0.0383: real time      0.0384
    MIXING:  cpu time      0.0002: real time      0.0002
    --------------------------------------------
      LOOP:  cpu time     29.8106: real time     29.8991

 eigenvalue-minimisations  :  2568
 total energy-change (2. order) : 0.9156521E-04  (-0.3771928E-04)
 number of electron      72.0000014 magnetization 
 augmentation part       26.9860708 magnetization 

 Free energy of the ion-electron system (eV)
  ---------------------------------------------------
  alpha Z        PSCENC =       236.66789905
  Ewald energy   TEWEN  =     -4863.29910036
  -Hartree energ DENC   =     -2616.65368572
  -exchange      EXHF   =       167.76153136
  -V(xc)+E(xc)   XCENC  =       131.69246137
  PAW double counting   =      8037.88746703    -8837.96986103
  entropy T*S    EENTRO =         0.00000000
  eigenvalues    EBANDS =      -386.11919953
  atomic energy  EATOM  =      8093.15734121
  Solvation  Ediel_sol  =         0.00000000
  ---------------------------------------------------
  free energy    TOTEN  =       -36.87514663 eV

  energy without entropy =      -36.87514663  energy(sigma->0) =      -36.87514663
  exchange ACFDT corr.  =         0.00000000  see jH, gK, PRB 81, 115126


--------------------------------------------------------------------------------------------------------




--------------------------------------- Iteration      1(  13)  ---------------------------------------


    POTLOK:  cpu time      0.0234: real time      0.0419
    SETDIJ:  cpu time      0.4249: real time      0.4259
     EDDAV:  cpu time     30.1627: real time     30.2340
 BZINTS: Fermi energy:    3.271696;   72.000000 electrons
         Band energy:-0.386056E+03;  BLOECHL correction:    0.000000
       DOS:  cpu time      0.0058: real time      0.0058
    CHARGE:  cpu time      0.0306: real time      0.0306
    MIXING:  cpu time      0.0003: real time      0.0003
    --------------------------------------------
      LOOP:  cpu time     30.6478: real time     30.7385

 eigenvalue-minimisations  :  2856
 total energy-change (2. order) :-0.3689422E-04  (-0.1103841E-04)
 number of electron      72.0000014 magnetization 
 augmentation part       26.9857537 magnetization 

 Free energy of the ion-electron system (eV)
  ---------------------------------------------------
  alpha Z        PSCENC =       236.66789905
  Ewald energy   TEWEN  =     -4863.29910036
  -Hartree energ DENC   =     -2616.54915890
  -exchange      EXHF   =       167.76152906
  -V(xc)+E(xc)   XCENC  =       131.69856108
  PAW double counting   =      8056.42377589    -8856.67972566
  entropy T*S    EENTRO =         0.00000000
  eigenvalues    EBANDS =      -386.05630489
  atomic energy  EATOM  =      8093.15734121
  Solvation  Ediel_sol  =         0.00000000
  ---------------------------------------------------
  free energy    TOTEN  =       -36.87518352 eV

  energy without entropy =      -36.87518352  energy(sigma->0) =      -36.87518352
  exchange ACFDT corr.  =         0.00000000  see jH, gK, PRB 81, 115126


--------------------------------------------------------------------------------------------------------




--------------------------------------- Iteration      1(  14)  ---------------------------------------


    POTLOK:  cpu time      0.0194: real time      0.0360
    SETDIJ:  cpu time      0.4222: real time      0.4232
     EDDAV:  cpu time     30.6143: real time     30.6866
 BZINTS: Fermi energy:    3.272234;   72.000000 electrons
         Band energy:-0.385985E+03;  BLOECHL correction:    0.000000
       DOS:  cpu time      0.0071: real time      0.0072
    CHARGE:  cpu time      0.0306: real time      0.0307
    MIXING:  cpu time      0.0001: real time      0.0001
    --------------------------------------------
      LOOP:  cpu time     31.0937: real time     31.1838

 eigenvalue-minimisations  :  2472
 total energy-change (2. order) :-0.4835931E-04  (-0.4955672E-05)
 number of electron      72.0000014 magnetization 
 augmentation part       26.9855934 magnetization 

 Free energy of the ion-electron system (eV)
  ---------------------------------------------------
  alpha Z        PSCENC =       236.66789905
  Ewald energy   TEWEN  =     -4863.29910036
  -Hartree energ DENC   =     -2616.51701938
  -exchange      EXHF   =       167.76230086
  -V(xc)+E(xc)   XCENC  =       131.70289889
  PAW double counting   =      8066.58682705    -8866.95097946
  entropy T*S    EENTRO =         0.00000000
  eigenvalues    EBANDS =      -385.98539975
  atomic energy  EATOM  =      8093.15734121
  Solvation  Ediel_sol  =         0.00000000
  ---------------------------------------------------
  free energy    TOTEN  =       -36.87523188 eV

  energy without entropy =      -36.87523188  energy(sigma->0) =      -36.87523188
  exchange ACFDT corr.  =         0.00000000  see jH, gK, PRB 81, 115126


--------------------------------------------------------------------------------------------------------




--------------------------------------- Iteration      1(  15)  ---------------------------------------


    POTLOK:  cpu time      0.0188: real time      0.0356
    SETDIJ:  cpu time      0.4213: real time      0.4223
     EDDAV:  cpu time     29.3229: real time     29.3922
 BZINTS: Fermi energy:    3.272839;   72.000000 electrons
         Band energy:-0.385926E+03;  BLOECHL correction:    0.000000
       DOS:  cpu time      0.0059: real time      0.0059
    CHARGE:  cpu time      0.0362: real time      0.0363
    MIXING:  cpu time      0.0002: real time      0.0002
    --------------------------------------------
      LOOP:  cpu time     29.8054: real time     29.8925

 eigenvalue-minimisations  :  2136
 total energy-change (2. order) :-0.3550566E-04  (-0.2095397E-05)
 number of electron      72.0000014 magnetization 
 augmentation part       26.9852999 magnetization 

 Free energy of the ion-electron system (eV)
  ---------------------------------------------------
  alpha Z        PSCENC =       236.66789905
  Ewald energy   TEWEN  =     -4863.29910036
  -Hartree energ DENC   =     -2616.51176865
  -exchange      EXHF   =       167.76146167
  -V(xc)+E(xc)   XCENC  =       131.70570519
  PAW double counting   =      8072.28964122    -8872.72090284
  entropy T*S    EENTRO =         0.00000000
  eigenvalues    EBANDS =      -385.92554388
  atomic energy  EATOM  =      8093.15734121
  Solvation  Ediel_sol  =         0.00000000
  ---------------------------------------------------
  free energy    TOTEN  =       -36.87526739 eV

  energy without entropy =      -36.87526739  energy(sigma->0) =      -36.87526739
  exchange ACFDT corr.  =         0.00000000  see jH, gK, PRB 81, 115126


--------------------------------------------------------------------------------------------------------




--------------------------------------- Iteration      1(  16)  ---------------------------------------


    POTLOK:  cpu time      0.0195: real time      0.0371
    SETDIJ:  cpu time      0.4228: real time      0.4238
     EDDAV:  cpu time     29.2708: real time     29.3400
 BZINTS: Fermi energy:    3.273273;   72.000000 electrons
         Band energy:-0.385891E+03;  BLOECHL correction:    0.000000
       DOS:  cpu time      0.0060: real time      0.0061
    CHARGE:  cpu time      0.0363: real time      0.0364
    MIXING:  cpu time      0.0002: real time      0.0002
    --------------------------------------------
      LOOP:  cpu time     29.7556: real time     29.8435

 eigenvalue-minimisations  :  1824
 total energy-change (2. order) :-0.2115157E-04  (-0.7817807E-06)
 number of electron      72.0000014 magnetization 
 augmentation part       26.9854339 magnetization 

 Free energy of the ion-electron system (eV)
  ---------------------------------------------------
  alpha Z        PSCENC =       236.66789905
  Ewald energy   TEWEN  =     -4863.29910036
  -Hartree energ DENC   =     -2616.50997534
  -exchange      EXHF   =       167.76049961
  -V(xc)+E(xc)   XCENC  =       131.70730364
  PAW double counting   =      8075.49642540    -8875.96423494
  entropy T*S    EENTRO =         0.00000000
  eigenvalues    EBANDS =      -385.89144681
  atomic energy  EATOM  =      8093.15734121
  Solvation  Ediel_sol  =         0.00000000
  ---------------------------------------------------
  free energy    TOTEN  =       -36.87528854 eV

  energy without entropy =      -36.87528854  energy(sigma->0) =      -36.87528854
  exchange ACFDT corr.  =         0.00000000  see jH, gK, PRB 81, 115126


--------------------------------------------------------------------------------------------------------




--------------------------------------- Iteration      1(  17)  ---------------------------------------


    POTLOK:  cpu time      0.0205: real time      0.0390
    SETDIJ:  cpu time      0.4377: real time      0.4387
     EDDAV:  cpu time     30.0526: real time     30.1246
 BZINTS: Fermi energy:    3.273620;   72.000000 electrons
         Band energy:-0.385856E+03;  BLOECHL correction:    0.000000
       DOS:  cpu time      0.0059: real time      0.0059
    CHARGE:  cpu time      0.0322: real time      0.0322
    MIXING:  cpu time      0.0001: real time      0.0001
    --------------------------------------------
      LOOP:  cpu time     30.5489: real time     30.6406

 eigenvalue-minimisations  :  1776
 total energy-change (2. order) :-0.1164517E-04  (-0.6772346E-06)
 number of electron      72.0000014 magnetization 
 augmentation part       26.9850573 magnetization 

 Free energy of the ion-electron system (eV)
  ---------------------------------------------------
  alpha Z        PSCENC =       236.66789905
  Ewald energy   TEWEN  =     -4863.29910036
  -Hartree energ DENC   =     -2616.52224553
  -exchange      EXHF   =       167.76092551
  -V(xc)+E(xc)   XCENC  =       131.70865617
  PAW double counting   =      8077.30815846    -8877.80131434
  entropy T*S    EENTRO =         0.00000000
  eigenvalues    EBANDS =      -385.85562035
  atomic energy  EATOM  =      8093.15734121
  Solvation  Ediel_sol  =         0.00000000
  ---------------------------------------------------
  free energy    TOTEN  =       -36.87530018 eV

  energy without entropy =      -36.87530018  energy(sigma->0) =      -36.87530018
  exchange ACFDT corr.  =         0.00000000  see jH, gK, PRB 81, 115126


--------------------------------------------------------------------------------------------------------




--------------------------------------- Iteration      1(  18)  ---------------------------------------


    POTLOK:  cpu time      0.0198: real time      0.0383
    SETDIJ:  cpu time      0.4217: real time      0.4227
     EDDAV:  cpu time     30.6584: real time     30.7309
 BZINTS: Fermi energy:    3.273846;   72.000000 electrons
         Band energy:-0.385848E+03;  BLOECHL correction:    0.000000
       DOS:  cpu time      0.0067: real time      0.0067
    --------------------------------------------
      LOOP:  cpu time     31.1066: real time     31.1987

 eigenvalue-minimisations  :  1500
 total energy-change (2. order) :-0.6220190E-05  (-0.4483999E-06)
 number of electron      72.0000014 magnetization 
 augmentation part       26.9850573 magnetization 

 Free energy of the ion-electron system (eV)
  ---------------------------------------------------
  alpha Z        PSCENC =       236.66789905
  Ewald energy   TEWEN  =     -4863.29910036
  -Hartree energ DENC   =     -2616.51992653
  -exchange      EXHF   =       167.75992629
  -V(xc)+E(xc)   XCENC  =       131.70909734
  PAW double counting   =      8078.32285658    -8878.82556587
  entropy T*S    EENTRO =         0.00000000
  eigenvalues    EBANDS =      -385.84783411
  atomic energy  EATOM  =      8093.15734121
  Solvation  Ediel_sol  =         0.00000000
  ---------------------------------------------------
  free energy    TOTEN  =       -36.87530640 eV

  energy without entropy =      -36.87530640  energy(sigma->0) =      -36.87530640
  exchange ACFDT corr.  =         0.00000000  see jH, gK, PRB 81, 115126


--------------------------------------------------------------------------------------------------------




 average (electrostatic) potential at core
  the test charge radii are     1.0314  0.9430  1.0808
  (the norm of the test charge is              1.0000)
       1 -60.1319       2 -60.1319       3 -58.5085       4 -58.5085       5 -51.0357
       6 -51.0351       7 -51.0357       8 -51.0351
 
 
 
 E-fermi :   3.2738     XC(G=0):  -7.9628     alpha+bet : -9.2592

 Fermi energy:         3.2738460371

 k-point     1 :       0.0000    0.0000    0.0000
  band No.  band energies     occupation 
      1     -14.6561      2.00000
      2     -14.6541      2.00000
      3     -14.6541      2.00000
      4     -14.5656      2.00000
      5     -14.5513      2.00000
      6     -14.5513      2.00000
      7     -14.5011      2.00000
      8     -14.4954      2.00000
      9     -14.4944      2.00000
     10     -14.4830      2.00000
     11     -12.4008      2.00000
     12     -10.7063      2.00000
     13     -10.7062      2.00000
     14     -10.7029      2.00000
     15      -4.7779      2.00000
     16      -3.2541      2.00000
     17      -1.8367      2.00000
     18      -1.6035      2.00000
     19      -1.5690      2.00000
     20      -1.0595      2.00000
     21      -1.0595      2.00000
     22      -0.5449      2.00000
     23      -0.5448      2.00000
     24      -0.3907      2.00000
     25      -0.3906      2.00000
     26      -0.3791      2.00000
     27       0.4964      2.00000
     28       0.5468      2.00000
     29       0.6207      2.00000
     30       0.9871      2.00000
     31       1.1335      2.00000
     32       1.1336      2.00000
[...]
   32.920985    0.707061    0.707002    0.706601   -0.000144   -0.000319   -0.000260
   32.949316    0.707749    0.707689    0.707286   -0.000144   -0.000321   -0.000261
   32.977647    0.708431    0.708371    0.707967   -0.000145   -0.000322   -0.000262
   33.005979    0.709108    0.709048    0.708641   -0.000146   -0.000324   -0.000264
   33.034310    0.709780    0.709719    0.709311   -0.000146   -0.000325   -0.000265
   33.062641    0.710447    0.710386    0.709976   -0.000147   -0.000326   -0.000266
   33.090973    0.711109    0.711048    0.710636   -0.000148   -0.000328   -0.000267
   33.119304    0.711766    0.711705    0.711292   -0.000148   -0.000329   -0.000268
   33.147635    0.712419    0.712357    0.711943   -0.000149   -0.000330   -0.000269
   33.175967    0.713067    0.713006    0.712590   -0.000149   -0.000331   -0.000270
   33.204298    0.713711    0.713649    0.713232   -0.000150   -0.000332   -0.000271
   33.232629    0.714351    0.714289    0.713871   -0.000150   -0.000333   -0.000271
   33.260961    0.714987    0.714925    0.714505   -0.000151   -0.000334   -0.000272
   33.289292    0.715619    0.715556    0.715135   -0.000151   -0.000335   -0.000273
   33.317623    0.716247    0.716184    0.715762   -0.000151   -0.000336   -0.000274
   33.345954    0.716871    0.716808    0.716385   -0.000152   -0.000337   -0.000275
   33.374286    0.717491    0.717428    0.717004   -0.000152   -0.000338   -0.000275
   33.402617    0.718108    0.718045    0.717619   -0.000153   -0.000339   -0.000276
   33.430948    0.718721    0.718658    0.718231   -0.000153   -0.000340   -0.000277
   33.459280    0.719331    0.719267    0.718840   -0.000153   -0.000340   -0.000277
   33.487611    0.719937    0.719873    0.719445   -0.000154   -0.000341   -0.000278
   33.515942    0.720540    0.720476    0.720047   -0.000154   -0.000342   -0.000278
   33.544274    0.721139    0.721075    0.720646   -0.000154   -0.000342   -0.000279
   33.572605    0.721736    0.721672    0.721241   -0.000154   -0.000343   -0.000279
   33.600936    0.722329    0.722265    0.721833   -0.000155   -0.000344   -0.000280
   33.629268    0.722919    0.722855    0.722423   -0.000155   -0.000344   -0.000280
   33.657599    0.723506    0.723442    0.723009   -0.000155   -0.000345   -0.000281
   33.685930    0.724090    0.724026    0.723592   -0.000155   -0.000345   -0.000281
   33.714262    0.724671    0.724607    0.724173   -0.000156   -0.000346   -0.000281
   33.742593    0.725249    0.725185    0.724750   -0.000156   -0.000346   -0.000282
   33.770924    0.725825    0.725760    0.725325   -0.000156   -0.000347   -0.000282
   33.799255    0.726397    0.726333    0.725897   -0.000156   -0.000347   -0.000283
   33.827587    0.726967    0.726902    0.726466   -0.000156   -0.000347   -0.000283
   33.855918    0.727534    0.727469    0.727033   -0.000157   -0.000348   -0.000283
   33.884249    0.728099    0.728034    0.727597   -0.000157   -0.000348   -0.000283
   33.912581    0.728660    0.728595    0.728158   -0.000157   -0.000348   -0.000284
   33.940912    0.729219    0.729154    0.728717   -0.000157   -0.000349   -0.000284
   33.969243    0.729776    0.729711    0.729273   -0.000157   -0.000349   -0.000284
   33.997575    0.730330    0.730265    0.729826   -0.000157   -0.000349   -0.000284
   34.025906    0.730881    0.730816    0.730378   -0.000157   -0.000349   -0.000285
   34.054237    0.731431    0.731365    0.730926   -0.000157   -0.000350   -0.000285
   34.082569    0.731977    0.731912    0.731473   -0.000158   -0.000350   -0.000285
   34.110900    0.732521    0.732456    0.732017   -0.000158   -0.000350   -0.000285
   34.139231    0.733063    0.732998    0.732558   -0.000158   -0.000350   -0.000285
   34.167563    0.733603    0.733537    0.733097   -0.000158   -0.000350   -0.000285
   34.195894    0.734140    0.734074    0.733634   -0.000158   -0.000351   -0.000285
   34.224225    0.734675    0.734609    0.734169   -0.000158   -0.000351   -0.000286
   34.252556    0.735207    0.735142    0.734701   -0.000158   -0.000351   -0.000286
   34.280888    0.735738    0.735672    0.735232   -0.000158   -0.000351   -0.000286
   34.309219    0.736266    0.736200    0.735760   -0.000158   -0.000351   -0.000286
   34.337550    0.736792    0.736726    0.736286   -0.000158   -0.000351   -0.000286
   34.365882    0.737316    0.737250    0.736809   -0.000158   -0.000351   -0.000286
   34.394213    0.737837    0.737772    0.737331   -0.000158   -0.000351   -0.000286
   34.422544    0.738357    0.738292    0.737850   -0.000158   -0.000351   -0.000286
   34.450876    0.738875    0.738809    0.738368   -0.000158   -0.000351   -0.000286
   34.479207    0.739390    0.739324    0.738883   -0.000158   -0.000351   -0.000286
   34.507538    0.739903    0.739838    0.739397   -0.000158   -0.000351   -0.000286
   34.535870    0.740415    0.740349    0.739908   -0.000158   -0.000351   -0.000286
   34.564201    0.740924    0.740858    0.740417   -0.000158   -0.000351   -0.000286
   34.592532    0.741431    0.741366    0.740925   -0.000158   -0.000351   -0.000286
   34.620864    0.741937    0.741871    0.741430   -0.000158   -0.000351   -0.000286
   34.649195    0.742440    0.742375    0.741934   -0.000158   -0.000351   -0.000286
   34.677526    0.742942    0.742876    0.742435   -0.000158   -0.000351   -0.000286
   34.705857    0.743441    0.743376    0.742935   -0.000158   -0.000351   -0.000286
   34.734189    0.743939    0.743873    0.743433   -0.000158   -0.000351   -0.000286
   34.762520    0.744435    0.744369    0.743928   -0.000158   -0.000351   -0.000286
   34.790851    0.744929    0.744863    0.744422   -0.000158   -0.000351   -0.000286
   34.819183    0.745421    0.745355    0.744915   -0.000158   -0.000351   -0.000286
   34.847514    0.745911    0.745846    0.745405   -0.000158   -0.000351   -0.000286
   34.875845    0.746399    0.746334    0.745894   -0.000158   -0.000351   -0.000286
   34.904177    0.746886    0.746821    0.746381   -0.000158   -0.000351   -0.000286
   34.932508    0.747371    0.747306    0.746866   -0.000158   -0.000351   -0.000285
   34.960839    0.747854    0.747789    0.747349   -0.000158   -0.000350   -0.000285
   34.989171    0.748335    0.748270    0.747830   -0.000158   -0.000350   -0.000285
   35.017502    0.748815    0.748750    0.748310   -0.000158   -0.000350   -0.000285
   35.045833    0.749293    0.749228    0.748788   -0.000158   -0.000350   -0.000285
   35.074165    0.749769    0.749704    0.749265   -0.000158   -0.000350   -0.000285
   35.102496    0.750244    0.750178    0.749739   -0.000157   -0.000350   -0.000285
   35.130827    0.750716    0.750651    0.750212   -0.000157   -0.000350   -0.000285
   35.159158    0.751188    0.751122    0.750684   -0.000157   -0.000349   -0.000284
   35.187490    0.751657    0.751592    0.751154   -0.000157   -0.000349   -0.000284
   35.215821    0.752125    0.752060    0.751622   -0.000157   -0.000349   -0.000284
   35.244152    0.752591    0.752526    0.752088   -0.000157   -0.000349   -0.000284
   35.272484    0.753056    0.752991    0.752553   -0.000157   -0.000349   -0.000284
   35.300815    0.753519    0.753454    0.753016   -0.000157   -0.000348   -0.000284
   35.329146    0.753980    0.753915    0.753478   -0.000157   -0.000348   -0.000284
   35.357478    0.754440    0.754375    0.753938   -0.000157   -0.000348   -0.000283
   35.385809    0.754898    0.754833    0.754396   -0.000157   -0.000348   -0.000283
   35.414140    0.755355    0.755290    0.754853   -0.000157   -0.000348   -0.000283
   35.442472    0.755810    0.755745    0.755309   -0.000156   -0.000347   -0.000283
   35.470803    0.756263    0.756199    0.755763   -0.000156   -0.000347   -0.000283
   35.499134    0.756715    0.756651    0.756215   -0.000156   -0.000347   -0.000283
   35.527466    0.757166    0.757101    0.756666   -0.000156   -0.000347   -0.000282
   35.555797    0.757615    0.757550    0.757115   -0.000156   -0.000347   -0.000282
   35.584128    0.758062    0.757998    0.757563   -0.000156   -0.000346   -0.000282
   35.612459    0.758508    0.758444    0.758010   -0.000156   -0.000346   -0.000282
   35.640791    0.758953    0.758889    0.758454   -0.000156   -0.000346   -0.000282
   35.669122    0.759396    0.759332    0.758898   -0.000156   -0.000346   -0.000281
   35.697453    0.759838    0.759773    0.759340   -0.000155   -0.000345   -0.000281
   35.725785    0.760278    0.760214    0.759780   -0.000155   -0.000345   -0.000281
   35.754116    0.760717    0.760652    0.760220   -0.000155   -0.000345   -0.000281
   35.782447    0.761154    0.761090    0.760657   -0.000155   -0.000345   -0.000281
   35.810779    0.761590    0.761526    0.761094   -0.000155   -0.000344   -0.000280
   35.839110    0.762024    0.761960    0.761528   -0.000155   -0.000344   -0.000280
   35.867441    0.762457    0.762393    0.761962   -0.000155   -0.000344   -0.000280
   35.895773    0.762889    0.762825    0.762394   -0.000155   -0.000343   -0.000280
   35.924104    0.763319    0.763255    0.762825   -0.000155   -0.000343   -0.000279
   35.952435    0.763748    0.763684    0.763254   -0.000154   -0.000343   -0.000279
   35.980767    0.764176    0.764112    0.763682   -0.000154   -0.000343   -0.000279
   36.009098    0.764602    0.764538    0.764109   -0.000154   -0.000342   -0.000279
   36.037429    0.765027    0.764963    0.764534   -0.000154   -0.000342   -0.000278
   36.065760    0.765450    0.765387    0.764958   -0.000154   -0.000342   -0.000278
   36.094092    0.765873    0.765809    0.765380   -0.000154   -0.000341   -0.000278
   36.122423    0.766293    0.766230    0.765802   -0.000154   -0.000341   -0.000278
   36.150754    0.766713    0.766649    0.766222   -0.000153   -0.000341   -0.000278
   36.179086    0.767131    0.767068    0.766640   -0.000153   -0.000341   -0.000277
   36.207417    0.767548    0.767485    0.767058   -0.000153   -0.000340   -0.000277
   36.235748    0.767964    0.767900    0.767474   -0.000153   -0.000340   -0.000277
   36.264080    0.768378    0.768315    0.767888   -0.000153   -0.000340   -0.000277
   36.292411    0.768791    0.768728    0.768302   -0.000153   -0.000339   -0.000276
   36.320742    0.769203    0.769140    0.768714   -0.000153   -0.000339   -0.000276
   36.349074    0.769613    0.769550    0.769125   -0.000152   -0.000339   -0.000276
   36.377405    0.770023    0.769959    0.769535   -0.000152   -0.000338   -0.000275
   36.405736    0.770431    0.770368    0.769943   -0.000152   -0.000338   -0.000275
   36.434068    0.770837    0.770774    0.770350   -0.000152   -0.000338   -0.000275
   36.462399    0.771243    0.771180    0.770756   -0.000152   -0.000337   -0.000275
   36.490730    0.771647    0.771584    0.771161   -0.000152   -0.000337   -0.000274
   36.519061    0.772050    0.771987    0.771565   -0.000152   -0.000337   -0.000274
   36.547393    0.772452    0.772389    0.771967   -0.000151   -0.000336   -0.000274
   36.575724    0.772853    0.772790    0.772368   -0.000151   -0.000336   -0.000274
   36.604055    0.773252    0.773189    0.772768   -0.000151   -0.000336   -0.000273
   36.632387    0.773650    0.773588    0.773167   -0.000151   -0.000335   -0.000273
   36.660718    0.774047    0.773985    0.773564   -0.000151   -0.000335   -0.000273
   36.689049    0.774443    0.774381    0.773960   -0.000151   -0.000335   -0.000273
   36.717381    0.774838    0.774775    0.774356   -0.000151   -0.000334   -0.000272
   36.745712    0.775231    0.775169    0.774750   -0.000150   -0.000334   -0.000272
   36.774043    0.775623    0.775561    0.775142   -0.000150   -0.000334   -0.000272
   36.802375    0.776015    0.775952    0.775534   -0.000150   -0.000333   -0.000271
   36.830706    0.776405    0.776343    0.775924   -0.000150   -0.000333   -0.000271
   36.859037    0.776793    0.776731    0.776314   -0.000150   -0.000333   -0.000271
   36.887369    0.777181    0.777119    0.776702   -0.000150   -0.000332   -0.000271
   36.915700    0.777568    0.777506    0.777089   -0.000150   -0.000332   -0.000270
   36.944031    0.777953    0.777891    0.777475   -0.000149   -0.000332   -0.000270
   36.972362    0.778337    0.778276    0.777860   -0.000149   -0.000331   -0.000270
   37.000694    0.778721    0.778659    0.778243   -0.000149   -0.000331   -0.000270
   37.029025    0.779103    0.779041    0.778626   -0.000149   -0.000331   -0.000269
   37.057356    0.779484    0.779422    0.779007   -0.000149   -0.000330   -0.000269
   37.085688    0.779864    0.779802    0.779388   -0.000149   -0.000330   -0.000269
   37.114019    0.780242    0.780181    0.779767   -0.000148   -0.000330   -0.000268
   37.142350    0.780620    0.780559    0.780145   -0.000148   -0.000329   -0.000268
   37.170682    0.780997    0.780935    0.780522   -0.000148   -0.000329   -0.000268
   37.199013    0.781372    0.781311    0.780898   -0.000148   -0.000329   -0.000268
   37.227344    0.781746    0.781685    0.781273   -0.000148   -0.000328   -0.000267
   37.255676    0.782120    0.782059    0.781647   -0.000148   -0.000328   -0.000267
   37.284007    0.782492    0.782431    0.782020   -0.000147   -0.000328   -0.000267
   37.312338    0.782863    0.782802    0.782392   -0.000147   -0.000327   -0.000266
   37.340669    0.783233    0.783172    0.782762   -0.000147   -0.000327   -0.000266
   37.369001    0.783602    0.783542    0.783132   -0.000147   -0.000326   -0.000266
   37.397332    0.783971    0.783910    0.783500   -0.000147   -0.000326   -0.000265
   37.425663    0.784338    0.784277    0.783868   -0.000147   -0.000326   -0.000265
   37.453995    0.784704    0.784643    0.784234   -0.000146   -0.000325   -0.000265
   37.482326    0.785068    0.785008    0.784600   -0.000146   -0.000325   -0.000265
   37.510657    0.785432    0.785372    0.784964   -0.000146   -0.000325   -0.000264
   37.538989    0.785795    0.785735    0.785328   -0.000146   -0.000324   -0.000264
   37.567320    0.786157    0.786097    0.785690   -0.000146   -0.000324   -0.000264
   37.595651    0.786518    0.786458    0.786052   -0.000146   -0.000324   -0.000263
   37.623983    0.786878    0.786818    0.786412   -0.000146   -0.000323   -0.000263
   37.652314    0.787237    0.787176    0.786771   -0.000145   -0.000323   -0.000263
   37.680645    0.787595    0.787534    0.787130   -0.000145   -0.000322   -0.000263
   37.708977    0.787951    0.787891    0.787487   -0.000145   -0.000322   -0.000262
   37.737308    0.788307    0.788247    0.787843   -0.000145   -0.000322   -0.000262
   37.765639    0.788662    0.788602    0.788199   -0.000145   -0.000321   -0.000262
   37.793970    0.789016    0.788956    0.788553   -0.000145   -0.000321   -0.000261
   37.822302    0.789369    0.789309    0.788907   -0.000144   -0.000321   -0.000261
   37.850633    0.789721    0.789661    0.789259   -0.000144   -0.000320   -0.000261
   37.878964    0.790072    0.790012    0.789611   -0.000144   -0.000320   -0.000260
   37.907296    0.790422    0.790362    0.789961   -0.000144   -0.000320   -0.000260
   37.935627    0.790771    0.790711    0.790311   -0.000144   -0.000319   -0.000260
   37.963958    0.791119    0.791060    0.790659   -0.000144   -0.000319   -0.000260
   37.992290    0.791466    0.791407    0.791007   -0.000143   -0.000318   -0.000259
   38.020621    0.791812    0.791753    0.791354   -0.000143   -0.000318   -0.000259
   38.048952    0.792158    0.792098    0.791700   -0.000143   -0.000318   -0.000259
   38.077284    0.792502    0.792443    0.792044   -0.000143   -0.000317   -0.000258
   38.105615    0.792845    0.792786    0.792388   -0.000143   -0.000317   -0.000258
   38.133946    0.793188    0.793129    0.792731   -0.000143   -0.000317   -0.000258
   38.162278    0.793529    0.793470    0.793073   -0.000142   -0.000316   -0.000257
   38.190609    0.793870    0.793811    0.793415   -0.000142   -0.000316   -0.000257
   38.218940    0.794210    0.794151    0.793755   -0.000142   -0.000315   -0.000257
   38.247271    0.794548    0.794490    0.794094   -0.000142   -0.000315   -0.000257
   38.275603    0.794886    0.794828    0.794432   -0.000142   -0.000315   -0.000256
   38.303934    0.795223    0.795165    0.794770   -0.000142   -0.000314   -0.000256
   38.332265    0.795559    0.795501    0.795107   -0.000141   -0.000314   -0.000256
   38.360597    0.795894    0.795836    0.795442   -0.000141   -0.000314   -0.000255
   38.388928    0.796229    0.796170    0.795777   -0.000141   -0.000313   -0.000255
   38.417259    0.796562    0.796504    0.796111   -0.000141   -0.000313   -0.000255
   38.445591    0.796894    0.796836    0.796444   -0.000141   -0.000313   -0.000254
   38.473922    0.797226    0.797168    0.796776   -0.000141   -0.000312   -0.000254
   38.502253    0.797557    0.797499    0.797107   -0.000140   -0.000312   -0.000254
   38.530585    0.797887    0.797829    0.797438   -0.000140   -0.000311   -0.000254
   38.558916    0.798216    0.798158    0.797767   -0.000140   -0.000311   -0.000253
   38.587247    0.798544    0.798486    0.798096   -0.000140   -0.000311   -0.000253
   38.615579    0.798871    0.798813    0.798423   -0.000140   -0.000310   -0.000253
   38.643910    0.799197    0.799139    0.798750   -0.000140   -0.000310   -0.000252
   38.672241    0.799523    0.799465    0.799076   -0.000139   -0.000310   -0.000252
   38.700572    0.799847    0.799790    0.799402   -0.000139   -0.000309   -0.000252
   38.728904    0.800171    0.800114    0.799726   -0.000139   -0.000309   -0.000251
   38.757235    0.800494    0.800437    0.800049   -0.000139   -0.000308   -0.000251
   38.785566    0.800816    0.800759    0.800372   -0.000139   -0.000308   -0.000251
   38.813898    0.801137    0.801080    0.800694   -0.000139   -0.000308   -0.000251
   38.842229    0.801458    0.801401    0.801015   -0.000138   -0.000307   -0.000250
 
 The outermost node in the dielectric function lies at epsilon=  19.4


--------------------------------------------------------------------------------------------------------


    OPTICS:  cpu time      3.9677: real time      3.9804
    4ORBIT:  cpu time      0.0000: real time      0.0000



 total charge

# of ion       s       p       d       tot
------------------------------------------
    1        0.819   0.718  10.038  11.576
    2        0.819   0.718  10.038  11.576
    3        0.343   0.337   9.374  10.053
    4        0.343   0.337   9.374  10.053
    5        1.452   2.450   0.046   3.948
    6        1.452   2.450   0.046   3.948
    7        1.452   2.450   0.046   3.948
    8        1.452   2.450   0.046   3.948
--------------------------------------------------
tot          8.131  11.910  39.008  59.050
 
 BZINTS: Fermi energy:    3.273846;   72.000000 electrons
         Band energy:-0.385848E+03;  BLOECHL correction:    0.000000

 total amount of memory used by VASP MPI-rank0    47040. kBytes
=======================================================================

   base      :      30000. kBytes
   nonl-proj :       5559. kBytes
   fftplans  :        995. kBytes
   grid      :       1326. kBytes
   one-center:         15. kBytes
   HF        :         64. kBytes
   nonlr-proj:       1402. kBytes
   wavefun   :       1044. kBytes
   fock_wrk  :       6635. kBytes
 
  
  
 General timing and accounting informations for this job:
 ========================================================
  
                  Total CPU time used (sec):      635.948
                            User time (sec):      633.376
                          System time (sec):        2.572
                         Elapsed time (sec):      639.237
  
                   Maximum memory used (kb):      321276.
                   Average memory used (kb):          N/A
  
                          Minor page faults:       104598
                          Major page faults:            0
                 Voluntary context switches:         8444
