 vasp.6.4.2 20Jul23 (build Mar 15 2024 16:31:38) complex                        
  
 executed on             LinuxIFC date 2025.03.26  17:58:10
 running  120 mpi-ranks, on    3 nodes
 distrk:  each k-point on  120 cores,    1 groups
 distr:  one band on NCORE=  10 cores,   12 groups


--------------------------------------------------------------------------------------------------------


 INCAR:
   ALGO = Normal
   EDIFF = 1e-05
   ENAUG = 1360
   ENCUT = 680
   GGA = Pe
   HFSCREEN = 0.2
   ISMEAR = 0
   ISPIN = 2
   LAECHG = True
   LASPH = True
   LCHARG = True
   LDAU = False
   LELF = False
   LHFCALC = True
   LMAXMIX = 6
   LMIXTAU = True
   LORBIT = 11
   LREAL = False
   LVTOT = True
   LWAVE = True
   MAGMOM = 48*0.6
   NCORE = 10
   NELM = 200
   NSW = 0
   PREC = Accurate
   PRECFOCK = Fast
   SIGMA = 0.01

 POTCAR:    PAW_PBE H 15Jun2001                   
 POTCAR:    PAW_PBE Pb_d 06Sep2000                
 POTCAR:    PAW_PBE C 08Apr2002                   
 POTCAR:    PAW_PBE I 08Apr2002                   
 POTCAR:    PAW_PBE N 08Apr2002                   
 WARNING: For LVTOT=.TRUE., VASP.5.x writes the TOTAL local potential to the
     file LOCPOT. If you want only the Hartree contributions, use LVHAR=.TRUE.
     instead. 

 POTCAR:    PAW_PBE H 15Jun2001                   
   VRHFIN =H: ultrasoft test                                                                        
   LEXCH  = PE                                                                                      
   EATOM  =    12.4884 eV,    0.9179 Ry                                                             
                                                                                                    
   TITEL  = PAW_PBE H 15Jun2001                                                                     
   LULTRA =        F    use ultrasoft PP ?                                                          
   IUNSCR =        0    unscreen: 0-lin 1-nonlin 2-no                                               
   RPACOR =    0.000    partial core radius                                                         
   POMASS =    1.000; ZVAL   =    1.000    mass and valenz                                          
   RCORE  =    1.100    outmost cutoff radius                                                       
   RWIGS  =    0.700; RWIGS  =    0.370    wigner-seitz radius (au A)                               
   ENMAX  =  250.000; ENMIN  =  200.000 eV                                                          
   RCLOC  =    0.701    cutoff for local pot                                                        
   LCOR   =        T    correct aug charges                                                         
   LPAW   =        T    paw PP                                                                      
   EAUG   =  400.000                                                                                
   RMAX   =    1.123    core radius for proj-oper                                                   
   RAUG   =    1.200    factor for augmentation sphere                                              
   RDEP   =    1.112    radius for radial grids                                                     
   RDEPT  =    0.926    core radius for aug-charge                                                  
                                                                                                    
   Atomic configuration                                                                             
    2 entries                                                                                       
     n  l   j            E        occ.                                                              
     1  0  0.50        -6.4927   1.0000                                                             
     2  1  0.50        -3.4015   0.0000                                                             
   Description                                                                                      
     l       E           TYP  RCUT    TYP  RCUT                                                     
     0     -6.4927494     23  1.100                                                                 
     0      6.8029130     23  1.100                                                                 
     1     -4.0817478     23  1.100                                                                 
  local pseudopotential read in
  atomic valenz-charges read in
  non local Contribution for L=           0  read in
    real space projection operators read in
  non local Contribution for L=           0  read in
    real space projection operators read in
  non local Contribution for L=           1  read in
    real space projection operators read in
    PAW grid and wavefunctions read in
 
   number of l-projection  operators is LMAX  =           3
   number of lm-projection operators is LMMAX =           5
 
 POTCAR:    PAW_PBE Pb_d 06Sep2000                
   VRHFIN =Pb:                                                                                      
   LEXCH  = PE                                                                                      
   EATOM  =  1661.6185 eV,  122.1255 Ry                                                             
                                                                                                    
   TITEL  = PAW_PBE Pb_d 06Sep2000                                                                  
   LULTRA =        F    use ultrasoft PP ?                                                          
   IUNSCR =        1    unscreen: 0-lin 1-nonlin 2-no                                               
   RPACOR =    2.200    partial core radius                                                         
   POMASS =  207.200; ZVAL   =   14.000    mass and valenz                                          
   RCORE  =    2.500    outmost cutoff radius                                                       
   RWIGS  =    3.260; RWIGS  =    1.725    wigner-seitz radius (au A)                               
   ENMAX  =  237.835; ENMIN  =  178.376 eV                                                          
   ICORE  =        3    local potential                                                             
   LCOR   =        T    correct aug charges                                                         
   LPAW   =        T    paw PP                                                                      
   EAUG   =  391.914                                                                                
   DEXC   =    0.000                                                                                
   RMAX   =    2.565    core radius for proj-oper                                                   
   RAUG   =    1.300    factor for augmentation sphere                                              
   RDEP   =    2.643    radius for radial grids                                                     
   RDEPT  =    2.092    core radius for aug-charge                                                  
                                                                                                    
   Atomic configuration                                                                             
   16 entries                                                                                       
     n  l   j            E        occ.                                                              
     1  0  0.50    -88091.8466   2.0000                                                             
     2  0  0.50    -15753.4197   2.0000                                                             
     2  1  1.50    -13508.1797   6.0000                                                             
     3  0  0.50     -3781.7194   2.0000                                                             
     3  1  1.50     -3138.2529   6.0000                                                             
     3  2  2.50     -2483.2977  10.0000                                                             
     4  0  0.50      -856.2895   2.0000                                                             
     4  1  1.50      -645.4942   6.0000                                                             
     4  2  2.50      -401.8768  10.0000                                                             
     4  3  3.50      -132.9059  14.0000                                                             
     5  0  0.50      -144.0950   2.0000                                                             
     5  1  1.50       -85.7879   6.0000                                                             
     5  2  2.50       -21.1769  10.0000                                                             
     6  0  0.50       -12.0372   2.0000                                                             
     6  1  1.50        -3.4971   2.0000                                                             
     5  3  2.50        -2.7212   0.0000                                                             
   Description                                                                                      
     l       E           TYP  RCUT    TYP  RCUT                                                     
     2    -21.1768523     23  2.500                                                                 
     2      1.3605826     23  2.500                                                                 
     0    -12.0371562     23  2.500                                                                 
     0     13.6058260     23  2.500                                                                 
     1     -3.4971339     23  2.500                                                                 
     1     13.6058260     23  2.500                                                                 
     3     -1.3605826      7  2.500                                                                 
  local pseudopotential read in
  partial core-charges read in
  partial kinetic energy density read in
  atomic valenz-charges read in
  non local Contribution for L=           2  read in
    real space projection operators read in
  non local Contribution for L=           2  read in
    real space projection operators read in
  non local Contribution for L=           0  read in
    real space projection operators read in
  non local Contribution for L=           0  read in
    real space projection operators read in
  non local Contribution for L=           1  read in
    real space projection operators read in
  non local Contribution for L=           1  read in
    real space projection operators read in
    PAW grid and wavefunctions read in
 
   number of l-projection  operators is LMAX  =           6
   number of lm-projection operators is LMMAX =          18
 
 POTCAR:    PAW_PBE C 08Apr2002                   
   VRHFIN =C: s2p2                                                                                  
   LEXCH  = PE                                                                                      
   EATOM  =   147.1560 eV,   10.8157 Ry                                                             
                                                                                                    
   TITEL  = PAW_PBE C 08Apr2002                                                                     
   LULTRA =        F    use ultrasoft PP ?                                                          
   IUNSCR =        1    unscreen: 0-lin 1-nonlin 2-no                                               
   RPACOR =    1.200    partial core radius                                                         
   POMASS =   12.011; ZVAL   =    4.000    mass and valenz                                          
   RCORE  =    1.500    outmost cutoff radius                                                       
   RWIGS  =    1.630; RWIGS  =    0.863    wigner-seitz radius (au A)                               
   ENMAX  =  400.000; ENMIN  =  300.000 eV                                                          
   ICORE  =        2    local potential                                                             
   LCOR   =        T    correct aug charges                                                         
   LPAW   =        T    paw PP                                                                      
   EAUG   =  644.873                                                                                
   DEXC   =    0.000                                                                                
   RMAX   =    1.529    core radius for proj-oper                                                   
   RAUG   =    1.300    factor for augmentation sphere                                              
   RDEP   =    1.501    radius for radial grids                                                     
   RDEPT  =    1.300    core radius for aug-charge                                                  
                                                                                                    
   Atomic configuration                                                                             
    4 entries                                                                                       
     n  l   j            E        occ.                                                              
     1  0  0.50      -273.3789   2.0000                                                             
     2  0  0.50       -13.7508   2.0000                                                             
     2  1  0.50        -5.2854   2.0000                                                             
     3  2  1.50        -5.4423   0.0000                                                             
   Description                                                                                      
     l       E           TYP  RCUT    TYP  RCUT                                                     
     0    -13.7508458     23  1.200                                                                 
     0     -8.2022199     23  1.200                                                                 
     1     -5.2854383     23  1.500                                                                 
     1     34.0145650     23  1.500                                                                 
     2     -5.4423304      7  1.500                                                                 
  local pseudopotential read in
  partial core-charges read in
  partial kinetic energy density read in
  atomic valenz-charges read in
  non local Contribution for L=           0  read in
    real space projection operators read in
  non local Contribution for L=           0  read in
    real space projection operators read in
  non local Contribution for L=           1  read in
    real space projection operators read in
  non local Contribution for L=           1  read in
    real space projection operators read in
    PAW grid and wavefunctions read in
 
   number of l-projection  operators is LMAX  =           4
   number of lm-projection operators is LMMAX =           8
 
 POTCAR:    PAW_PBE I 08Apr2002                   
   VRHFIN =I : s2p5                                                                                 
   LEXCH  = PE                                                                                      
   EATOM  =   315.8678 eV,   23.2156 Ry                                                             
                                                                                                    
   TITEL  = PAW_PBE I 08Apr2002                                                                     
   LULTRA =        F    use ultrasoft PP ?                                                          
   IUNSCR =        1    unscreen: 0-lin 1-nonlin 2-no                                               
   RPACOR =    2.200    partial core radius                                                         
   POMASS =  126.904; ZVAL   =    7.000    mass and valenz                                          
   RCORE  =    2.300    outmost cutoff radius                                                       
   RWIGS  =    2.810; RWIGS  =    1.487    wigner-seitz radius (au A)                               
   ENMAX  =  175.647; ENMIN  =  131.735 eV                                                          
   ICORE  =        3    local potential                                                             
   LCOR   =        T    correct aug charges                                                         
   LPAW   =        T    paw PP                                                                      
   EAUG   =  370.139                                                                                
   DEXC   =    0.000                                                                                
   RMAX   =    2.359    core radius for proj-oper                                                   
   RAUG   =    1.300    factor for augmentation sphere                                              
   RDEP   =    2.392    radius for radial grids                                                     
   RDEPT  =    2.170    core radius for aug-charge                                                  
                                                                                                    
   Atomic configuration                                                                             
   13 entries                                                                                       
     n  l   j            E        occ.                                                              
     1  0  0.50    -32976.3739   2.0000                                                             
     2  0  0.50     -5094.5933   2.0000                                                             
     2  1  1.50     -4572.0131   6.0000                                                             
     3  0  0.50     -1028.2813   2.0000                                                             
     3  1  1.50      -859.0250   6.0000                                                             
     3  2  2.50      -605.7620  10.0000                                                             
     4  0  0.50      -180.5540   2.0000                                                             
     4  1  1.50      -127.5306   6.0000                                                             
     4  2  2.50       -50.2720  10.0000                                                             
     5  0  0.50       -17.4058   2.0000                                                             
     5  1  0.50        -7.0851   5.0000                                                             
     5  2  1.50        -7.0750   0.0000                                                             
     4  3  2.50        -7.0750   0.0000                                                             
   Description                                                                                      
     l       E           TYP  RCUT    TYP  RCUT                                                     
     0    -17.4058016     23  2.300                                                                 
     0    -18.7663842     23  2.300                                                                 
     1     -7.0850686     23  2.300                                                                 
     1     -4.2150896     23  2.300                                                                 
     2     -7.0750295     23  2.300                                                                 
     3     -1.3605826     23  2.300                                                                 
  local pseudopotential read in
  partial core-charges read in
  partial kinetic energy density read in
  atomic valenz-charges read in
  non local Contribution for L=           0  read in
    real space projection operators read in
  non local Contribution for L=           0  read in
    real space projection operators read in
  non local Contribution for L=           1  read in
    real space projection operators read in
  non local Contribution for L=           1  read in
    real space projection operators read in
  non local Contribution for L=           2  read in
    real space projection operators read in
    PAW grid and wavefunctions read in
 
   number of l-projection  operators is LMAX  =           5
   number of lm-projection operators is LMMAX =          13
 
 POTCAR:    PAW_PBE N 08Apr2002                   
   VRHFIN =N: s2p3                                                                                  
   LEXCH  = PE                                                                                      
   EATOM  =   264.5486 eV,   19.4438 Ry                                                             
                                                                                                    
   TITEL  = PAW_PBE N 08Apr2002                                                                     
   LULTRA =        F    use ultrasoft PP ?                                                          
   IUNSCR =        1    unscreen: 0-lin 1-nonlin 2-no                                               
   RPACOR =    1.200    partial core radius                                                         
   POMASS =   14.001; ZVAL   =    5.000    mass and valenz                                          
   RCORE  =    1.500    outmost cutoff radius                                                       
   RWIGS  =    1.400; RWIGS  =    0.741    wigner-seitz radius (au A)                               
   ENMAX  =  400.000; ENMIN  =  300.000 eV                                                          
   ICORE  =        2    local potential                                                             
   LCOR   =        T    correct aug charges                                                         
   LPAW   =        T    paw PP                                                                      
   EAUG   =  627.112                                                                                
   DEXC   =    0.000                                                                                
   RMAX   =    1.529    core radius for proj-oper                                                   
   RAUG   =    1.300    factor for augmentation sphere                                              
   RDEP   =    1.514    radius for radial grids                                                     
   RDEPT  =    1.338    core radius for aug-charge                                                  
                                                                                                    
   Atomic configuration                                                                             
    4 entries                                                                                       
     n  l   j            E        occ.                                                              
     1  0  0.50      -384.7179   2.0000                                                             
     2  0  0.50       -18.5828   2.0000                                                             
     2  1  0.50        -7.0898   3.0000                                                             
     3  2  1.50        -6.8029   0.0000                                                             
   Description                                                                                      
     l       E           TYP  RCUT    TYP  RCUT                                                     
     0    -18.5828119     23  1.200                                                                 
     0    -13.5018863     23  1.200                                                                 
     1     -7.0897853     23  1.500                                                                 
     1      9.5240782     23  1.500                                                                 
     2     -6.8029130      7  1.500                                                                 
  local pseudopotential read in
  partial core-charges read in
  partial kinetic energy density read in
  atomic valenz-charges read in
  non local Contribution for L=           0  read in
    real space projection operators read in
  non local Contribution for L=           0  read in
    real space projection operators read in
  non local Contribution for L=           1  read in
    real space projection operators read in
  non local Contribution for L=           1  read in
    real space projection operators read in
    PAW grid and wavefunctions read in
 
   number of l-projection  operators is LMAX  =           4
   number of lm-projection operators is LMMAX =           8
 
 -----------------------------------------------------------------------------
|                                                                             |
|               ----> ADVICE to this user running VASP <----                  |
|                                                                             |
|     You have a (more or less) 'large supercell' and for larger cells it     |
|     might be more efficient to use real-space projection operators.         |
|     Therefore, try LREAL= Auto in the INCAR file.                           |
|     Mind: For very accurate calculation, you might also keep the            |
|     reciprocal projection scheme (i.e. LREAL=.FALSE.).                      |
|                                                                             |
 -----------------------------------------------------------------------------

  PAW_PBE H 15Jun2001                   :
 energy of atom  1       EATOM=  -12.4884
 kinetic energy error for atom=    0.0002 (will be added to EATOM!!)
  PAW_PBE Pb_d 06Sep2000                :
 energy of atom  2       EATOM=-1661.6185
 kinetic energy error for atom=    0.0012 (will be added to EATOM!!)
  PAW_PBE C 08Apr2002                   :
 energy of atom  3       EATOM= -147.1560
 kinetic energy error for atom=    0.0037 (will be added to EATOM!!)
  PAW_PBE I 08Apr2002                   :
 energy of atom  4       EATOM= -315.8678
 kinetic energy error for atom=    0.0004 (will be added to EATOM!!)
  PAW_PBE N 08Apr2002                   :
 energy of atom  5       EATOM= -264.5486
 kinetic energy error for atom=    0.0069 (will be added to EATOM!!)
 
 
 POSCAR: H24 Pb4 C4 I12 N4
  positions in direct lattice
  No initial velocities read in
 exchange correlation table for  LEXCH =        8
   RHO(1)=    0.500       N(1)  =     2000
   RHO(2)=  100.500       N(2)  =     4000
 


--------------------------------------------------------------------------------------------------------


 ion  position               nearest neighbor table
   1  0.388  0.411  0.321-  32 1.09
   2  0.612  0.589  0.679-  31 1.09
   3  0.888  0.089  0.679-  30 1.09
   4  0.112  0.911  0.321-  29 1.09
   5  0.612  0.589  0.821-  31 1.09
   6  0.388  0.411  0.179-  32 1.09
   7  0.112  0.911  0.179-  29 1.09
   8  0.888  0.089  0.821-  30 1.09
   9  0.603  0.578  0.315-  47 1.03
  10  0.397  0.422  0.685-  48 1.03
  11  0.103  0.922  0.685-  45 1.03
  12  0.897  0.078  0.315-  46 1.03
  13  0.397  0.422  0.815-  48 1.03
  14  0.603  0.578  0.185-  47 1.03
  15  0.897  0.078  0.185-  46 1.03
  16  0.103  0.922  0.815-  45 1.03
  17  0.543  0.332  0.250-  32 1.09
  18  0.457  0.668  0.750-  31 1.09
  19  0.043  0.168  0.750-  30 1.09
  20  0.957  0.832  0.250-  29 1.09
  21  0.460  0.654  0.250-  47 1.03
  22  0.540  0.346  0.750-  48 1.03
  23  0.960  0.846  0.750-  45 1.03
  24  0.040  0.154  0.250-  46 1.03
  25  0.000  0.500  0.000-  41 3.23  42 3.23  33 3.24  34 3.24  35 3.25  36 3.25
  26  0.500  0.000  0.000-  43 3.23  44 3.23  35 3.24  36 3.24  33 3.25  34 3.25
  27  0.000  0.500  0.500-  41 3.23  42 3.23  37 3.24  38 3.24  39 3.25  40 3.25
  28  0.500  0.000  0.500-  43 3.23  44 3.23  39 3.24  40 3.24  37 3.25  38 3.25
  29  0.042  0.919  0.250-  20 1.09   7 1.09   4 1.09  46 1.50
  30  0.958  0.081  0.750-  19 1.09   8 1.09   3 1.09  45 1.50
  31  0.542  0.581  0.750-  18 1.09   5 1.09   2 1.09  48 1.50
  32  0.458  0.419  0.250-  17 1.09   6 1.09   1 1.09  47 1.50
  33  0.197  0.199  0.018-  25 3.24  26 3.25
  34  0.803  0.801  0.982-  25 3.24  26 3.25
  35  0.697  0.301  0.982-  26 3.24  25 3.25
  36  0.303  0.699  0.018-  26 3.24  25 3.25
  37  0.803  0.801  0.518-  27 3.24  28 3.25
  38  0.197  0.199  0.482-  27 3.24  28 3.25
  39  0.303  0.699  0.482-  28 3.24  27 3.25
  40  0.697  0.301  0.518-  28 3.24  27 3.25
  41  0.942  0.478  0.250-  25 3.23  27 3.23
  42  0.058  0.522  0.750-  25 3.23  27 3.23
  43  0.442  0.022  0.750-  26 3.23  28 3.23
  44  0.558  0.978  0.250-  26 3.23  28 3.23
  45  0.035  0.934  0.750-  11 1.03  16 1.03  23 1.03  30 1.50
  46  0.965  0.066  0.250-  12 1.03  15 1.03  24 1.03  29 1.50
  47  0.535  0.566  0.250-   9 1.03  14 1.03  21 1.03  32 1.50
  48  0.465  0.434  0.750-  10 1.03  13 1.03  22 1.03  31 1.50
 
  LATTYP: Found a simple orthorhombic cell.
 ALAT       =     8.9195190000
 B/A-ratio  =     1.0104386795
 C/A-ratio  =     1.4284127877
  
  Lattice vectors:
  
 A1 = (   8.9195190000,   0.0000000000,   0.0000000000)
 A2 = (  -0.0000000000,   9.0126270000,   0.0000000000)
 A3 = (   0.0000000000,   0.0000000000,  12.7407550000)


Analysis of symmetry for initial positions (statically):
=====================================================================
 Subroutine PRICEL returns:
 Original cell was already a primitive cell.
 

 Routine SETGRP: Setting up the symmetry group for a 
 simple orthorhombic supercell.


 Subroutine GETGRP returns: Found  8 space group operations
 (whereof  2 operations were pure point group operations)
 out of a pool of  8 trial point group operations.


The static configuration has the point symmetry S_2 .
 The point group associated with its full space group is D_2h.


Analysis of symmetry for dynamics (positions and initial velocities):
=====================================================================
 Subroutine PRICEL returns:
 Original cell was already a primitive cell.
 

 Routine SETGRP: Setting up the symmetry group for a 
 simple orthorhombic supercell.


 Subroutine GETGRP returns: Found  8 space group operations
 (whereof  2 operations were pure point group operations)
 out of a pool of  8 trial point group operations.


The dynamic configuration has the point symmetry S_2 .
 The point group associated with its full space group is D_2h.


Analysis of structural, dynamic, and magnetic symmetry:
=====================================================================
 Subroutine PRICEL returns:
 Original cell was already a primitive cell.
 

 Routine SETGRP: Setting up the symmetry group for a 
 simple orthorhombic supercell.


 Subroutine GETGRP returns: Found  8 space group operations
 (whereof  2 operations were pure point group operations)
 out of a pool of  8 trial point group operations.


The overall configuration has the point symmetry S_2 .
 The point group associated with its full space group is D_2h.


 Subroutine INISYM returns: Found  8 space group operations
 (whereof  2 operations are pure point group operations),
 and found     1 'primitive' translations


----------------------------------------------------------------------------------------

                                     Primitive cell                                     

  volume of cell :    1024.2076

  direct lattice vectors                    reciprocal lattice vectors
     8.919519000  0.000000000  0.000000000     0.112113669  0.000000000  0.000000000
    -0.000000000  9.012627000  0.000000000     0.000000000  0.110955441  0.000000000
     0.000000000  0.000000000 12.740755000    -0.000000000 -0.000000000  0.078488284

  length of vectors
     8.919519000  9.012627000 12.740755000     0.112113669  0.110955441  0.078488284

  position of ions in fractional coordinates (direct lattice)
     0.388408000  0.410677000  0.320741000
     0.611592000  0.589323000  0.679259000
     0.888408000  0.089323000  0.679259000
     0.111592000  0.910677000  0.320741000
     0.611592000  0.589323000  0.820741000
     0.388408000  0.410677000  0.179259000
     0.111592000  0.910677000  0.179259000
     0.888408000  0.089323000  0.820741000
     0.602561000  0.577773000  0.315093000
     0.397439000  0.422227000  0.684907000
     0.102561000  0.922227000  0.684907000
     0.897439000  0.077773000  0.315093000
     0.397439000  0.422227000  0.815093000
     0.602561000  0.577773000  0.184907000
     0.897439000  0.077773000  0.184907000
     0.102561000  0.922227000  0.815093000
     0.543180000  0.331775000  0.250000000
     0.456820000  0.668225000  0.750000000
     0.043180000  0.168225000  0.750000000
     0.956820000  0.831775000  0.250000000
     0.460150000  0.653692000  0.250000000
     0.539850000  0.346308000  0.750000000
     0.960150000  0.846308000  0.750000000
     0.039850000  0.153692000  0.250000000
     0.000000000  0.500000000  1.000000000
     0.500000000  0.000000000  1.000000000
     0.000000000  0.500000000  0.500000000
     0.500000000  0.000000000  0.500000000
     0.042431000  0.918718000  0.250000000
     0.957569000  0.081282000  0.750000000
     0.542431000  0.581282000  0.750000000
     0.457569000  0.418718000  0.250000000
     0.197198000  0.198644000  0.018389000
     0.802802000  0.801356000  0.981611000
     0.697198000  0.301356000  0.981611000
     0.302802000  0.698644000  0.018389000
     0.802802000  0.801356000  0.518389000
     0.197198000  0.198644000  0.481611000
     0.302802000  0.698644000  0.481611000
     0.697198000  0.301356000  0.518389000
     0.942067000  0.478144000  0.250000000
     0.057933000  0.521856000  0.750000000
     0.442067000  0.021856000  0.750000000
     0.557933000  0.978144000  0.250000000
     0.034877000  0.934074000  0.750000000
     0.965123000  0.065926000  0.250000000
     0.534877000  0.565926000  0.250000000
     0.465123000  0.434074000  0.750000000

  ion indices of the primitive-cell ions
   primitive index   ion index
                 1           1
                 2           2
                 3           3
                 4           4
                 5           5
                 6           6
                 7           7
                 8           8
                 9           9
                10          10
                11          11
                12          12
                13          13
                14          14
                15          15
                16          16
                17          17
                18          18
                19          19
                20          20
                21          21
                22          22
                23          23
                24          24
                25          25
                26          26
                27          27
                28          28
                29          29
                30          30
                31          31
                32          32
                33          33
                34          34
                35          35
                36          36
                37          37
                38          38
                39          39
                40          40
                41          41
                42          42
                43          43
                44          44
                45          45
                46          46
                47          47
                48          48

----------------------------------------------------------------------------------------

 
 
 KPOINTS: k-points for static calculation specifie

Read explicit list of k-points.

 Found      1 k-points:

 Following reciprocal coordinates:
            Coordinates               Weight
  0.000000  0.000000  0.000000      1.000000

 Following cartesian coordinates:
            Coordinates               Weight
  0.000000  0.000000  0.000000      1.000000
 
 
 Subroutine IBZKPT_HF returns following result:
 ==============================================
 
 Found      1 k-points in 1st BZ
 the following      1 k-points will be used (e.g. in the exchange kernel)
 Following reciprocal coordinates:   # in IRBZ
  0.000000  0.000000  0.000000    1.00000000   1 t-inv F


--------------------------------------------------------------------------------------------------------




 Dimension of arrays:
   k-points           NKPTS =      1   k-points in BZ     NKDIM =      1   number of bands    NBANDS=    144
   number of dos      NEDOS =    301   number of ions     NIONS =     48
   non local maximal  LDIM  =      6   non local SUM 2l+1 LMDIM =     18
   total plane-waves  NPLWV = 691200
   max r-space proj   IRMAX =      1   max aug-charges    IRDMAX=  39233
   dimension x,y,z NGX =    80 NGY =   80 NGZ =  108
   dimension x,y,z NGXF=   160 NGYF=  160 NGZF=  216
   support grid    NGXF=   160 NGYF=  160 NGZF=  216
   ions per type =              24   4   4  12   4
   NGX,Y,Z   is equivalent  to a cutoff of  14.91, 14.76, 14.09 a.u.
   NGXF,Y,Z  is equivalent  to a cutoff of  29.82, 29.51, 28.18 a.u.

 SYSTEM =  unknown system                          
 POSCAR =  H24 Pb4 C4 I12 N4                       

 Startparameter for this run:
   NWRITE =      2    write-flag & timer
   PREC   = accura    normal or accurate (medium, high low for compatibility)
   ISTART =      0    job   : 0-new  1-cont  2-samecut
   ICHARG =      2    charge: 1-file 2-atom 10-const
   ISPIN  =      2    spin polarized calculation?
   LNONCOLLINEAR =      F non collinear calculations
   LSORBIT =      F    spin-orbit coupling
   INIWAV =      1    electr: 0-lowe 1-rand  2-diag
   LASPH  =      T    aspherical Exc in radial PAW
 Electronic Relaxation 1
   ENCUT  =  680.0 eV  49.98 Ry    7.07 a.u.  18.96 19.16 27.09*2*pi/ulx,y,z
   ENINI  =  680.0     initial cutoff
   ENAUG  = 1360.0 eV  augmentation charge cutoff
   NELM   =    200;   NELMIN=  2; NELMDL= -5     # of ELM steps 
   EDIFF  = 0.1E-04   stopping-criterion for ELM
   LREAL  =      F    real-space projection
   NLSPLINE    = F    spline interpolate recip. space projectors
   LCOMPAT=      F    compatible to vasp.4.4
   GGA_COMPAT  = T    GGA compatible to vasp.4.4-vasp.4.6
   LMAXPAW     = -100 max onsite density
   LMAXMIX     =    6 max onsite mixed and CHGCAR
   VOSKOWN=      0    Vosko Wilk Nusair interpolation
   ROPT   =    0.00000   0.00000   0.00000   0.00000
   ROPT   =    0.00000
 Ionic relaxation
   EDIFFG = 0.1E-03   stopping-criterion for IOM
   NSW    =      0    number of steps for IOM
   NBLOCK =      1;   KBLOCK =      1    inner block; outer block 
   IBRION =     -1    ionic relax: 0-MD 1-quasi-New 2-CG
   NFREE  =      0    steps in history (QN), initial steepest desc. (CG)
   ISIF   =      0    stress and relaxation
   IWAVPR =     10    prediction:  0-non 1-charg 2-wave 3-comb
   ISYM   =      3    0-nonsym 1-usesym 2-fastsym
   LCORR  =      T    Harris-Foulkes like correction to forces

   POTIM  = 0.5000    time-step for ionic-motion
   TEIN   =    0.0    initial temperature
   TEBEG  =    0.0;   TEEND  =   0.0 temperature during run
   SMASS  =  -3.00    Nose mass-parameter (am)
   estimated Nose-frequenzy (Omega)   =  0.10E-29 period in steps = 0.13E+47 mass=  -0.182E-26a.u.
   SCALEE = 1.0000    scale energy and forces
   NPACO  =    256;   APACO  = 10.0  distance and # of slots for P.C.
   PSTRESS=    0.0 pullay stress

  Mass of Ions in am
   POMASS =   1.00207.20 12.01126.90 14.00
  Ionic Valenz
   ZVAL   =   1.00 14.00  4.00  7.00  5.00
  Atomic Wigner-Seitz radii
   RWIGS  =  -1.00 -1.00 -1.00 -1.00 -1.00
  virtual crystal weights 
   VCA    =   1.00  1.00  1.00  1.00  1.00
   NELECT =     200.0000    total number of electrons
   NUPDOWN=      -1.0000    fix difference up-down

 DOS related values:
   EMIN   =  10.00;   EMAX   =-10.00  energy-range for DOS
   EFERMI =   0.00;   METHOD = LEGACY      
   ISMEAR =     0;   SIGMA  =   0.01  broadening in eV -4-tet -1-fermi 0-gaus

 Electronic relaxation 2 (details)
   IALGO  =     38    algorithm
   LDIAG  =      T    sub-space diagonalisation (order eigenvalues)
   LSUBROT=      F    optimize rotation matrix (better conditioning)
   TURBO    =      0    0=normal 1=particle mesh
   IRESTART =      0    0=no restart 2=restart with 2 vectors
   NREBOOT  =      0    no. of reboots
   NMIN     =      0    reboot dimension
   EREF     =   0.00    reference energy to select bands
   IMIX   =      1    mixing-type and parameters
     AMIX     =   0.40;   BMIX     =  1.00
     AMIX_MAG =   1.60;   BMIX_MAG =  1.00
     AMIN     =   0.10
     WC   =   100.;   INIMIX=   1;  MIXPRE=   1;  MAXMIX= -45

 Intra band minimization:
   WEIMIN = 0.0000     energy-eigenvalue tresh-hold
   EBREAK =  0.17E-07  absolut break condition
   DEPER  =   0.30     relativ break condition  

   TIME   =   0.40     timestep for ELM

  volume/ion in A,a.u.               =      21.34       143.99
  Fermi-wavevector in a.u.,A,eV,Ry     =   0.949778  1.794820 12.273523  0.902078
  Thomas-Fermi vector in A             =   2.078093
 
 Write flags
   LWAVE        =      T    write WAVECAR
   LDOWNSAMPLE  =      F    k-point downsampling of WAVECAR
   LCHARG       =      T    write CHGCAR
   LVTOT        =      T    write LOCPOT, total local potential
   LVHAR        =      F    write LOCPOT, Hartree potential only
   LELF         =      F    write electronic localiz. function (ELF)
   LORBIT       =     11    0 simple, 1 ext, 2 COOP (PROOUT), +10 PAW based schemes


 Dipole corrections
   LMONO  =      F    monopole corrections only (constant potential shift)
   LDIPOL =      F    correct potential (dipole corrections)
   IDIPOL =      0    1-x, 2-y, 3-z, 4-all directions 
   EPSILON=  1.0000000 bulk dielectric constant

 Exchange correlation treatment:
   GGA     =    PE    GGA type
   LEXCH   =     8    internal setting for exchange type
   LIBXC   =     F    Libxc                    
   VOSKOWN =     0    Vosko Wilk Nusair interpolation
   EXXOEP  =     0    0=HF, 1=EXX-LHF (local Hartree Fock) 2=EXX OEP
   LHFCALC =     T    Hartree Fock is set to
   LSYMGRAD=     F    symmetrize gradient (conserves proper symmetry)
   PRECFOCK=fast      Normal, Fast or Accurate (Low or Medium for compatibility)
   LRHFCALC=     F    long range Hartree Fock
   LRSCOR  =     F    long range correlation only (use DFT for short range part)
   LTHOMAS =     F    Thomas Fermi screening in HF
   LMODELHF=     F    short range full HF, long range fraction AEXX
   FOCKCORR=     1    mode to apply convergence corrections
   LFOCKACE=     T    use Adeptively-Compressed-Exchange operator
   ENCUT4O =  -1.0   cutoff for four orbital integrals eV
   LMAXFOCK=     4    L truncation for augmentation on plane wave grid
   LMAXFOCKAE=  -1    L truncation for all-electron charge restoration on plane wave grid
   NMAXFOCKAE=   1    number of basis functions for all-electron charge restoration
   LFOCKAEDFT=     F  apply the AE augmentation even for DFT
   NKREDX  =     1    reduce k-point grid by
   NKREDY  =     1    reduce k-point grid by
   NKREDZ  =     1    reduce k-point grid by
   SHIFTRED=     F    shift reduced grid of Gamma
   HFKIDENT=     F    idential grid for each k-point
   ODDONLY =     F    use only odd q-grid points
   EVENONLY=     F    use only even q-grid points
   HFALPHA =   -1.0000 decay constant for conv. correction
   MCALPHA =    0.0000 extent of test-charge in conv. correction in multipole expansion
   AEXX    =    0.2500 exact exchange contribution
   HFSCREEN=    0.2000 screening length (either q_TF or 0.3 A-1)
   HFSCREENC=   0.2000 screening length for correlation (either q_TF or 0.3 A-1)
   HFRCUT  =    0.0000 spherical cutoff for potential kernel
   ALDAX   =    0.7500 LDA exchange part
   AGGAX   =    0.7500 GGA exchange part
   ALDAC   =    1.0000 LDA correlation
   AGGAC   =    1.0000 GGA correlation
   ENCUTFOCK=  -1.0 apply spherical cutoff to Coloumb kernel
   NBANDSGWLOW=     1    first orbital included in HF term
   NBLOCK_FOCK=    64    blocking factor in FOCK_ACC

 Linear response parameters
   LEPSILON=     F    determine dielectric tensor
   LRPA    =     F    only Hartree local field effects (RPA)
   LNABLA  =     F    use nabla operator in PAW spheres
   LVEL    =     F    velocity operator in full k-point grid
   CSHIFT  =0.1000    complex shift for real part using Kramers Kronig
   OMEGAMAX=  -1.0    maximum frequency
   DEG_THRESHOLD= 0.2000000E-02 threshold for treating states as degnerate
   RTIME   =   -0.100 relaxation time in fs
  (WPLASMAI=    0.000 imaginary part of plasma frequency in eV, 0.658/RTIME)
   DFIELD  = 0.0000000 0.0000000 0.0000000 field for delta impulse in time
 
  Optional k-point grid parameters
   LKPOINTS_OPT  =     F    use optional k-point grid
   KPOINTS_OPT_MODE=     1    mode for optional k-point grid
 
 Orbital magnetization related:
   ORBITALMAG=     F  switch on orbital magnetization
   LCHIMAG   =     F  perturbation theory with respect to B field
   DQ        =  0.001000  dq finite difference perturbation B field
   LLRAUG    =     F  two centre corrections for induced B field
   LBONE     =     F  B-component reconstruction in AE one-centre
   LVGVCALC  =     T  calculate vGv susceptibility
   LVGVAPPL  =     F  apply vGv susceptibility instead of pGv for G=0

 Random number generation:
   RANDOM_GENERATOR = DEFAULT
   PCG_SEED         = not used


--------------------------------------------------------------------------------------------------------


 Static calculation
 charge density and potential will be updated during run
 spin polarized calculation
 Variant of blocked Davidson
 Davidson routine will perform the subspace rotation
 perform sub-space diagonalisation
    after iterative eigenvector-optimisation
 Kerker-like  mixing scheme
 using additional bands           44
 reciprocal scheme for non local part
 use partial core corrections
 calculate Harris-corrections to forces 
   (improved forces if not selfconsistent)
 use gradient corrections 
 use of overlap-Matrix (Vanderbilt PP)
 Gauss-broadening in eV      SIGMA  =   0.01


--------------------------------------------------------------------------------------------------------


  energy-cutoff  :      680.00
  volume of cell :     1024.21
      direct lattice vectors                 reciprocal lattice vectors
     8.919519000  0.000000000  0.000000000     0.112113669  0.000000000  0.000000000
    -0.000000000  9.012627000  0.000000000     0.000000000  0.110955441  0.000000000
     0.000000000  0.000000000 12.740755000    -0.000000000 -0.000000000  0.078488284

  length of vectors
     8.919519000  9.012627000 12.740755000     0.112113669  0.110955441  0.078488284


 
 k-points in units of 2pi/SCALE and weight: k-points for static calculation specifie
   0.00000000  0.00000000  0.00000000       1.000
 
 k-points in reciprocal lattice and weights: k-points for static calculation specifie
   0.00000000  0.00000000  0.00000000       1.000
 
 position of ions in fractional coordinates (direct lattice) 
   0.38840800  0.41067700  0.32074100
   0.61159200  0.58932300  0.67925900
   0.88840800  0.08932300  0.67925900
   0.11159200  0.91067700  0.32074100
   0.61159200  0.58932300  0.82074100
   0.38840800  0.41067700  0.17925900
   0.11159200  0.91067700  0.17925900
   0.88840800  0.08932300  0.82074100
   0.60256100  0.57777300  0.31509300
   0.39743900  0.42222700  0.68490700
   0.10256100  0.92222700  0.68490700
   0.89743900  0.07777300  0.31509300
   0.39743900  0.42222700  0.81509300
   0.60256100  0.57777300  0.18490700
   0.89743900  0.07777300  0.18490700
   0.10256100  0.92222700  0.81509300
   0.54318000  0.33177500  0.25000000
   0.45682000  0.66822500  0.75000000
   0.04318000  0.16822500  0.75000000
   0.95682000  0.83177500  0.25000000
   0.46015000  0.65369200  0.25000000
   0.53985000  0.34630800  0.75000000
   0.96015000  0.84630800  0.75000000
   0.03985000  0.15369200  0.25000000
   0.00000000  0.50000000  0.00000000
   0.50000000  0.00000000  0.00000000
   0.00000000  0.50000000  0.50000000
   0.50000000  0.00000000  0.50000000
   0.04243100  0.91871800  0.25000000
   0.95756900  0.08128200  0.75000000
   0.54243100  0.58128200  0.75000000
   0.45756900  0.41871800  0.25000000
   0.19719800  0.19864400  0.01838900
   0.80280200  0.80135600  0.98161100
   0.69719800  0.30135600  0.98161100
   0.30280200  0.69864400  0.01838900
   0.80280200  0.80135600  0.51838900
   0.19719800  0.19864400  0.48161100
   0.30280200  0.69864400  0.48161100
   0.69719800  0.30135600  0.51838900
   0.94206700  0.47814400  0.25000000
   0.05793300  0.52185600  0.75000000
   0.44206700  0.02185600  0.75000000
   0.55793300  0.97814400  0.25000000
   0.03487700  0.93407400  0.75000000
   0.96512300  0.06592600  0.25000000
   0.53487700  0.56592600  0.25000000
   0.46512300  0.43407400  0.75000000
 
 position of ions in cartesian coordinates  (Angst):
   3.46441254  3.70127862  4.08648250
   5.45510646  5.31134838  8.65427250
   7.92417204  0.80503488  8.65427250
   0.99534696  8.20759212  4.08648250
   5.45510646  5.31134838 10.45686000
   3.46441254  3.70127862  2.28389500
   0.99534696  8.20759212  2.28389500
   7.92417204  0.80503488 10.45686000
   5.37455429  5.20725254  4.01452272
   3.54496471  3.80537446  8.72623228
   0.91479479  8.31168796  8.72623228
   8.00472421  0.70093904  4.01452272
   3.54496471  3.80537446 10.38490022
   5.37455429  5.20725254  2.35585478
   8.00472421  0.70093904  2.35585478
   0.91479479  8.31168796 10.38490022
   4.84490433  2.99016432  3.18518875
   4.07461467  6.02246268  9.55556625
   0.38514483  1.51614918  9.55556625
   8.53437417  7.49647782  3.18518875
   4.10431667  5.89148217  3.18518875
   4.81520233  3.12114483  9.55556625
   8.56407617  7.62745833  9.55556625
   0.35544283  1.38516867  3.18518875
  -0.00000000  4.50631350  0.00000000
   4.45975950  0.00000000  0.00000000
  -0.00000000  4.50631350  6.37037750
   4.45975950  0.00000000  6.37037750
   0.37846411  8.28006265  3.18518875
   8.54105489  0.73256435  9.55556625
   4.83822361  5.23887785  9.55556625
   4.08129539  3.77374915  3.18518875
   1.75891131  1.79030428  0.23428974
   7.16060769  7.22232272 12.50646526
   6.21867081  2.71600922 12.50646526
   2.70084819  6.29661778  0.23428974
   7.16060769  7.22232272  6.60466724
   1.75891131  1.79030428  6.13608776
   2.70084819  6.29661778  6.13608776
   6.21867081  2.71600922  6.60466724
   8.40278451  4.30933352  3.18518875
   0.51673449  4.70329348  9.55556625
   3.94302501  0.19697998  9.55556625
   4.97649399  8.81564702  3.18518875
   0.31108606  8.41846055  9.55556625
   8.60843294  0.59416645  3.18518875
   4.77084556  5.10047995  3.18518875
   4.14867344  3.91214705  9.55556625
 


--------------------------------------------------------------------------------------------------------


 k-point   1 :   0.0000 0.0000 0.0000  plane waves:   41225

 maximum and minimum number of plane-waves per node :      4131     4117

 maximum number of plane-waves:     41225
 maximum index in each direction: 
   IXMAX=   18   IYMAX=   19   IZMAX=   27
   IXMIN=  -18   IYMIN=  -19   IZMIN=  -27


 parallel 3D FFT for wavefunctions:
    minimum data exchange during FFTs selected (reduces bandwidth)
 parallel 3D FFT for charge:
    minimum data exchange during FFTs selected (reduces bandwidth)


 FFT grid for exact exchange (Hartree Fock) 
  NGX = 40; NGY = 40; NGZ = 56

 
 Radii for the augmentation spheres in the non-local exchange
 for species   1 augmentation radius   0.702 (default was   0.520)
       energy cutoff for augmentation   2720.0
 for species   2 augmentation radius   1.558 (default was   1.154)
       energy cutoff for augmentation   2720.0
 for species   3 augmentation radius   0.944 (default was   0.699)
       energy cutoff for augmentation   2720.0
 for species   4 augmentation radius   1.603 (default was   1.188)
       energy cutoff for augmentation   2720.0
 for species   5 augmentation radius   0.957 (default was   0.709)
       energy cutoff for augmentation   2720.0

 real space projection operators:
  total allocation   :       4954.88 KBytes
  max/ min on nodes  :        507.02        477.06

 Maximum index for augmentation-charges in exchange          145
  SETUP_FOCK is finished

 total amount of memory used by VASP MPI-rank0    57539. kBytes
=======================================================================

   base      :      30000. kBytes
   nonl-proj :       6160. kBytes
   fftplans  :       4762. kBytes
   grid      :      12794. kBytes
   one-center:        155. kBytes
   HF        :        194. kBytes
   nonlr-proj:       1862. kBytes
   wavefun   :       1612. kBytes
 
     INWAV:  cpu time      0.0001: real time      0.0006
 initial charge density was supplied:
 charge density of overlapping atoms calculated
 number of electron     200.0000000 magnetization      28.8000000
 keeping initial charge density in first step


--------------------------------------------------------------------------------------------------------


 Maximum index for augmentation-charges         1267 (set IRDMAX)


--------------------------------------------------------------------------------------------------------


 First call to EWALD:  gamma=   0.176
 Maximum number of real-space cells 3x 3x 2
 Maximum number of reciprocal cells 2x 3x 3

    FEWALD:  cpu time      0.0020: real time      0.0022


--------------------------------------- Ionic step        1  -------------------------------------------




--------------------------------------- Iteration      1(   1)  ---------------------------------------


    POTLOK:  cpu time      0.1163: real time      0.2064
    SETDIJ:  cpu time      0.4632: real time      0.4645
     EDDAV:  cpu time      0.7572: real time      2.0605
       DOS:  cpu time      0.0041: real time      0.0043
    --------------------------------------------
      LOOP:  cpu time      1.3409: real time      2.7358

 eigenvalue-minimisations  :   588
 total energy-change (2. order) :-0.2279826E+05  (-0.9497755E+04)
 number of electron     200.0000000 magnetization      28.8000000
 augmentation part      200.0000000 magnetization      28.8000000

 Free energy of the ion-electron system (eV)
  ---------------------------------------------------
  alpha Z        PSCENC =       180.38090441
  Ewald energy   TEWEN  =     -7816.47850740
  -Hartree energ DENC   =     -3969.61158142
  -exchange      EXHF   =         0.00000000
  -V(xc)+E(xc)   XCENC  =       184.42980326
  PAW double counting   =     10306.47510886   -34190.94562002
  entropy T*S    EENTRO =        -0.00000001
  eigenvalues    EBANDS =       167.71733772
  atomic energy  EATOM  =     12339.77072949
  Solvation  Ediel_sol  =         0.00000000
  ---------------------------------------------------
  free energy    TOTEN  =    -22798.26182511 eV

  energy without entropy =   -22798.26182510  energy(sigma->0) =   -22798.26182511
  exchange ACFDT corr.  =         0.00000000  see jH, gK, PRB 81, 115126


--------------------------------------------------------------------------------------------------------




--------------------------------------- Iteration      1(   2)  ---------------------------------------


     EDDAV:  cpu time      0.6816: real time      0.6856
       DOS:  cpu time      0.0003: real time      0.0003
    --------------------------------------------
      LOOP:  cpu time      0.6819: real time      0.6859

 eigenvalue-minimisations  :   660
 total energy-change (2. order) :-0.1711526E+04  (-0.1620502E+04)
 number of electron     200.0000000 magnetization      28.8000000
 augmentation part      200.0000000 magnetization      28.8000000

 Free energy of the ion-electron system (eV)
  ---------------------------------------------------
  alpha Z        PSCENC =       180.38090441
  Ewald energy   TEWEN  =     -7816.47850740
  -Hartree energ DENC   =     -3969.61158142
  -exchange      EXHF   =         0.00000000
  -V(xc)+E(xc)   XCENC  =       184.42980326
  PAW double counting   =     10306.47510886   -34190.94562002
  entropy T*S    EENTRO =        -0.00000000
  eigenvalues    EBANDS =     -1543.80854127
  atomic energy  EATOM  =     12339.77072949
  Solvation  Ediel_sol  =         0.00000000
  ---------------------------------------------------
  free energy    TOTEN  =    -24509.78770410 eV

  energy without entropy =   -24509.78770410  energy(sigma->0) =   -24509.78770410
  exchange ACFDT corr.  =         0.00000000  see jH, gK, PRB 81, 115126


--------------------------------------------------------------------------------------------------------




--------------------------------------- Iteration      1(   3)  ---------------------------------------


     EDDAV:  cpu time      0.7506: real time      0.7721
       DOS:  cpu time      0.0004: real time      0.0004
    --------------------------------------------
      LOOP:  cpu time      0.7510: real time      0.7725

 eigenvalue-minimisations  :   744
 total energy-change (2. order) :-0.2532850E+03  (-0.2506608E+03)
 number of electron     200.0000000 magnetization      28.8000000
 augmentation part      200.0000000 magnetization      28.8000000

 Free energy of the ion-electron system (eV)
  ---------------------------------------------------
  alpha Z        PSCENC =       180.38090441
  Ewald energy   TEWEN  =     -7816.47850740
  -Hartree energ DENC   =     -3969.61158142
  -exchange      EXHF   =         0.00000000
  -V(xc)+E(xc)   XCENC  =       184.42980326
  PAW double counting   =     10306.47510886   -34190.94562002
  entropy T*S    EENTRO =        -0.00000000
  eigenvalues    EBANDS =     -1797.09351402
  atomic energy  EATOM  =     12339.77072949
  Solvation  Ediel_sol  =         0.00000000
  ---------------------------------------------------
  free energy    TOTEN  =    -24763.07267684 eV

  energy without entropy =   -24763.07267684  energy(sigma->0) =   -24763.07267684
  exchange ACFDT corr.  =         0.00000000  see jH, gK, PRB 81, 115126


--------------------------------------------------------------------------------------------------------




--------------------------------------- Iteration      1(   4)  ---------------------------------------


     EDDAV:  cpu time      0.7701: real time      0.7912
       DOS:  cpu time      0.0005: real time      0.0005
    --------------------------------------------
      LOOP:  cpu time      0.7706: real time      0.7917

 eigenvalue-minimisations  :   792
 total energy-change (2. order) :-0.1609057E+02  (-0.1603042E+02)
 number of electron     200.0000000 magnetization      28.8000000
 augmentation part      200.0000000 magnetization      28.8000000

 Free energy of the ion-electron system (eV)
  ---------------------------------------------------
  alpha Z        PSCENC =       180.38090441
  Ewald energy   TEWEN  =     -7816.47850740
  -Hartree energ DENC   =     -3969.61158142
  -exchange      EXHF   =         0.00000000
  -V(xc)+E(xc)   XCENC  =       184.42980326
  PAW double counting   =     10306.47510886   -34190.94562002
  entropy T*S    EENTRO =        -0.00000000
  eigenvalues    EBANDS =     -1813.18408526
  atomic energy  EATOM  =     12339.77072949
  Solvation  Ediel_sol  =         0.00000000
  ---------------------------------------------------
  free energy    TOTEN  =    -24779.16324808 eV

  energy without entropy =   -24779.16324808  energy(sigma->0) =   -24779.16324808
  exchange ACFDT corr.  =         0.00000000  see jH, gK, PRB 81, 115126


--------------------------------------------------------------------------------------------------------




--------------------------------------- Iteration      1(   5)  ---------------------------------------


    POTLOK:  cpu time      0.2235: real time      0.2390
    SETDIJ:  cpu time      0.9984: real time      1.0008
     EDDAV:  cpu time      2.4557: real time      2.5637
       DOS:  cpu time      0.0003: real time      0.0004
    CHARGE:  cpu time      0.0469: real time      0.0784
    MIXING:  cpu time      0.0008: real time      0.0008
    --------------------------------------------
      LOOP:  cpu time      3.7257: real time      3.8830

 eigenvalue-minimisations  :   732
 total energy-change (2. order) : 0.2453298E+05  (-0.8626278E+01)
 number of electron     199.9999998 magnetization     -17.2800000
 augmentation part        3.9461105 magnetization     -17.2519388

 Free energy of the ion-electron system (eV)
  ---------------------------------------------------
  alpha Z        PSCENC =       180.38090441
  Ewald energy   TEWEN  =     -7816.47850740
  -Hartree energ DENC   =     -3969.61158142
  -exchange      EXHF   =       406.12747550
  -V(xc)+E(xc)   XCENC  =       129.04479668
  PAW double counting   =     10351.10184670   -10023.02848301
  entropy T*S    EENTRO =        -0.00000000
  eigenvalues    EBANDS =     -1843.49370882
  atomic energy  EATOM  =     12339.77072949
  Solvation  Ediel_sol  =         0.00000000
  ---------------------------------------------------
  free energy    TOTEN  =      -246.18652787 eV

  energy without entropy =     -246.18652787  energy(sigma->0) =     -246.18652787
  exchange ACFDT corr.  =         0.00000000  see jH, gK, PRB 81, 115126


--------------------------------------------------------------------------------------------------------




--------------------------------------- Iteration      1(   6)  ---------------------------------------


    POTLOK:  cpu time      0.2098: real time      0.2273
    SETDIJ:  cpu time      0.9986: real time      1.0009
     EDDAV:  cpu time      2.4273: real time      2.4439
       DOS:  cpu time      0.0002: real time      0.0003
    CHARGE:  cpu time      0.0452: real time      0.0453
    MIXING:  cpu time      0.0008: real time      0.0008
    --------------------------------------------
      LOOP:  cpu time      3.6819: real time      3.7186

 eigenvalue-minimisations  :   708
 total energy-change (2. order) : 0.1294603E+02  (-0.3623552E+01)
 number of electron     199.9999997 magnetization      10.3680000
 augmentation part        4.4530760 magnetization      10.1719779

 Free energy of the ion-electron system (eV)
  ---------------------------------------------------
  alpha Z        PSCENC =       180.38090441
  Ewald energy   TEWEN  =     -7816.47850740
  -Hartree energ DENC   =     -4076.30306064
  -exchange      EXHF   =       399.68444817
  -V(xc)+E(xc)   XCENC  =       135.50139096
  PAW double counting   =     12323.95222775   -11992.31046121
  entropy T*S    EENTRO =        -0.00000000
  eigenvalues    EBANDS =     -1727.43816702
  atomic energy  EATOM  =     12339.77072949
  Solvation  Ediel_sol  =         0.00000000
  ---------------------------------------------------
  free energy    TOTEN  =      -233.24049548 eV

  energy without entropy =     -233.24049548  energy(sigma->0) =     -233.24049548
  exchange ACFDT corr.  =         0.00000000  see jH, gK, PRB 81, 115126


--------------------------------------------------------------------------------------------------------




--------------------------------------- Iteration      1(   7)  ---------------------------------------


    POTLOK:  cpu time      0.2125: real time      0.2275
    SETDIJ:  cpu time      0.9967: real time      0.9991
     EDDAV:  cpu time      2.3418: real time      2.3584
       DOS:  cpu time      0.0003: real time      0.0003
    CHARGE:  cpu time      0.0436: real time      0.0437
    MIXING:  cpu time      0.0010: real time      0.0010
    --------------------------------------------
      LOOP:  cpu time      3.5958: real time      3.6299

 eigenvalue-minimisations  :   648
 total energy-change (2. order) :-0.3710317E+01  (-0.1724329E+01)
 number of electron     199.9999996 magnetization      -6.2208000
 augmentation part        4.6911623 magnetization      -6.1962270

 Free energy of the ion-electron system (eV)
  ---------------------------------------------------
  alpha Z        PSCENC =       180.38090441
  Ewald energy   TEWEN  =     -7816.47850740
  -Hartree energ DENC   =     -4110.81399283
  -exchange      EXHF   =       392.36734363
  -V(xc)+E(xc)   XCENC  =       136.79821925
  PAW double counting   =     14021.26185076   -13688.00050445
  entropy T*S    EENTRO =        -0.00000000
  eigenvalues    EBANDS =     -1692.23685532
  atomic energy  EATOM  =     12339.77072949
  Solvation  Ediel_sol  =         0.00000000
  ---------------------------------------------------
  free energy    TOTEN  =      -236.95081246 eV

  energy without entropy =     -236.95081246  energy(sigma->0) =     -236.95081246
  exchange ACFDT corr.  =         0.00000000  see jH, gK, PRB 81, 115126


--------------------------------------------------------------------------------------------------------




--------------------------------------- Iteration      1(   8)  ---------------------------------------


    POTLOK:  cpu time      0.2100: real time      0.2316
    SETDIJ:  cpu time      0.9930: real time      0.9953
     EDDAV:  cpu time      2.3594: real time      2.3760
       DOS:  cpu time      0.0002: real time      0.0002
    CHARGE:  cpu time      0.0461: real time      0.0462
    MIXING:  cpu time      0.0009: real time      0.0009
    --------------------------------------------
      LOOP:  cpu time      3.6096: real time      3.6503

 eigenvalue-minimisations  :   648
 total energy-change (2. order) :-0.1092337E+01  (-0.2352764E+00)
 number of electron     199.9999995 magnetization       3.7324800
 augmentation part        4.7781373 magnetization       3.7009882

 Free energy of the ion-electron system (eV)
  ---------------------------------------------------
  alpha Z        PSCENC =       180.38090441
  Ewald energy   TEWEN  =     -7816.47850740
  -Hartree energ DENC   =     -4114.96773583
  -exchange      EXHF   =       388.33040654
  -V(xc)+E(xc)   XCENC  =       137.42788482
  PAW double counting   =     15334.16818181   -15000.30034980
  entropy T*S    EENTRO =        -0.00000000
  eigenvalues    EBANDS =     -1686.37466343
  atomic energy  EATOM  =     12339.77072949
  Solvation  Ediel_sol  =         0.00000000
  ---------------------------------------------------
  free energy    TOTEN  =      -238.04314938 eV

  energy without entropy =     -238.04314938  energy(sigma->0) =     -238.04314938
  exchange ACFDT corr.  =         0.00000000  see jH, gK, PRB 81, 115126


--------------------------------------------------------------------------------------------------------




--------------------------------------- Iteration      1(   9)  ---------------------------------------


    POTLOK:  cpu time      0.2105: real time      0.2274
    SETDIJ:  cpu time      0.9990: real time      1.0014
     EDDAV:  cpu time      2.3928: real time      2.4095
       DOS:  cpu time      0.0002: real time      0.0002
    CHARGE:  cpu time      0.0452: real time      0.0453
    MIXING:  cpu time      0.0018: real time      0.0018
    --------------------------------------------
      LOOP:  cpu time      3.6496: real time      3.6856

 eigenvalue-minimisations  :   696
 total energy-change (2. order) : 0.2765802E-02  (-0.4557085E-01)
 number of electron     199.9999995 magnetization      -2.2394880
 augmentation part        4.7759226 magnetization      -2.2275626

 Free energy of the ion-electron system (eV)
  ---------------------------------------------------
  alpha Z        PSCENC =       180.38090441
  Ewald energy   TEWEN  =     -7816.47850740
  -Hartree energ DENC   =     -4114.62571507
  -exchange      EXHF   =       387.29053664
  -V(xc)+E(xc)   XCENC  =       137.87910570
  PAW double counting   =     16258.92268110   -15924.88171723
  entropy T*S    EENTRO =        -0.00000000
  eigenvalues    EBANDS =     -1686.29840122
  atomic energy  EATOM  =     12339.77072949
  Solvation  Ediel_sol  =         0.00000000
  ---------------------------------------------------
  free energy    TOTEN  =      -238.04038358 eV

  energy without entropy =     -238.04038358  energy(sigma->0) =     -238.04038358
  exchange ACFDT corr.  =         0.00000000  see jH, gK, PRB 81, 115126


--------------------------------------------------------------------------------------------------------




--------------------------------------- Iteration      1(  10)  ---------------------------------------


    POTLOK:  cpu time      0.2106: real time      0.2271
    SETDIJ:  cpu time      0.9966: real time      0.9990
     EDDAV:  cpu time      2.3801: real time      2.3970
       DOS:  cpu time      0.0003: real time      0.0003
    CHARGE:  cpu time      0.0461: real time      0.0463
    MIXING:  cpu time      0.0008: real time      0.0008
    --------------------------------------------
      LOOP:  cpu time      3.6346: real time      3.6705

 eigenvalue-minimisations  :   660
 total energy-change (2. order) : 0.1295831E-01  (-0.1647049E-01)
 number of electron     199.9999994 magnetization       1.3436928
 augmentation part        4.7500395 magnetization       1.3343801

 Free energy of the ion-electron system (eV)
  ---------------------------------------------------
  alpha Z        PSCENC =       180.38090441
  Ewald energy   TEWEN  =     -7816.47850740
  -Hartree energ DENC   =     -4115.46097873
  -exchange      EXHF   =       387.26695967
  -V(xc)+E(xc)   XCENC  =       138.22884909
  PAW double counting   =     16853.64501041   -16519.60495294
  entropy T*S    EENTRO =        -0.00000000
  eigenvalues    EBANDS =     -1685.77543927
  atomic energy  EATOM  =     12339.77072949
  Solvation  Ediel_sol  =         0.00000000
  ---------------------------------------------------
  free energy    TOTEN  =      -238.02742527 eV

  energy without entropy =     -238.02742527  energy(sigma->0) =     -238.02742527
  exchange ACFDT corr.  =         0.00000000  see jH, gK, PRB 81, 115126


--------------------------------------------------------------------------------------------------------




--------------------------------------- Iteration      1(  11)  ---------------------------------------


    POTLOK:  cpu time      0.2107: real time      0.2266
    SETDIJ:  cpu time      0.9982: real time      1.0006
     EDDAV:  cpu time      2.3593: real time      2.3760
       DOS:  cpu time      0.0003: real time      0.0003
    CHARGE:  cpu time      0.0454: real time      0.0455
    MIXING:  cpu time      0.0008: real time      0.0008
    --------------------------------------------
      LOOP:  cpu time      3.6146: real time      3.6497

 eigenvalue-minimisations  :   660
 total energy-change (2. order) :-0.3470983E-02  (-0.5225829E-02)
 number of electron     199.9999994 magnetization      -0.8062157
 augmentation part        4.7276730 magnetization      -0.8005453

 Free energy of the ion-electron system (eV)
  ---------------------------------------------------
  alpha Z        PSCENC =       180.38090441
  Ewald energy   TEWEN  =     -7816.47850740
  -Hartree energ DENC   =     -4117.04958833
  -exchange      EXHF   =       387.36689664
  -V(xc)+E(xc)   XCENC  =       138.50064374
  PAW double counting   =     17203.49672790   -16869.51296326
  entropy T*S    EENTRO =        -0.00000000
  eigenvalues    EBANDS =     -1684.50573946
  atomic energy  EATOM  =     12339.77072949
  Solvation  Ediel_sol  =         0.00000000
  ---------------------------------------------------
  free energy    TOTEN  =      -238.03089626 eV

  energy without entropy =     -238.03089626  energy(sigma->0) =     -238.03089626
  exchange ACFDT corr.  =         0.00000000  see jH, gK, PRB 81, 115126


--------------------------------------------------------------------------------------------------------




--------------------------------------- Iteration      1(  12)  ---------------------------------------


    POTLOK:  cpu time      0.2089: real time      0.2252
    SETDIJ:  cpu time      0.9951: real time      0.9974
     EDDAV:  cpu time      2.3775: real time      2.3941
       DOS:  cpu time      0.0002: real time      0.0002
    CHARGE:  cpu time      0.0457: real time      0.0458
    MIXING:  cpu time      0.0007: real time      0.0007
    --------------------------------------------
      LOOP:  cpu time      3.6282: real time      3.6635

 eigenvalue-minimisations  :   648
 total energy-change (2. order) :-0.2404177E-02  (-0.1698573E-02)
 number of electron     199.9999994 magnetization       0.4837294
 augmentation part        4.7152704 magnetization       0.4799709

 Free energy of the ion-electron system (eV)
  ---------------------------------------------------
  alpha Z        PSCENC =       180.38090441
  Ewald energy   TEWEN  =     -7816.47850740
  -Hartree energ DENC   =     -4118.40272098
  -exchange      EXHF   =       387.39960428
  -V(xc)+E(xc)   XCENC  =       138.68717257
  PAW double counting   =     17394.44747557   -17060.52617879
  entropy T*S    EENTRO =        -0.00000000
  eigenvalues    EBANDS =     -1683.31177958
  atomic energy  EATOM  =     12339.77072949
  Solvation  Ediel_sol  =         0.00000000
  ---------------------------------------------------
  free energy    TOTEN  =      -238.03330043 eV

  energy without entropy =     -238.03330043  energy(sigma->0) =     -238.03330043
  exchange ACFDT corr.  =         0.00000000  see jH, gK, PRB 81, 115126


--------------------------------------------------------------------------------------------------------




--------------------------------------- Iteration      1(  13)  ---------------------------------------


    POTLOK:  cpu time      0.2089: real time      0.2267
    SETDIJ:  cpu time      0.9996: real time      1.0019
     EDDAV:  cpu time      2.3656: real time      2.3823
       DOS:  cpu time      0.0003: real time      0.0003
    CHARGE:  cpu time      0.0463: real time      0.0464
    MIXING:  cpu time      0.0008: real time      0.0008
    --------------------------------------------
      LOOP:  cpu time      3.6215: real time      3.6584

 eigenvalue-minimisations  :   660
 total energy-change (2. order) :-0.1151707E-02  (-0.6069615E-03)
 number of electron     199.9999994 magnetization      -0.2902376
 augmentation part        4.7092620 magnetization      -0.2880066

 Free energy of the ion-electron system (eV)
  ---------------------------------------------------
  alpha Z        PSCENC =       180.38090441
  Ewald energy   TEWEN  =     -7816.47850740
  -Hartree energ DENC   =     -4119.27721593
  -exchange      EXHF   =       387.38759239
  -V(xc)+E(xc)   XCENC  =       138.80408481
  PAW double counting   =     17494.60169865   -17160.73366073
  entropy T*S    EENTRO =        -0.00000000
  eigenvalues    EBANDS =     -1682.49007783
  atomic energy  EATOM  =     12339.77072949
  Solvation  Ediel_sol  =         0.00000000
  ---------------------------------------------------
  free energy    TOTEN  =      -238.03445214 eV

  energy without entropy =     -238.03445214  energy(sigma->0) =     -238.03445214
  exchange ACFDT corr.  =         0.00000000  see jH, gK, PRB 81, 115126


--------------------------------------------------------------------------------------------------------




--------------------------------------- Iteration      1(  14)  ---------------------------------------


    POTLOK:  cpu time      0.2108: real time      0.2265
    SETDIJ:  cpu time      1.0004: real time      1.0027
     EDDAV:  cpu time      2.6405: real time      2.6578
       DOS:  cpu time      0.0002: real time      0.0002
    CHARGE:  cpu time      0.0496: real time      0.0497
    MIXING:  cpu time      0.0015: real time      0.0015
    --------------------------------------------
      LOOP:  cpu time      3.9030: real time      3.9385

 eigenvalue-minimisations  :   696
 total energy-change (2. order) :-0.6116057E-03  (-0.2272351E-03)
 number of electron     199.9999994 magnetization       0.1741426
 augmentation part        4.7065854 magnetization       0.1728703

 Free energy of the ion-electron system (eV)
  ---------------------------------------------------
  alpha Z        PSCENC =       180.38090441
  Ewald energy   TEWEN  =     -7816.47850740
  -Hartree energ DENC   =     -4119.77512697
  -exchange      EXHF   =       387.36607248
  -V(xc)+E(xc)   XCENC  =       138.87361809
  PAW double counting   =     17546.04049360   -17212.21352480
  entropy T*S    EENTRO =        -0.00000000
  eigenvalues    EBANDS =     -1681.99972264
  atomic energy  EATOM  =     12339.77072949
  Solvation  Ediel_sol  =         0.00000000
  ---------------------------------------------------
  free energy    TOTEN  =      -238.03506375 eV

  energy without entropy =     -238.03506375  energy(sigma->0) =     -238.03506375
  exchange ACFDT corr.  =         0.00000000  see jH, gK, PRB 81, 115126


--------------------------------------------------------------------------------------------------------




--------------------------------------- Iteration      1(  15)  ---------------------------------------


    POTLOK:  cpu time      0.2658: real time      0.2834
    SETDIJ:  cpu time      1.0384: real time      1.0408
     EDDAV:  cpu time      2.6308: real time      2.6481
       DOS:  cpu time      0.0003: real time      0.0003
    CHARGE:  cpu time      0.0479: real time      0.0481
    MIXING:  cpu time      0.0017: real time      0.0017
    --------------------------------------------
      LOOP:  cpu time      3.9848: real time      4.0223

 eigenvalue-minimisations  :   684
 total energy-change (2. order) :-0.3309833E-03  (-0.8701297E-04)
 number of electron     199.9999994 magnetization      -0.1044856
 augmentation part        4.7054396 magnetization      -0.1037408

 Free energy of the ion-electron system (eV)
  ---------------------------------------------------
  alpha Z        PSCENC =       180.38090441
  Ewald energy   TEWEN  =     -7816.47850740
  -Hartree energ DENC   =     -4120.05202066
  -exchange      EXHF   =       387.35063169
  -V(xc)+E(xc)   XCENC  =       138.91462898
  PAW double counting   =     17572.16961863   -17238.37247931
  entropy T*S    EENTRO =        -0.00000000
  eigenvalues    EBANDS =     -1681.71890056
  atomic energy  EATOM  =     12339.77072949
  Solvation  Ediel_sol  =         0.00000000
  ---------------------------------------------------
  free energy    TOTEN  =      -238.03539473 eV

  energy without entropy =     -238.03539473  energy(sigma->0) =     -238.03539473
  exchange ACFDT corr.  =         0.00000000  see jH, gK, PRB 81, 115126


--------------------------------------------------------------------------------------------------------




--------------------------------------- Iteration      1(  16)  ---------------------------------------


    POTLOK:  cpu time      0.2345: real time      0.2536
    SETDIJ:  cpu time      1.0155: real time      1.0179
     EDDAV:  cpu time      2.3659: real time      2.3825
       DOS:  cpu time      0.0003: real time      0.0003
    CHARGE:  cpu time      0.0450: real time      0.0451
    MIXING:  cpu time      0.0007: real time      0.0007
    --------------------------------------------
      LOOP:  cpu time      3.6619: real time      3.7001

 eigenvalue-minimisations  :   660
 total energy-change (2. order) :-0.1733305E-03  (-0.3328010E-04)
 number of electron     199.9999994 magnetization       0.0626913
[...]
   17        0.000  -0.000   0.000   0.000
   18        0.000  -0.000   0.000   0.000
   19        0.000  -0.000   0.000   0.000
   20        0.000  -0.000   0.000   0.000
   21       -0.000  -0.000   0.000  -0.000
   22       -0.000  -0.000   0.000  -0.000
   23       -0.000  -0.000   0.000  -0.000
   24       -0.000  -0.000   0.000  -0.000
   25       -0.000   0.000  -0.000  -0.000
   26       -0.000   0.000  -0.000  -0.000
   27       -0.000   0.000  -0.000  -0.000
   28       -0.000   0.000  -0.000  -0.000
   29       -0.000  -0.000   0.000  -0.000
   30       -0.000  -0.000   0.000  -0.000
   31       -0.000  -0.000   0.000  -0.000
   32       -0.000  -0.000   0.000  -0.000
   33        0.000  -0.000   0.000  -0.000
   34        0.000  -0.000   0.000  -0.000
   35        0.000  -0.000   0.000  -0.000
   36        0.000  -0.000   0.000  -0.000
   37        0.000  -0.000   0.000  -0.000
   38        0.000  -0.000   0.000  -0.000
   39        0.000  -0.000   0.000  -0.000
   40        0.000  -0.000   0.000  -0.000
   41        0.000  -0.000   0.000  -0.000
   42        0.000  -0.000   0.000  -0.000
   43        0.000  -0.000   0.000  -0.000
   44        0.000  -0.000   0.000  -0.000
   45       -0.000   0.000   0.000   0.000
   46       -0.000   0.000   0.000   0.000
   47       -0.000   0.000   0.000   0.000
   48       -0.000   0.000   0.000   0.000
--------------------------------------------------
tot         -0.000  -0.000  -0.000  -0.000
 
    CHARGE:  cpu time      0.0500: real time      0.0502
    FORLOC:  cpu time      0.0083: real time      0.0083
    FORHF :  cpu time      1.4935: real time      1.4971
    FORNL :  cpu time      0.2190: real time      0.2200
    FORCOR:  cpu time      1.2245: real time      1.2274
    FORHAR:  cpu time      0.0202: real time      0.0204
    MIXING:  cpu time      0.0007: real time      0.0007
    OFIELD:  cpu time      0.0008: real time      0.0009

 VOLUME and BASIS-vectors are now :
 -----------------------------------------------------------------------------
  energy-cutoff  :      680.00
  volume of cell :     1024.21
      direct lattice vectors                 reciprocal lattice vectors
     8.919519000  0.000000000  0.000000000     0.112113669  0.000000000  0.000000000
    -0.000000000  9.012627000  0.000000000     0.000000000  0.110955441  0.000000000
     0.000000000  0.000000000 12.740755000    -0.000000000 -0.000000000  0.078488284

  length of vectors
     8.919519000  9.012627000 12.740755000     0.112113669  0.110955441  0.078488284


 FORCES acting on ions
    electron-ion (+dipol)            ewald-force                    non-local-force                 convergence-correction
 -----------------------------------------------------------------------------------------------
   0.310E+02 0.101E+02 -.385E+02   -.343E+02 -.106E+02 0.432E+02   0.326E+01 0.529E+00 -.467E+01   0.151E-03 0.302E-03 -.250E-03
   -.310E+02 -.101E+02 0.385E+02   0.343E+02 0.106E+02 -.432E+02   -.326E+01 -.529E+00 0.467E+01   -.148E-03 -.303E-03 0.237E-03
   0.310E+02 -.101E+02 0.385E+02   -.343E+02 0.106E+02 -.432E+02   0.326E+01 -.529E+00 0.467E+01   0.150E-03 -.296E-03 0.235E-03
   -.310E+02 0.101E+02 -.385E+02   0.343E+02 -.106E+02 0.432E+02   -.326E+01 0.529E+00 -.467E+01   -.148E-03 0.298E-03 -.242E-03
   -.310E+02 -.101E+02 -.385E+02   0.343E+02 0.106E+02 0.432E+02   -.326E+01 -.529E+00 -.467E+01   -.149E-03 -.302E-03 -.231E-03
   0.310E+02 0.101E+02 0.385E+02   -.343E+02 -.106E+02 -.432E+02   0.326E+01 0.529E+00 0.467E+01   0.151E-03 0.301E-03 0.245E-03
   -.310E+02 0.101E+02 0.385E+02   0.343E+02 -.106E+02 -.432E+02   -.326E+01 0.529E+00 0.467E+01   -.148E-03 0.297E-03 0.240E-03
   0.310E+02 -.101E+02 -.385E+02   -.343E+02 0.106E+02 0.432E+02   0.326E+01 -.529E+00 -.467E+01   0.149E-03 -.295E-03 -.230E-03
   -.404E+02 -.111E+02 -.543E+02   0.446E+02 0.119E+02 0.601E+02   -.422E+01 -.751E+00 -.579E+01   0.236E-03 0.294E-03 -.404E-03
   0.404E+02 0.111E+02 0.543E+02   -.446E+02 -.119E+02 -.601E+02   0.422E+01 0.751E+00 0.579E+01   -.240E-03 -.297E-03 0.392E-03
   -.404E+02 0.111E+02 0.543E+02   0.446E+02 -.119E+02 -.601E+02   -.422E+01 0.751E+00 0.579E+01   0.239E-03 -.302E-03 0.391E-03
   0.404E+02 -.111E+02 -.543E+02   -.446E+02 0.119E+02 0.601E+02   0.422E+01 -.751E+00 -.579E+01   -.241E-03 0.302E-03 -.400E-03
   0.404E+02 0.111E+02 -.543E+02   -.446E+02 -.119E+02 0.601E+02   0.422E+01 0.751E+00 -.579E+01   -.240E-03 -.297E-03 -.387E-03
   -.404E+02 -.111E+02 0.543E+02   0.446E+02 0.119E+02 -.601E+02   -.422E+01 -.751E+00 0.579E+01   0.236E-03 0.294E-03 0.400E-03
   0.404E+02 -.111E+02 0.543E+02   -.446E+02 0.119E+02 -.601E+02   0.422E+01 -.751E+00 0.579E+01   -.240E-03 0.303E-03 0.398E-03
   -.404E+02 0.111E+02 -.543E+02   0.446E+02 -.119E+02 0.601E+02   -.422E+01 0.751E+00 -.579E+01   0.239E-03 -.302E-03 -.389E-03
   -.302E+02 0.405E+02 0.161E-05   0.341E+02 -.447E+02 0.140E-14   -.386E+01 0.420E+01 0.630E-16   0.491E-03 0.172E-03 -.252E-05
   0.302E+02 -.405E+02 -.490E-05   -.341E+02 0.447E+02 -.473E-15   0.386E+01 -.420E+01 -.630E-16   -.495E-03 -.171E-03 0.512E-05
   -.302E+02 -.405E+02 -.173E-05   0.341E+02 0.447E+02 0.764E-14   -.386E+01 -.420E+01 -.496E-15   0.492E-03 -.163E-03 0.242E-05
   0.302E+02 0.405E+02 0.185E-05   -.341E+02 -.447E+02 -.718E-14   0.386E+01 0.420E+01 0.496E-15   -.492E-03 0.163E-03 -.190E-05
   0.424E+02 -.523E+02 0.173E-05   -.470E+02 0.577E+02 0.730E-14   0.458E+01 -.546E+01 -.107E-15   0.510E-03 -.673E-05 -.208E-05
   -.424E+02 0.523E+02 -.238E-05   0.470E+02 -.577E+02 -.202E-14   -.458E+01 0.546E+01 0.107E-15   -.507E-03 0.120E-05 0.298E-05
   0.424E+02 0.523E+02 -.114E-05   -.470E+02 -.577E+02 -.931E-14   0.458E+01 0.546E+01 0.620E-15   0.510E-03 -.571E-05 0.151E-05
   -.424E+02 -.523E+02 0.169E-05   0.470E+02 0.577E+02 0.398E-14   -.458E+01 -.546E+01 -.620E-15   -.509E-03 0.502E-05 -.207E-05
   -.166E-04 -.125E-04 -.104E-03   -.249E-13 0.178E-13 -.107E-13   0.665E-22 -.295E-24 -.132E-21   0.962E-05 0.618E-05 0.107E-03
   0.350E-05 0.234E-05 -.124E-03   -.564E-13 0.533E-14 -.391E-13   -.118E-21 -.149E-22 -.247E-21   -.127E-05 -.234E-05 0.117E-03
   0.136E-04 -.293E-06 0.103E-03   -.355E-13 0.138E-13 0.355E-14   -.676E-22 -.421E-22 -.618E-22   -.147E-04 0.279E-05 -.956E-04
   0.384E-06 -.887E-06 0.129E-03   -.426E-13 0.266E-13 0.711E-14   0.532E-22 0.830E-23 0.210E-21   -.502E-07 0.360E-05 -.121E-03
   -.422E+02 0.726E+02 0.581E-05   0.459E+02 -.799E+02 0.428E-14   -.352E+01 0.694E+01 0.265E-15   -.167E-02 0.205E-02 -.678E-05
   0.422E+02 -.726E+02 -.293E-05   -.459E+02 0.799E+02 0.336E-14   0.352E+01 -.694E+01 -.265E-15   0.167E-02 -.205E-02 0.887E-05
   -.422E+02 -.726E+02 -.144E-04   0.459E+02 0.799E+02 0.116E-14   -.352E+01 -.694E+01 -.659E-15   -.167E-02 -.206E-02 0.160E-04
   0.422E+02 0.726E+02 0.743E-05   -.459E+02 -.799E+02 -.433E-14   0.352E+01 0.694E+01 0.659E-15   0.167E-02 0.206E-02 -.989E-05
   0.111E+02 0.136E+02 -.567E+01   -.123E+02 -.149E+02 0.616E+01   0.939E+00 0.912E+00 -.336E+00   -.355E-03 -.159E-03 -.272E-03
   -.111E+02 -.136E+02 0.567E+01   0.123E+02 0.149E+02 -.616E+01   -.939E+00 -.912E+00 0.336E+00   0.364E-03 0.162E-03 0.387E-03
   0.111E+02 -.136E+02 0.567E+01   -.123E+02 0.149E+02 -.616E+01   0.939E+00 -.912E+00 0.336E+00   -.368E-03 0.196E-03 0.388E-03
   -.111E+02 0.136E+02 -.567E+01   0.123E+02 -.149E+02 0.616E+01   -.939E+00 0.912E+00 -.336E+00   0.374E-03 -.202E-03 -.274E-03
   -.111E+02 -.136E+02 -.567E+01   0.123E+02 0.149E+02 0.616E+01   -.939E+00 -.912E+00 -.336E+00   0.371E-03 0.166E-03 -.385E-03
   0.111E+02 0.136E+02 0.567E+01   -.123E+02 -.149E+02 -.616E+01   0.939E+00 0.912E+00 0.336E+00   -.359E-03 -.168E-03 0.269E-03
   -.111E+02 0.136E+02 0.567E+01   0.123E+02 -.149E+02 -.616E+01   -.939E+00 0.912E+00 0.336E+00   0.368E-03 -.196E-03 0.264E-03
   0.111E+02 -.136E+02 -.567E+01   -.123E+02 0.149E+02 0.616E+01   0.939E+00 -.912E+00 -.336E+00   -.371E-03 0.199E-03 -.391E-03
   0.424E+01 -.237E+01 0.107E-04   -.525E+01 0.197E+01 0.720E-14   0.820E+00 0.318E+00 0.671E-16   -.203E-02 -.746E-03 -.110E-04
   -.424E+01 0.237E+01 -.137E-04   0.525E+01 -.197E+01 -.337E-14   -.820E+00 -.318E+00 -.671E-16   0.203E-02 0.746E-03 0.167E-04
   0.424E+01 0.237E+01 -.173E-04   -.525E+01 -.197E+01 0.216E-13   0.820E+00 -.318E+00 0.248E-16   -.204E-02 0.752E-03 0.179E-04
   -.424E+01 -.237E+01 0.679E-05   0.525E+01 0.197E+01 0.206E-13   -.820E+00 0.318E+00 -.248E-16   0.202E-02 -.742E-03 -.108E-04
   -.261E+02 0.525E+02 -.483E-05   0.241E+02 -.503E+02 0.351E-14   0.189E+01 -.208E+01 -.320E-16   0.263E-02 -.262E-02 0.670E-05
   0.261E+02 -.525E+02 0.593E-05   -.241E+02 0.503E+02 0.178E-13   -.189E+01 0.208E+01 0.320E-16   -.263E-02 0.262E-02 -.623E-05
   -.261E+02 -.525E+02 0.897E-05   0.241E+02 0.503E+02 0.430E-14   0.189E+01 0.208E+01 0.244E-15   0.262E-02 0.258E-02 -.104E-04
   0.261E+02 0.525E+02 -.132E-04   -.241E+02 -.503E+02 0.100E-13   -.189E+01 -.208E+01 -.244E-15   -.263E-02 -.260E-02 0.138E-04
 -----------------------------------------------------------------------------------------------
   0.171E-04 -.214E-05 -.130E-04   -.462E-13 -.142E-13 0.133E-13   -.222E-15 0.178E-14 -.475E-22   -.412E-05 -.771E-05 0.259E-04
 
 
 POSITION                                       TOTAL-FORCE (eV/Angst)
 -----------------------------------------------------------------------------------
      3.46441      3.70128      4.08648         0.145867      0.048676     -0.207023
      5.45511      5.31135      8.65427        -0.145867     -0.048676      0.207023
      7.92417      0.80503      8.65427         0.145867     -0.048676      0.207023
      0.99535      8.20759      4.08648        -0.145867      0.048676     -0.207023
      5.45511      5.31135     10.45686        -0.145867     -0.048676     -0.207023
      3.46441      3.70128      2.28390         0.145867      0.048676      0.207023
      0.99535      8.20759      2.28390        -0.145867      0.048676      0.207023
      7.92417      0.80503     10.45686         0.145867     -0.048676     -0.207023
      5.37455      5.20725      4.01452        -0.218990     -0.057827     -0.300997
      3.54496      3.80537      8.72623         0.218990      0.057827      0.300997
      0.91479      8.31169      8.72623        -0.218990      0.057827      0.300997
      8.00472      0.70094      4.01452         0.218990     -0.057827     -0.300997
      3.54496      3.80537     10.38490         0.218990      0.057827     -0.300997
      5.37455      5.20725      2.35585        -0.218990     -0.057827      0.300997
      8.00472      0.70094      2.35585         0.218990     -0.057827      0.300997
      0.91479      8.31169     10.38490        -0.218990      0.057827     -0.300997
      4.84490      2.99016      3.18519        -0.147360      0.141817      0.000000
      4.07461      6.02246      9.55557         0.147360     -0.141817     -0.000000
      0.38514      1.51615      9.55557        -0.147360     -0.141817     -0.000000
      8.53437      7.49648      3.18519         0.147360      0.141817      0.000000
      4.10432      5.89148      3.18519         0.243247     -0.235535     -0.000000
      4.81520      3.12114      9.55557        -0.243247      0.235535      0.000000
      8.56408      7.62746      9.55557         0.243247      0.235535      0.000000
      0.35544      1.38517      3.18519        -0.243247     -0.235535     -0.000000
     -0.00000      4.50631      0.00000         0.000000     -0.000000     -0.000000
      4.45976      0.00000      0.00000         0.000000     -0.000000      0.000000
     -0.00000      4.50631      6.37038         0.000000     -0.000000     -0.000000
      4.45976      0.00000      6.37038         0.000000     -0.000000      0.000000
      0.37846      8.28006      3.18519        -0.029065      0.071592      0.000000
      8.54105      0.73256      9.55557         0.029065     -0.071592     -0.000000
      4.83822      5.23888      9.55557        -0.029065     -0.071592     -0.000000
      4.08130      3.77375      3.18519         0.029065      0.071592      0.000000
      1.75891      1.79030      0.23429        -0.194431     -0.214070      0.113059
      7.16061      7.22232     12.50647         0.194431      0.214070     -0.113059
      6.21867      2.71601     12.50647        -0.194431      0.214070     -0.113059
      2.70085      6.29662      0.23429         0.194431     -0.214070      0.113059
      7.16061      7.22232      6.60467         0.194431      0.214070      0.113059
      1.75891      1.79030      6.13609        -0.194431     -0.214070     -0.113059
      2.70085      6.29662      6.13609         0.194431     -0.214070     -0.113059
      6.21867      2.71601      6.60467        -0.194431      0.214070      0.113059
      8.40278      4.30933      3.18519        -0.112546     -0.048419     -0.000000
      0.51673      4.70329      9.55557         0.112546      0.048419      0.000000
      3.94303      0.19698      9.55557        -0.112546      0.048419     -0.000000
      4.97649      8.81565      3.18519         0.112546     -0.048419      0.000000
      0.31109      8.41846      9.55557         0.095743     -0.057255      0.000000
      8.60843      0.59417      3.18519        -0.095743      0.057255     -0.000000
      4.77085      5.10048      3.18519         0.095743      0.057255      0.000000
      4.14867      3.91215      9.55557        -0.095743     -0.057255     -0.000000
 -----------------------------------------------------------------------------------
    total drift:                                0.000013     -0.000010      0.000013


--------------------------------------------------------------------------------------------------------



  FREE ENERGIE OF THE ION-ELECTRON SYSTEM (eV)
  ---------------------------------------------------
  free  energy   TOTEN  =      -238.03573503 eV

  energy  without entropy=     -238.03573503  energy(sigma->0) =     -238.03573503
 


--------------------------------------------------------------------------------------------------------


    POTLOK:  cpu time      1.2370: real time      1.2402


--------------------------------------------------------------------------------------------------------


 writing wavefunctions
     LOOP+:  cpu time     79.9563: real time     82.2073
    4ORBIT:  cpu time      0.0000: real time      0.0000



 total charge

# of ion       s       p       d       tot
------------------------------------------
    1        0.638   0.049   0.000   0.688
    2        0.638   0.049   0.000   0.688
    3        0.638   0.049   0.000   0.688
    4        0.638   0.049   0.000   0.688
    5        0.638   0.049   0.000   0.688
    6        0.638   0.049   0.000   0.688
    7        0.638   0.049   0.000   0.688
    8        0.638   0.049   0.000   0.688
    9        0.613   0.083   0.000   0.697
   10        0.613   0.083   0.000   0.697
   11        0.613   0.083   0.000   0.697
   12        0.613   0.083   0.000   0.697
   13        0.613   0.083   0.000   0.697
   14        0.613   0.083   0.000   0.697
   15        0.613   0.083   0.000   0.697
   16        0.613   0.083   0.000   0.697
   17        0.639   0.050   0.000   0.688
   18        0.639   0.050   0.000   0.688
   19        0.639   0.050   0.000   0.688
   20        0.639   0.050   0.000   0.688
   21        0.606   0.084   0.000   0.690
   22        0.606   0.084   0.000   0.690
   23        0.606   0.084   0.000   0.690
   24        0.606   0.084   0.000   0.690
   25        1.554   0.369   9.849  11.772
   26        1.554   0.369   9.849  11.772
   27        1.554   0.369   9.849  11.772
   28        1.554   0.369   9.849  11.772
   29        0.846   1.759   0.000   2.606
   30        0.846   1.759   0.000   2.606
   31        0.846   1.759   0.000   2.606
   32        0.846   1.759   0.000   2.606
   33        1.495   2.914   0.004   4.413
   34        1.495   2.914   0.004   4.413
   35        1.495   2.914   0.004   4.413
   36        1.495   2.914   0.004   4.413
   37        1.495   2.914   0.004   4.413
   38        1.495   2.914   0.004   4.413
   39        1.495   2.914   0.004   4.413
   40        1.495   2.914   0.004   4.413
   41        1.499   2.903   0.005   4.406
   42        1.499   2.903   0.005   4.406
   43        1.499   2.903   0.005   4.406
   44        1.499   2.903   0.005   4.406
   45        1.224   2.774   0.000   3.998
   46        1.224   2.774   0.000   3.998
   47        1.224   2.774   0.000   3.998
   48        1.224   2.774   0.000   3.998
--------------------------------------------------
tot         47.447  56.132  39.442 143.021



 magnetization (x)

# of ion       s       p       d       tot
------------------------------------------
    1       -0.000  -0.000   0.000  -0.000
    2       -0.000  -0.000   0.000  -0.000
    3       -0.000  -0.000   0.000  -0.000
    4       -0.000  -0.000   0.000  -0.000
    5       -0.000  -0.000   0.000  -0.000
    6       -0.000  -0.000   0.000  -0.000
    7       -0.000  -0.000   0.000  -0.000
    8       -0.000  -0.000   0.000  -0.000
    9       -0.000   0.000   0.000  -0.000
   10       -0.000   0.000   0.000  -0.000
   11       -0.000   0.000   0.000  -0.000
   12       -0.000   0.000   0.000  -0.000
   13       -0.000   0.000   0.000  -0.000
   14       -0.000   0.000   0.000  -0.000
   15       -0.000   0.000   0.000  -0.000
   16       -0.000   0.000   0.000  -0.000
   17        0.000  -0.000   0.000   0.000
   18        0.000  -0.000   0.000   0.000
   19        0.000  -0.000   0.000   0.000
   20        0.000  -0.000   0.000   0.000
   21       -0.000  -0.000   0.000  -0.000
   22       -0.000  -0.000   0.000  -0.000
   23       -0.000  -0.000   0.000  -0.000
   24       -0.000  -0.000   0.000  -0.000
   25       -0.000   0.000  -0.000  -0.000
   26       -0.000   0.000  -0.000  -0.000
   27       -0.000   0.000  -0.000  -0.000
   28       -0.000   0.000  -0.000  -0.000
   29       -0.000  -0.000   0.000  -0.000
   30       -0.000  -0.000   0.000  -0.000
   31       -0.000  -0.000   0.000  -0.000
   32       -0.000  -0.000   0.000  -0.000
   33        0.000  -0.000   0.000  -0.000
   34        0.000  -0.000   0.000  -0.000
   35        0.000  -0.000   0.000  -0.000
   36        0.000  -0.000   0.000  -0.000
   37        0.000  -0.000   0.000  -0.000
   38        0.000  -0.000   0.000  -0.000
   39        0.000  -0.000   0.000  -0.000
   40        0.000  -0.000   0.000  -0.000
   41        0.000  -0.000   0.000  -0.000
   42        0.000  -0.000   0.000  -0.000
   43        0.000  -0.000   0.000  -0.000
   44        0.000  -0.000   0.000  -0.000
   45       -0.000   0.000   0.000   0.000
   46       -0.000   0.000   0.000   0.000
   47       -0.000   0.000   0.000   0.000
   48       -0.000   0.000   0.000   0.000
--------------------------------------------------
tot         -0.000  -0.000  -0.000  -0.000
 

 total amount of memory used by VASP MPI-rank0    88283. kBytes
=======================================================================

   base      :      30000. kBytes
   nonl-proj :       6160. kBytes
   fftplans  :       4762. kBytes
   grid      :      12794. kBytes
   one-center:        155. kBytes
   HF        :        194. kBytes
   nonlr-proj:       5654. kBytes
   wavefun   :       1612. kBytes
   fock_wrk  :      26952. kBytes
 
  
  
 General timing and accounting informations for this job:
 ========================================================
  
                  Total CPU time used (sec):      136.774
                            User time (sec):      120.076
                          System time (sec):       16.698
                         Elapsed time (sec):      141.300
  
                   Maximum memory used (kb):      395420.
                   Average memory used (kb):          N/A
  
                          Minor page faults:       179000
                          Major page faults:            0
                 Voluntary context switches:         3366
