 vasp.6.4.2 20Jul23 (build Mar 15 2024 16:31:38) complex                        
  
 executed on             LinuxIFC date 2025.03.04  17:06:18
 running  120 mpi-ranks, on    3 nodes
 distrk:  each k-point on  120 cores,    1 groups
 distr:  one band on NCORE=  10 cores,   12 groups


--------------------------------------------------------------------------------------------------------


 INCAR:
   ALGO = Fast
   EDIFF = 1e-05
   ENAUG = 1360
   ENCUT = 680
   GGA = Ps
   ICHARG = 11
   ISMEAR = 0
   ISPIN = 1
   ISYM = 0
   LAECHG = True
   LASPH = True
   LCHARG = False
   LELF = False
   LMAXMIX = 4
   LMIXTAU = True
   LORBIT = 11
   LREAL = False
   LVTOT = True
   LWAVE = False
   NBANDS = 144
   NCORE = 10
   NELM = 200
   NSW = 0
   PREC = Accurate
   SIGMA = 0.01

 POTCAR:    PAW_PBE Ga_d 06Jul2010                
 POTCAR:    PAW_PBE As 22Sep2009                  
 WARNING: For LVTOT=.TRUE., VASP.5.x writes the TOTAL local potential to the
     file LOCPOT. If you want only the Hartree contributions, use LVHAR=.TRUE.
     instead. 

 POTCAR:    PAW_PBE Ga_d 06Jul2010                
   VRHFIN =Ga: s2p1                                                                                 
   LEXCH  = PE                                                                                      
   EATOM  =  2148.8298 eV,  157.9345 Ry                                                             
                                                                                                    
   TITEL  = PAW_PBE Ga_d 06Jul2010                                                                  
   LULTRA =        F    use ultrasoft PP ?                                                          
   IUNSCR =        1    unscreen: 0-lin 1-nonlin 2-no                                               
   RPACOR =    1.700    partial core radius                                                         
   POMASS =   69.723; ZVAL   =   13.000    mass and valenz                                          
   RCORE  =    2.300    outmost cutoff radius                                                       
   RWIGS  =    2.300; RWIGS  =    1.217    wigner-seitz radius (au A)                               
   ENMAX  =  282.691; ENMIN  =  212.018 eV                                                          
   ICORE  =        3    local potential                                                             
   LCOR   =        T    correct aug charges                                                         
   LPAW   =        T    paw PP                                                                      
   EAUG   =  490.690                                                                                
   DEXC   =    0.000                                                                                
   RMAX   =    2.341    core radius for proj-oper                                                   
   RAUG   =    1.300    factor for augmentation sphere                                              
   RDEP   =    2.413    radius for radial grids                                                     
   RDEPT  =    1.856    core radius for aug-charge                                                  
                                                                                                    
   Atomic configuration                                                                             
    9 entries                                                                                       
     n  l   j            E        occ.                                                              
     1  0  0.50    -10228.7831   2.0000                                                             
     2  0  0.50     -1262.1604   2.0000                                                             
     2  1  1.50     -1098.6333   6.0000                                                             
     3  0  0.50      -148.1110   2.0000                                                             
     3  1  1.50       -98.8436   6.0000                                                             
     3  2  2.50       -19.1549  10.0000                                                             
     4  0  0.50        -8.9483   2.0000                                                             
     4  1  0.50        -2.5791   1.0000                                                             
     4  3  2.50        -2.7416   0.0000                                                             
   Description                                                                                      
     l       E           TYP  RCUT    TYP  RCUT                                                     
     2    -19.1549037     23  2.300                                                                 
     2     -5.4423304     23  2.300                                                                 
     0     -8.9483111     23  2.300                                                                 
     0     68.0291300     23  2.300                                                                 
     1     -2.5790802     23  2.100                                                                 
     1     81.6349560     23  2.300                                                                 
     3      6.8029130     23  2.300                                                                 
  local pseudopotential read in
  partial core-charges read in
  partial kinetic energy density read in
  atomic valenz-charges read in
  non local Contribution for L=           2  read in
    real space projection operators read in
  non local Contribution for L=           2  read in
    real space projection operators read in
  non local Contribution for L=           0  read in
    real space projection operators read in
  non local Contribution for L=           0  read in
    real space projection operators read in
  non local Contribution for L=           1  read in
    real space projection operators read in
  non local Contribution for L=           1  read in
    real space projection operators read in
    PAW grid and wavefunctions read in
 
   number of l-projection  operators is LMAX  =           6
   number of lm-projection operators is LMMAX =          18
 
 POTCAR:    PAW_PBE As 22Sep2009                  
   VRHFIN =As: s2p3                                                                                 
   LEXCH  = PE                                                                                      
   EATOM  =   170.1867 eV,   12.5084 Ry                                                             
                                                                                                    
   TITEL  = PAW_PBE As 22Sep2009                                                                    
   LULTRA =        F    use ultrasoft PP ?                                                          
   IUNSCR =        1    unscreen: 0-lin 1-nonlin 2-no                                               
   RPACOR =    1.900    partial core radius                                                         
   POMASS =   74.922; ZVAL   =    5.000    mass and valenz                                          
   RCORE  =    2.100    outmost cutoff radius                                                       
   RWIGS  =    2.300; RWIGS  =    1.217    wigner-seitz radius (au A)                               
   ENMAX  =  208.702; ENMIN  =  156.526 eV                                                          
   ICORE  =        3    local potential                                                             
   LCOR   =        T    correct aug charges                                                         
   LPAW   =        T    paw PP                                                                      
   EAUG   =  462.758                                                                                
   DEXC   =    0.000                                                                                
   RMAX   =    2.144    core radius for proj-oper                                                   
   RAUG   =    1.300    factor for augmentation sphere                                              
   RDEP   =    2.140    radius for radial grids                                                     
   RDEPT  =    1.956    core radius for aug-charge                                                  
                                                                                                    
   Atomic configuration                                                                             
   10 entries                                                                                       
     n  l   j            E        occ.                                                              
     1  0  0.50    -11718.0418   2.0000                                                             
     2  0  0.50     -1486.5454   2.0000                                                             
     2  1  1.50     -1303.3889   6.0000                                                             
     3  0  0.50      -190.2849   2.0000                                                             
     3  1  1.50      -133.6555   6.0000                                                             
     3  2  2.50       -40.6443  10.0000                                                             
     4  0  0.50       -14.4936   2.0000                                                             
     4  1  0.50        -5.1947   3.0000                                                             
     4  2  1.50        -5.4423   0.0000                                                             
     4  3  2.50        -5.4423   0.0000                                                             
   Description                                                                                      
     l       E           TYP  RCUT    TYP  RCUT                                                     
     0    -14.4935570     23  2.100                                                                 
     0    -11.9212055     23  2.100                                                                 
     1     -5.1947127     23  2.100                                                                 
     1     27.2116520     23  2.100                                                                 
     2     -5.4423304     23  2.100                                                                 
     3     -1.3605826      7  2.100                                                                 
  local pseudopotential read in
  partial core-charges read in
  partial kinetic energy density read in
  atomic valenz-charges read in
  non local Contribution for L=           0  read in
    real space projection operators read in
  non local Contribution for L=           0  read in
    real space projection operators read in
  non local Contribution for L=           1  read in
    real space projection operators read in
  non local Contribution for L=           1  read in
    real space projection operators read in
  non local Contribution for L=           2  read in
    real space projection operators read in
    PAW grid and wavefunctions read in
 
   number of l-projection  operators is LMAX  =           5
   number of lm-projection operators is LMMAX =          13
 
 -----------------------------------------------------------------------------
|                                                                             |
|               ----> ADVICE to this user running VASP <----                  |
|                                                                             |
|     You enforced a specific xc type in the INCAR file but a different       |
|     type was found in the POTCAR file.                                      |
|     I HOPE YOU KNOW WHAT YOU ARE DOING!                                     |
|                                                                             |
 -----------------------------------------------------------------------------

  PAW_PBE Ga_d 06Jul2010                :
 energy of atom  1       EATOM=-2148.8298
 kinetic energy error for atom=    0.0008 (will be added to EATOM!!)
  PAW_PBE As 22Sep2009                  :
 energy of atom  2       EATOM= -170.1867
 kinetic energy error for atom=    0.0003 (will be added to EATOM!!)
 
 
 POSCAR: Ga4 As4
  positions in direct lattice
  No initial velocities read in
 exchange correlation table for  LEXCH =       14
   RHO(1)=    0.500       N(1)  =     2000
   RHO(2)=  100.500       N(2)  =     4000
 


--------------------------------------------------------------------------------------------------------


 ion  position               nearest neighbor table
   1  0.000  0.000  0.000-   5 2.45   6 2.45   7 2.45   8 2.45
   2  0.500  0.500  0.000-   5 2.45   6 2.45   7 2.45   8 2.45
   3  0.500  0.000  0.500-   5 2.45   6 2.45   7 2.45   8 2.45
   4  0.000  0.500  0.500-   5 2.45   6 2.45   7 2.45   8 2.45
   5  0.250  0.250  0.250-   1 2.45   2 2.45   3 2.45   4 2.45
   6  0.250  0.750  0.750-   1 2.45   2 2.45   3 2.45   4 2.45
   7  0.750  0.750  0.250-   1 2.45   2 2.45   3 2.45   4 2.45
   8  0.750  0.250  0.750-   1 2.45   2 2.45   3 2.45   4 2.45
 

IMPORTANT INFORMATION: All symmetrisations will be switched off!
NOSYMM: (Re-)initialisation of all symmetry stuff for point group C_1.


----------------------------------------------------------------------------------------

                                     Primitive cell                                     

  volume of cell :     181.5597

  direct lattice vectors                    reciprocal lattice vectors
     5.662477870  0.000000000  0.000000000     0.176601132  0.000000000  0.000000000
    -0.000000000  5.662477870  0.000000000     0.000000000  0.176601132  0.000000000
     0.000000000  0.000000000  5.662477870    -0.000000000 -0.000000000  0.176601132

  length of vectors
     5.662477870  5.662477870  5.662477870     0.176601132  0.176601132  0.176601132

  position of ions in fractional coordinates (direct lattice)
     0.000000000  0.000000000  0.000000000
     0.500000000  0.500000000  1.000000000
     0.500000000  0.000000000  0.500000000
     0.000000000  0.500000000  0.500000000
     0.250000000  0.250000000  0.250000000
     0.250000000  0.750000000  0.750000000
     0.750000000  0.750000000  0.250000000
     0.750000000  0.250000000  0.750000000

  ion indices of the primitive-cell ions
   primitive index   ion index
                 1           1
                 2           2
                 3           3
                 4           4
                 5           5
                 6           6
                 7           7
                 8           8

----------------------------------------------------------------------------------------

 
 
 KPOINTS: Non SCF run along symmetry lines        

Read explicit list of k-points.

 Found    157 k-points:

 Following reciprocal coordinates:
            Coordinates               Weight
  0.000000  0.000000  0.000000      0.006369
  0.021739  0.000000  0.021739      0.006369
  0.043478  0.000000  0.043478      0.006369
  0.065217  0.000000  0.065217      0.006369
  0.086957  0.000000  0.086957      0.006369
  0.108696  0.000000  0.108696      0.006369
  0.130435  0.000000  0.130435      0.006369
  0.152174  0.000000  0.152174      0.006369
  0.173913  0.000000  0.173913      0.006369
  0.195652  0.000000  0.195652      0.006369
  0.217391  0.000000  0.217391      0.006369
  0.239130  0.000000  0.239130      0.006369
  0.260870  0.000000  0.260870      0.006369
  0.282609  0.000000  0.282609      0.006369
  0.304348  0.000000  0.304348      0.006369
  0.326087  0.000000  0.326087      0.006369
  0.347826  0.000000  0.347826      0.006369
  0.369565  0.000000  0.369565      0.006369
  0.391304  0.000000  0.391304      0.006369
  0.413043  0.000000  0.413043      0.006369
  0.434783  0.000000  0.434783      0.006369
  0.456522  0.000000  0.456522      0.006369
  0.478261  0.000000  0.478261      0.006369
  0.500000  0.000000  0.500000      0.006369
  0.500000  0.000000  0.500000      0.006369
  0.500000  0.020833  0.520833      0.006369
  0.500000  0.041667  0.541667      0.006369
  0.500000  0.062500  0.562500      0.006369
  0.500000  0.083333  0.583333      0.006369
  0.500000  0.104167  0.604167      0.006369
  0.500000  0.125000  0.625000      0.006369
  0.500000  0.145833  0.645833      0.006369
  0.500000  0.166667  0.666667      0.006369
  0.500000  0.187500  0.687500      0.006369
  0.500000  0.208333  0.708333      0.006369
  0.500000  0.229167  0.729167      0.006369
  0.500000  0.250000  0.750000      0.006369
  0.500000  0.250000  0.750000      0.006369
  0.484375  0.265625  0.750000      0.006369
  0.468750  0.281250  0.750000      0.006369
  0.453125  0.296875  0.750000      0.006369
  0.437500  0.312500  0.750000      0.006369
  0.421875  0.328125  0.750000      0.006369
  0.406250  0.343750  0.750000      0.006369
  0.390625  0.359375  0.750000      0.006369
  0.375000  0.375000  0.750000      0.006369
  0.375000  0.375000  0.750000      0.006369
  0.359375  0.359375  0.718750      0.006369
  0.343750  0.343750  0.687500      0.006369
  0.328125  0.328125  0.656250      0.006369
  0.312500  0.312500  0.625000      0.006369
  0.296875  0.296875  0.593750      0.006369
  0.281250  0.281250  0.562500      0.006369
  0.265625  0.265625  0.531250      0.006369
  0.250000  0.250000  0.500000      0.006369
  0.234375  0.234375  0.468750      0.006369
  0.218750  0.218750  0.437500      0.006369
  0.203125  0.203125  0.406250      0.006369
  0.187500  0.187500  0.375000      0.006369
  0.171875  0.171875  0.343750      0.006369
  0.156250  0.156250  0.312500      0.006369
  0.140625  0.140625  0.281250      0.006369
  0.125000  0.125000  0.250000      0.006369
  0.109375  0.109375  0.218750      0.006369
  0.093750  0.093750  0.187500      0.006369
  0.078125  0.078125  0.156250      0.006369
  0.062500  0.062500  0.125000      0.006369
  0.046875  0.046875  0.093750      0.006369
  0.031250  0.031250  0.062500      0.006369
  0.015625  0.015625  0.031250      0.006369
  0.000000  0.000000  0.000000      0.006369
  0.000000  0.000000  0.000000      0.006369
  0.025000  0.025000  0.025000      0.006369
  0.050000  0.050000  0.050000      0.006369
  0.075000  0.075000  0.075000      0.006369
  0.100000  0.100000  0.100000      0.006369
  0.125000  0.125000  0.125000      0.006369
  0.150000  0.150000  0.150000      0.006369
  0.175000  0.175000  0.175000      0.006369
  0.200000  0.200000  0.200000      0.006369
  0.225000  0.225000  0.225000      0.006369
  0.250000  0.250000  0.250000      0.006369
  0.275000  0.275000  0.275000      0.006369
  0.300000  0.300000  0.300000      0.006369
  0.325000  0.325000  0.325000      0.006369
  0.350000  0.350000  0.350000      0.006369
  0.375000  0.375000  0.375000      0.006369
  0.400000  0.400000  0.400000      0.006369
  0.425000  0.425000  0.425000      0.006369
  0.450000  0.450000  0.450000      0.006369
  0.475000  0.475000  0.475000      0.006369
  0.500000  0.500000  0.500000      0.006369
  0.500000  0.500000  0.500000      0.006369
  0.508929  0.482143  0.508929      0.006369
  0.517857  0.464286  0.517857      0.006369
  0.526786  0.446429  0.526786      0.006369
  0.535714  0.428571  0.535714      0.006369
  0.544643  0.410714  0.544643      0.006369
  0.553571  0.392857  0.553571      0.006369
  0.562500  0.375000  0.562500      0.006369
  0.571429  0.357143  0.571429      0.006369
  0.580357  0.339286  0.580357      0.006369
  0.589286  0.321429  0.589286      0.006369
  0.598214  0.303571  0.598214      0.006369
  0.607143  0.285714  0.607143      0.006369
  0.616071  0.267857  0.616071      0.006369
  0.625000  0.250000  0.625000      0.006369
  0.625000  0.250000  0.625000      0.006369
  0.609375  0.250000  0.640625      0.006369
  0.593750  0.250000  0.656250      0.006369
  0.578125  0.250000  0.671875      0.006369
  0.562500  0.250000  0.687500      0.006369
  0.546875  0.250000  0.703125      0.006369
  0.531250  0.250000  0.718750      0.006369
  0.515625  0.250000  0.734375      0.006369
  0.500000  0.250000  0.750000      0.006369
  0.500000  0.250000  0.750000      0.006369
  0.500000  0.265625  0.734375      0.006369
  0.500000  0.281250  0.718750      0.006369
  0.500000  0.296875  0.703125      0.006369
  0.500000  0.312500  0.687500      0.006369
  0.500000  0.328125  0.671875      0.006369
  0.500000  0.343750  0.656250      0.006369
  0.500000  0.359375  0.640625      0.006369
  0.500000  0.375000  0.625000      0.006369
  0.500000  0.390625  0.609375      0.006369
  0.500000  0.406250  0.593750      0.006369
  0.500000  0.421875  0.578125      0.006369
  0.500000  0.437500  0.562500      0.006369
  0.500000  0.453125  0.546875      0.006369
  0.500000  0.468750  0.531250      0.006369
  0.500000  0.484375  0.515625      0.006369
  0.500000  0.500000  0.500000      0.006369
  0.500000  0.500000  0.500000      0.006369
  0.491071  0.491071  0.517857      0.006369
  0.482143  0.482143  0.535714      0.006369
  0.473214  0.473214  0.553571      0.006369
  0.464286  0.464286  0.571429      0.006369
  0.455357  0.455357  0.589286      0.006369
  0.446429  0.446429  0.607143      0.006369
  0.437500  0.437500  0.625000      0.006369
  0.428571  0.428571  0.642857      0.006369
  0.419643  0.419643  0.660714      0.006369
  0.410714  0.410714  0.678571      0.006369
  0.401786  0.401786  0.696429      0.006369
  0.392857  0.392857  0.714286      0.006369
  0.383929  0.383929  0.732143      0.006369
  0.375000  0.375000  0.750000      0.006369
  0.625000  0.250000  0.625000      0.006369
  0.609375  0.218750  0.609375      0.006369
  0.593750  0.187500  0.593750      0.006369
  0.578125  0.156250  0.578125      0.006369
  0.562500  0.125000  0.562500      0.006369
  0.546875  0.093750  0.546875      0.006369
  0.531250  0.062500  0.531250      0.006369
  0.515625  0.031250  0.515625      0.006369
  0.500000  0.000000  0.500000      0.006369

 Following cartesian coordinates:
            Coordinates               Weight
  0.000000  0.000000  0.000000      0.006369
  0.003839  0.000000  0.003839      0.006369
  0.007678  0.000000  0.007678      0.006369
  0.011517 -0.000000  0.011517      0.006369
  0.015357  0.000000  0.015357      0.006369
  0.019196  0.000000  0.019196      0.006369
  0.023035 -0.000000  0.023035      0.006369
  0.026874  0.000000  0.026874      0.006369
  0.030713  0.000000  0.030713      0.006369
  0.034552 -0.000000  0.034552      0.006369
  0.038392  0.000000  0.038392      0.006369
  0.042231  0.000000  0.042231      0.006369
  0.046070 -0.000000  0.046070      0.006369
  0.049909 -0.000000  0.049909      0.006369
  0.053748  0.000000  0.053748      0.006369
  0.057587  0.000000  0.057587      0.006369
  0.061426  0.000000  0.061426      0.006369
  0.065266 -0.000000  0.065266      0.006369
  0.069105 -0.000000  0.069105      0.006369
  0.072944 -0.000000  0.072944      0.006369
  0.076783  0.000000  0.076783      0.006369
  0.080622  0.000000  0.080622      0.006369
  0.084461  0.000000  0.084461      0.006369
  0.088301  0.000000  0.088301      0.006369
  0.088301  0.000000  0.088301      0.006369
  0.088301  0.003679  0.091980      0.006369
  0.088301  0.007358  0.095659      0.006369
  0.088301  0.011038  0.099338      0.006369
  0.088301  0.014717  0.103017      0.006369
  0.088301  0.018396  0.106697      0.006369
  0.088301  0.022075  0.110376      0.006369
  0.088301  0.025754  0.114055      0.006369
  0.088301  0.029434  0.117734      0.006369
  0.088301  0.033113  0.121413      0.006369
  0.088301  0.036792  0.125092      0.006369
  0.088301  0.040471  0.128772      0.006369
  0.088301  0.044150  0.132451      0.006369
  0.088301  0.044150  0.132451      0.006369
  0.085541  0.046910  0.132451      0.006369
  0.082782  0.049669  0.132451      0.006369
  0.080022  0.052428  0.132451      0.006369
  0.077263  0.055188  0.132451      0.006369
  0.074504  0.057947  0.132451      0.006369
  0.071744  0.060707  0.132451      0.006369
  0.068985  0.063466  0.132451      0.006369
  0.066225  0.066225  0.132451      0.006369
  0.066225  0.066225  0.132451      0.006369
  0.063466  0.063466  0.126932      0.006369
  0.060707  0.060707  0.121413      0.006369
  0.057947  0.057947  0.115894      0.006369
  0.055188  0.055188  0.110376      0.006369
  0.052428  0.052428  0.104857      0.006369
  0.049669  0.049669  0.099338      0.006369
  0.046910  0.046910  0.093819      0.006369
  0.044150  0.044150  0.088301      0.006369
  0.041391  0.041391  0.082782      0.006369
  0.038631  0.038631  0.077263      0.006369
  0.035872  0.035872  0.071744      0.006369
  0.033113  0.033113  0.066225      0.006369
  0.030353  0.030353  0.060707      0.006369
  0.027594  0.027594  0.055188      0.006369
  0.024835  0.024835  0.049669      0.006369
  0.022075  0.022075  0.044150      0.006369
  0.019316  0.019316  0.038631      0.006369
  0.016556  0.016556  0.033113      0.006369
  0.013797  0.013797  0.027594      0.006369
  0.011038  0.011038  0.022075      0.006369
  0.008278  0.008278  0.016556      0.006369
  0.005519  0.005519  0.011038      0.006369
  0.002759  0.002759  0.005519      0.006369
  0.000000  0.000000  0.000000      0.006369
  0.000000  0.000000  0.000000      0.006369
  0.004415  0.004415  0.004415      0.006369
  0.008830  0.008830  0.008830      0.006369
  0.013245  0.013245  0.013245      0.006369
  0.017660  0.017660  0.017660      0.006369
  0.022075  0.022075  0.022075      0.006369
  0.026490  0.026490  0.026490      0.006369
  0.030905  0.030905  0.030905      0.006369
  0.035320  0.035320  0.035320      0.006369
  0.039735  0.039735  0.039735      0.006369
  0.044150  0.044150  0.044150      0.006369
  0.048565  0.048565  0.048565      0.006369
  0.052980  0.052980  0.052980      0.006369
  0.057395  0.057395  0.057395      0.006369
  0.061810  0.061810  0.061810      0.006369
  0.066225  0.066225  0.066225      0.006369
  0.070640  0.070640  0.070640      0.006369
  0.075055  0.075055  0.075055      0.006369
  0.079471  0.079471  0.079471      0.006369
  0.083886  0.083886  0.083886      0.006369
  0.088301  0.088301  0.088301      0.006369
  0.088301  0.088301  0.088301      0.006369
  0.089877  0.085147  0.089877      0.006369
  0.091454  0.081993  0.091454      0.006369
  0.093031  0.078840  0.093031      0.006369
  0.094608  0.075686  0.094608      0.006369
  0.096185  0.072533  0.096185      0.006369
  0.097761  0.069379  0.097761      0.006369
  0.099338  0.066225  0.099338      0.006369
  0.100915  0.063072  0.100915      0.006369
  0.102492  0.059918  0.102492      0.006369
  0.104069  0.056765  0.104069      0.006369
  0.105645  0.053611  0.105645      0.006369
  0.107222  0.050457  0.107222      0.006369
  0.108799  0.047304  0.108799      0.006369
  0.110376  0.044150  0.110376      0.006369
  0.110376  0.044150  0.110376      0.006369
  0.107616  0.044150  0.113135      0.006369
  0.104857  0.044150  0.115894      0.006369
  0.102098  0.044150  0.118654      0.006369
  0.099338  0.044150  0.121413      0.006369
  0.096579  0.044150  0.124173      0.006369
  0.093819  0.044150  0.126932      0.006369
  0.091060  0.044150  0.129691      0.006369
  0.088301  0.044150  0.132451      0.006369
  0.088301  0.044150  0.132451      0.006369
  0.088301  0.046910  0.129691      0.006369
  0.088301  0.049669  0.126932      0.006369
  0.088301  0.052428  0.124173      0.006369
  0.088301  0.055188  0.121413      0.006369
  0.088301  0.057947  0.118654      0.006369
  0.088301  0.060707  0.115894      0.006369
  0.088301  0.063466  0.113135      0.006369
  0.088301  0.066225  0.110376      0.006369
  0.088301  0.068985  0.107616      0.006369
  0.088301  0.071744  0.104857      0.006369
  0.088301  0.074504  0.102098      0.006369
  0.088301  0.077263  0.099338      0.006369
  0.088301  0.080022  0.096579      0.006369
  0.088301  0.082782  0.093819      0.006369
  0.088301  0.085541  0.091060      0.006369
  0.088301  0.088301  0.088301      0.006369
  0.088301  0.088301  0.088301      0.006369
  0.086724  0.086724  0.091454      0.006369
  0.085147  0.085147  0.094608      0.006369
  0.083570  0.083570  0.097761      0.006369
  0.081993  0.081993  0.100915      0.006369
  0.080417  0.080417  0.104069      0.006369
  0.078840  0.078840  0.107222      0.006369
  0.077263  0.077263  0.110376      0.006369
  0.075686  0.075686  0.113529      0.006369
  0.074109  0.074109  0.116683      0.006369
  0.072533  0.072533  0.119836      0.006369
  0.070956  0.070956  0.122990      0.006369
  0.069379  0.069379  0.126144      0.006369
  0.067802  0.067802  0.129297      0.006369
  0.066225  0.066225  0.132451      0.006369
  0.110376  0.044150  0.110376      0.006369
  0.107616  0.038631  0.107616      0.006369
  0.104857  0.033113  0.104857      0.006369
  0.102098  0.027594  0.102098      0.006369
  0.099338  0.022075  0.099338      0.006369
  0.096579  0.016556  0.096579      0.006369
  0.093819  0.011038  0.093819      0.006369
  0.091060  0.005519  0.091060      0.006369
  0.088301  0.000000  0.088301      0.006369
 


--------------------------------------------------------------------------------------------------------




 Dimension of arrays:
   k-points           NKPTS =    157   k-points in BZ     NKDIM =    157   number of bands    NBANDS=    144
   number of dos      NEDOS =    301   number of ions     NIONS =      8
   non local maximal  LDIM  =      6   non local SUM 2l+1 LMDIM =     18
   total plane-waves  NPLWV = 110592
   max r-space proj   IRMAX =      1   max aug-charges    IRDMAX=  25402
   dimension x,y,z NGX =    48 NGY =   48 NGZ =   48
   dimension x,y,z NGXF=    96 NGYF=   96 NGZF=   96
   support grid    NGXF=    96 NGYF=   96 NGZF=   96
   ions per type =               4   4
   NGX,Y,Z   is equivalent  to a cutoff of  14.09, 14.09, 14.09 a.u.
   NGXF,Y,Z  is equivalent  to a cutoff of  28.18, 28.18, 28.18 a.u.

 SYSTEM =  unknown system                          
 POSCAR =  Ga4 As4                                 

 Startparameter for this run:
   NWRITE =      2    write-flag & timer
   PREC   = accura    normal or accurate (medium, high low for compatibility)
   ISTART =      0    job   : 0-new  1-cont  2-samecut
   ICHARG =     11    charge: 1-file 2-atom 10-const
   ISPIN  =      1    spin polarized calculation?
   LNONCOLLINEAR =      F non collinear calculations
   LSORBIT =      F    spin-orbit coupling
   INIWAV =      1    electr: 0-lowe 1-rand  2-diag
   LASPH  =      T    aspherical Exc in radial PAW
 Electronic Relaxation 1
   ENCUT  =  680.0 eV  49.98 Ry    7.07 a.u.  12.04 12.04 12.04*2*pi/ulx,y,z
   ENINI  =  680.0     initial cutoff
   ENAUG  = 1360.0 eV  augmentation charge cutoff
   NELM   =    200;   NELMIN=  2; NELMDL=  0     # of ELM steps 
   EDIFF  = 0.1E-04   stopping-criterion for ELM
   LREAL  =      F    real-space projection
   NLSPLINE    = F    spline interpolate recip. space projectors
   LCOMPAT=      F    compatible to vasp.4.4
   GGA_COMPAT  = T    GGA compatible to vasp.4.4-vasp.4.6
   LMAXPAW     = -100 max onsite density
   LMAXMIX     =    4 max onsite mixed and CHGCAR
   VOSKOWN=      0    Vosko Wilk Nusair interpolation
   ROPT   =    0.00000   0.00000
 Ionic relaxation
   EDIFFG = 0.1E-03   stopping-criterion for IOM
   NSW    =      0    number of steps for IOM
   NBLOCK =      1;   KBLOCK =      1    inner block; outer block 
   IBRION =     -1    ionic relax: 0-MD 1-quasi-New 2-CG
   NFREE  =      0    steps in history (QN), initial steepest desc. (CG)
   ISIF   =      2    stress and relaxation
   IWAVPR =     10    prediction:  0-non 1-charg 2-wave 3-comb
   ISYM   =      0    0-nonsym 1-usesym 2-fastsym
   LCORR  =      T    Harris-Foulkes like correction to forces

   POTIM  = 0.5000    time-step for ionic-motion
   TEIN   =    0.0    initial temperature
   TEBEG  =    0.0;   TEEND  =   0.0 temperature during run
   SMASS  =  -3.00    Nose mass-parameter (am)
   estimated Nose-frequenzy (Omega)   =  0.10E-29 period in steps = 0.13E+47 mass=  -0.733E-27a.u.
   SCALEE = 1.0000    scale energy and forces
   NPACO  =    256;   APACO  = 10.0  distance and # of slots for P.C.
   PSTRESS=    0.0 pullay stress

  Mass of Ions in am
   POMASS =  69.72 74.92
  Ionic Valenz
   ZVAL   =  13.00  5.00
  Atomic Wigner-Seitz radii
   RWIGS  =  -1.00 -1.00
  virtual crystal weights 
   VCA    =   1.00  1.00
   NELECT =      72.0000    total number of electrons
   NUPDOWN=      -1.0000    fix difference up-down

 DOS related values:
   EMIN   =  10.00;   EMAX   =-10.00  energy-range for DOS
   EFERMI =   0.00;   METHOD = LEGACY      
   ISMEAR =     0;   SIGMA  =   0.01  broadening in eV -4-tet -1-fermi 0-gaus

 Electronic relaxation 2 (details)
   IALGO  =     68    algorithm
   LDIAG  =      T    sub-space diagonalisation (order eigenvalues)
   LSUBROT=      F    optimize rotation matrix (better conditioning)
   TURBO    =      0    0=normal 1=particle mesh
   IRESTART =      0    0=no restart 2=restart with 2 vectors
   NREBOOT  =      0    no. of reboots
   NMIN     =      0    reboot dimension
   EREF     =   0.00    reference energy to select bands
   IMIX   =      4    mixing-type and parameters
     AMIX     =   0.40;   BMIX     =  1.00
     AMIX_MAG =   1.60;   BMIX_MAG =  1.00
     AMIN     =   0.10
     WC   =   100.;   INIMIX=   1;  MIXPRE=   1;  MAXMIX= -45

 Intra band minimization:
   WEIMIN = 0.0000     energy-eigenvalue tresh-hold
   EBREAK =  0.17E-07  absolut break condition
   DEPER  =   0.30     relativ break condition  

   TIME   =   0.40     timestep for ELM

  volume/ion in A,a.u.               =      22.69       153.15
  Fermi-wavevector in a.u.,A,eV,Ry     =   1.202760  2.272888 19.682633  1.446633
  Thomas-Fermi vector in A             =   2.338533
 
 Write flags
   LWAVE        =      F    write WAVECAR
   LDOWNSAMPLE  =      F    k-point downsampling of WAVECAR
   LCHARG       =      F    write CHGCAR
   LVTOT        =      T    write LOCPOT, total local potential
   LVHAR        =      F    write LOCPOT, Hartree potential only
   LELF         =      F    write electronic localiz. function (ELF)
   LORBIT       =     11    0 simple, 1 ext, 2 COOP (PROOUT), +10 PAW based schemes


 Dipole corrections
   LMONO  =      F    monopole corrections only (constant potential shift)
   LDIPOL =      F    correct potential (dipole corrections)
   IDIPOL =      0    1-x, 2-y, 3-z, 4-all directions 
   EPSILON=  1.0000000 bulk dielectric constant

 Exchange correlation treatment:
   GGA     =    PS    GGA type
   LEXCH   =    14    internal setting for exchange type
   LIBXC   =     F    Libxc                    
   VOSKOWN =     0    Vosko Wilk Nusair interpolation
   LHFCALC =     F    Hartree Fock is set to
   LHFONE  =     F    Hartree Fock one center treatment
   AEXX    =    0.0000 exact exchange contribution

 Linear response parameters
   LEPSILON=     F    determine dielectric tensor
   LRPA    =     F    only Hartree local field effects (RPA)
   LNABLA  =     F    use nabla operator in PAW spheres
   LVEL    =     F    velocity operator in full k-point grid
   CSHIFT  =0.1000    complex shift for real part using Kramers Kronig
   OMEGAMAX=  -1.0    maximum frequency
   DEG_THRESHOLD= 0.2000000E-02 threshold for treating states as degnerate
   RTIME   =   -0.100 relaxation time in fs
  (WPLASMAI=    0.000 imaginary part of plasma frequency in eV, 0.658/RTIME)
   DFIELD  = 0.0000000 0.0000000 0.0000000 field for delta impulse in time
 
  Optional k-point grid parameters
   LKPOINTS_OPT  =     F    use optional k-point grid
   KPOINTS_OPT_MODE=     1    mode for optional k-point grid
 
 Orbital magnetization related:
   ORBITALMAG=     F  switch on orbital magnetization
   LCHIMAG   =     F  perturbation theory with respect to B field
   DQ        =  0.001000  dq finite difference perturbation B field
   LLRAUG    =     F  two centre corrections for induced B field
   LBONE     =     F  B-component reconstruction in AE one-centre
   LVGVCALC  =     T  calculate vGv susceptibility
   LVGVAPPL  =     F  apply vGv susceptibility instead of pGv for G=0

 Random number generation:
   RANDOM_GENERATOR = DEFAULT
   PCG_SEED         = not used


--------------------------------------------------------------------------------------------------------


 Static calculation
 charge density and potential remain constant during run
 non-spin polarized calculation
 RMM-DIIS sequential band-by-band and
  variant of blocked Davidson during initial phase
 perform sub-space diagonalisation
    before iterative eigenvector-optimisation
 no mixing
 using additional bands          108
 reciprocal scheme for non local part
 use partial core corrections
 calculate Harris-corrections to forces 
   (improved forces if not selfconsistent)
 use gradient corrections 
 WARNING: stress and forces are not correct
  (second derivative of E(xc) not defined)
 use of overlap-Matrix (Vanderbilt PP)
 Gauss-broadening in eV      SIGMA  =   0.01


--------------------------------------------------------------------------------------------------------


  energy-cutoff  :      680.00
  volume of cell :      181.56
      direct lattice vectors                 reciprocal lattice vectors
     5.662477870  0.000000000  0.000000000     0.176601132  0.000000000  0.000000000
    -0.000000000  5.662477870  0.000000000     0.000000000  0.176601132  0.000000000
     0.000000000  0.000000000  5.662477870    -0.000000000 -0.000000000  0.176601132

  length of vectors
     5.662477870  5.662477870  5.662477870     0.176601132  0.176601132  0.176601132


 
 k-points in units of 2pi/SCALE and weight: Non SCF run along symmetry lines        
   0.00000000  0.00000000  0.00000000       0.006
   0.00383916  0.00000000  0.00383916       0.006
   0.00767831  0.00000000  0.00767831       0.006
   0.01151747 -0.00000000  0.01151747       0.006
   0.01535662  0.00000000  0.01535662       0.006
   0.01919578  0.00000000  0.01919578       0.006
   0.02303493 -0.00000000  0.02303493       0.006
   0.02687409  0.00000000  0.02687409       0.006
   0.03071324  0.00000000  0.03071324       0.006
   0.03455240 -0.00000000  0.03455240       0.006
   0.03839155  0.00000000  0.03839155       0.006
   0.04223071  0.00000000  0.04223071       0.006
   0.04606986 -0.00000000  0.04606986       0.006
   0.04990902 -0.00000000  0.04990902       0.006
   0.05374817  0.00000000  0.05374817       0.006
   0.05758733  0.00000000  0.05758733       0.006
   0.06142648  0.00000000  0.06142648       0.006
   0.06526564 -0.00000000  0.06526564       0.006
   0.06910479 -0.00000000  0.06910479       0.006
   0.07294395 -0.00000000  0.07294395       0.006
   0.07678310  0.00000000  0.07678310       0.006
   0.08062226  0.00000000  0.08062226       0.006
   0.08446141  0.00000000  0.08446141       0.006
   0.08830057  0.00000000  0.08830057       0.006
   0.08830057  0.00000000  0.08830057       0.006
   0.08830057  0.00367919  0.09197976       0.006
   0.08830057  0.00735838  0.09565895       0.006
   0.08830057  0.01103757  0.09933814       0.006
   0.08830057  0.01471676  0.10301733       0.006
   0.08830057  0.01839595  0.10669652       0.006
   0.08830057  0.02207514  0.11037571       0.006
   0.08830057  0.02575433  0.11405490       0.006
   0.08830057  0.02943352  0.11773409       0.006
   0.08830057  0.03311271  0.12141328       0.006
   0.08830057  0.03679190  0.12509247       0.006
   0.08830057  0.04047109  0.12877166       0.006
   0.08830057  0.04415028  0.13245085       0.006
   0.08830057  0.04415028  0.13245085       0.006
   0.08554117  0.04690968  0.13245085       0.006
   0.08278178  0.04966907  0.13245085       0.006
   0.08002239  0.05242846  0.13245085       0.006
   0.07726300  0.05518785  0.13245085       0.006
   0.07450360  0.05794725  0.13245085       0.006
   0.07174421  0.06070664  0.13245085       0.006
   0.06898482  0.06346603  0.13245085       0.006
   0.06622542  0.06622542  0.13245085       0.006
   0.06622542  0.06622542  0.13245085       0.006
   0.06346603  0.06346603  0.12693206       0.006
   0.06070664  0.06070664  0.12141328       0.006
   0.05794725  0.05794725  0.11589449       0.006
   0.05518785  0.05518785  0.11037571       0.006
   0.05242846  0.05242846  0.10485692       0.006
   0.04966907  0.04966907  0.09933814       0.006
   0.04690968  0.04690968  0.09381935       0.006
   0.04415028  0.04415028  0.08830057       0.006
   0.04139089  0.04139089  0.08278178       0.006
   0.03863150  0.03863150  0.07726300       0.006
   0.03587210  0.03587210  0.07174421       0.006
   0.03311271  0.03311271  0.06622542       0.006
   0.03035332  0.03035332  0.06070664       0.006
   0.02759393  0.02759393  0.05518785       0.006
   0.02483453  0.02483453  0.04966907       0.006
   0.02207514  0.02207514  0.04415028       0.006
   0.01931575  0.01931575  0.03863150       0.006
   0.01655636  0.01655636  0.03311271       0.006
   0.01379696  0.01379696  0.02759393       0.006
   0.01103757  0.01103757  0.02207514       0.006
   0.00827818  0.00827818  0.01655636       0.006
   0.00551879  0.00551879  0.01103757       0.006
   0.00275939  0.00275939  0.00551879       0.006
   0.00000000  0.00000000  0.00000000       0.006
   0.00000000  0.00000000  0.00000000       0.006
   0.00441503  0.00441503  0.00441503       0.006
   0.00883006  0.00883006  0.00883006       0.006
   0.01324508  0.01324508  0.01324508       0.006
   0.01766011  0.01766011  0.01766011       0.006
   0.02207514  0.02207514  0.02207514       0.006
   0.02649017  0.02649017  0.02649017       0.006
   0.03090520  0.03090520  0.03090520       0.006
   0.03532023  0.03532023  0.03532023       0.006
   0.03973525  0.03973525  0.03973525       0.006
   0.04415028  0.04415028  0.04415028       0.006
   0.04856531  0.04856531  0.04856531       0.006
   0.05298034  0.05298034  0.05298034       0.006
   0.05739537  0.05739537  0.05739537       0.006
   0.06181040  0.06181040  0.06181040       0.006
   0.06622542  0.06622542  0.06622542       0.006
   0.07064045  0.07064045  0.07064045       0.006
   0.07505548  0.07505548  0.07505548       0.006
   0.07947051  0.07947051  0.07947051       0.006
   0.08388554  0.08388554  0.08388554       0.006
   0.08830057  0.08830057  0.08830057       0.006
   0.08830057  0.08830057  0.08830057       0.006
   0.08987736  0.08514697  0.08987736       0.006
   0.09145416  0.08199338  0.09145416       0.006
   0.09303095  0.07883979  0.09303095       0.006
   0.09460775  0.07568620  0.09460775       0.006
   0.09618454  0.07253261  0.09618454       0.006
   0.09776134  0.06937902  0.09776134       0.006
   0.09933814  0.06622542  0.09933814       0.006
   0.10091493  0.06307183  0.10091493       0.006
   0.10249173  0.05991824  0.10249173       0.006
   0.10406852  0.05676465  0.10406852       0.006
   0.10564532  0.05361106  0.10564532       0.006
   0.10722212  0.05045747  0.10722212       0.006
   0.10879891  0.04730387  0.10879891       0.006
   0.11037571  0.04415028  0.11037571       0.006
   0.11037571  0.04415028  0.11037571       0.006
   0.10761631  0.04415028  0.11313510       0.006
   0.10485692  0.04415028  0.11589449       0.006
   0.10209753  0.04415028  0.11865389       0.006
   0.09933814  0.04415028  0.12141328       0.006
   0.09657874  0.04415028  0.12417267       0.006
   0.09381935  0.04415028  0.12693206       0.006
   0.09105996  0.04415028  0.12969146       0.006
   0.08830057  0.04415028  0.13245085       0.006
   0.08830057  0.04415028  0.13245085       0.006
   0.08830057  0.04690968  0.12969146       0.006
   0.08830057  0.04966907  0.12693206       0.006
   0.08830057  0.05242846  0.12417267       0.006
   0.08830057  0.05518785  0.12141328       0.006
   0.08830057  0.05794725  0.11865389       0.006
   0.08830057  0.06070664  0.11589449       0.006
   0.08830057  0.06346603  0.11313510       0.006
   0.08830057  0.06622542  0.11037571       0.006
   0.08830057  0.06898482  0.10761631       0.006
   0.08830057  0.07174421  0.10485692       0.006
   0.08830057  0.07450360  0.10209753       0.006
   0.08830057  0.07726300  0.09933814       0.006
   0.08830057  0.08002239  0.09657874       0.006
   0.08830057  0.08278178  0.09381935       0.006
   0.08830057  0.08554117  0.09105996       0.006
   0.08830057  0.08830057  0.08830057       0.006
   0.08830057  0.08830057  0.08830057       0.006
   0.08672377  0.08672377  0.09145416       0.006
   0.08514697  0.08514697  0.09460775       0.006
   0.08357018  0.08357018  0.09776134       0.006
   0.08199338  0.08199338  0.10091493       0.006
   0.08041659  0.08041659  0.10406852       0.006
   0.07883979  0.07883979  0.10722212       0.006
   0.07726300  0.07726300  0.11037571       0.006
   0.07568620  0.07568620  0.11352930       0.006
   0.07410940  0.07410940  0.11668289       0.006
   0.07253261  0.07253261  0.11983648       0.006
   0.07095581  0.07095581  0.12299007       0.006
   0.06937902  0.06937902  0.12614367       0.006
   0.06780222  0.06780222  0.12929726       0.006
   0.06622542  0.06622542  0.13245085       0.006
   0.11037571  0.04415028  0.11037571       0.006
   0.10761631  0.03863150  0.10761631       0.006
   0.10485692  0.03311271  0.10485692       0.006
   0.10209753  0.02759393  0.10209753       0.006
   0.09933814  0.02207514  0.09933814       0.006
   0.09657874  0.01655636  0.09657874       0.006
   0.09381935  0.01103757  0.09381935       0.006
   0.09105996  0.00551879  0.09105996       0.006
   0.08830057  0.00000000  0.08830057       0.006
 
 k-points in reciprocal lattice and weights: Non SCF run along symmetry lines        
   0.00000000  0.00000000  0.00000000       0.006
   0.02173913  0.00000000  0.02173913       0.006
   0.04347826  0.00000000  0.04347826       0.006
   0.06521739  0.00000000  0.06521739       0.006
   0.08695652  0.00000000  0.08695652       0.006
   0.10869565  0.00000000  0.10869565       0.006
   0.13043478  0.00000000  0.13043478       0.006
   0.15217391  0.00000000  0.15217391       0.006
   0.17391304  0.00000000  0.17391304       0.006
   0.19565217  0.00000000  0.19565217       0.006
   0.21739130  0.00000000  0.21739130       0.006
   0.23913043  0.00000000  0.23913043       0.006
   0.26086957  0.00000000  0.26086957       0.006
   0.28260870  0.00000000  0.28260870       0.006
   0.30434783  0.00000000  0.30434783       0.006
   0.32608696  0.00000000  0.32608696       0.006
   0.34782609  0.00000000  0.34782609       0.006
   0.36956522  0.00000000  0.36956522       0.006
   0.39130435  0.00000000  0.39130435       0.006
   0.41304348  0.00000000  0.41304348       0.006
   0.43478261  0.00000000  0.43478261       0.006
   0.45652174  0.00000000  0.45652174       0.006
   0.47826087  0.00000000  0.47826087       0.006
   0.50000000  0.00000000  0.50000000       0.006
   0.50000000  0.00000000  0.50000000       0.006
   0.50000000  0.02083333  0.52083333       0.006
   0.50000000  0.04166667  0.54166667       0.006
   0.50000000  0.06250000  0.56250000       0.006
   0.50000000  0.08333333  0.58333333       0.006
   0.50000000  0.10416667  0.60416667       0.006
   0.50000000  0.12500000  0.62500000       0.006
   0.50000000  0.14583333  0.64583333       0.006
   0.50000000  0.16666667  0.66666667       0.006
   0.50000000  0.18750000  0.68750000       0.006
   0.50000000  0.20833333  0.70833333       0.006
   0.50000000  0.22916667  0.72916667       0.006
   0.50000000  0.25000000  0.75000000       0.006
   0.50000000  0.25000000  0.75000000       0.006
   0.48437500  0.26562500  0.75000000       0.006
   0.46875000  0.28125000  0.75000000       0.006
   0.45312500  0.29687500  0.75000000       0.006
   0.43750000  0.31250000  0.75000000       0.006
   0.42187500  0.32812500  0.75000000       0.006
   0.40625000  0.34375000  0.75000000       0.006
   0.39062500  0.35937500  0.75000000       0.006
   0.37500000  0.37500000  0.75000000       0.006
   0.37500000  0.37500000  0.75000000       0.006
   0.35937500  0.35937500  0.71875000       0.006
   0.34375000  0.34375000  0.68750000       0.006
   0.32812500  0.32812500  0.65625000       0.006
   0.31250000  0.31250000  0.62500000       0.006
   0.29687500  0.29687500  0.59375000       0.006
   0.28125000  0.28125000  0.56250000       0.006
   0.26562500  0.26562500  0.53125000       0.006
   0.25000000  0.25000000  0.50000000       0.006
   0.23437500  0.23437500  0.46875000       0.006
   0.21875000  0.21875000  0.43750000       0.006
   0.20312500  0.20312500  0.40625000       0.006
   0.18750000  0.18750000  0.37500000       0.006
   0.17187500  0.17187500  0.34375000       0.006
   0.15625000  0.15625000  0.31250000       0.006
   0.14062500  0.14062500  0.28125000       0.006
   0.12500000  0.12500000  0.25000000       0.006
   0.10937500  0.10937500  0.21875000       0.006
   0.09375000  0.09375000  0.18750000       0.006
   0.07812500  0.07812500  0.15625000       0.006
   0.06250000  0.06250000  0.12500000       0.006
   0.04687500  0.04687500  0.09375000       0.006
   0.03125000  0.03125000  0.06250000       0.006
   0.01562500  0.01562500  0.03125000       0.006
   0.00000000  0.00000000  0.00000000       0.006
   0.00000000  0.00000000  0.00000000       0.006
   0.02500000  0.02500000  0.02500000       0.006
   0.05000000  0.05000000  0.05000000       0.006
   0.07500000  0.07500000  0.07500000       0.006
   0.10000000  0.10000000  0.10000000       0.006
   0.12500000  0.12500000  0.12500000       0.006
   0.15000000  0.15000000  0.15000000       0.006
   0.17500000  0.17500000  0.17500000       0.006
   0.20000000  0.20000000  0.20000000       0.006
   0.22500000  0.22500000  0.22500000       0.006
   0.25000000  0.25000000  0.25000000       0.006
   0.27500000  0.27500000  0.27500000       0.006
   0.30000000  0.30000000  0.30000000       0.006
   0.32500000  0.32500000  0.32500000       0.006
   0.35000000  0.35000000  0.35000000       0.006
   0.37500000  0.37500000  0.37500000       0.006
   0.40000000  0.40000000  0.40000000       0.006
   0.42500000  0.42500000  0.42500000       0.006
   0.45000000  0.45000000  0.45000000       0.006
   0.47500000  0.47500000  0.47500000       0.006
   0.50000000  0.50000000  0.50000000       0.006
   0.50000000  0.50000000  0.50000000       0.006
   0.50892857  0.48214286  0.50892857       0.006
   0.51785714  0.46428571  0.51785714       0.006
   0.52678571  0.44642857  0.52678571       0.006
   0.53571429  0.42857143  0.53571429       0.006
   0.54464286  0.41071429  0.54464286       0.006
   0.55357143  0.39285714  0.55357143       0.006
   0.56250000  0.37500000  0.56250000       0.006
   0.57142857  0.35714286  0.57142857       0.006
   0.58035714  0.33928571  0.58035714       0.006
   0.58928571  0.32142857  0.58928571       0.006
   0.59821429  0.30357143  0.59821429       0.006
   0.60714286  0.28571429  0.60714286       0.006
   0.61607143  0.26785714  0.61607143       0.006
   0.62500000  0.25000000  0.62500000       0.006
   0.62500000  0.25000000  0.62500000       0.006
   0.60937500  0.25000000  0.64062500       0.006
   0.59375000  0.25000000  0.65625000       0.006
   0.57812500  0.25000000  0.67187500       0.006
   0.56250000  0.25000000  0.68750000       0.006
   0.54687500  0.25000000  0.70312500       0.006
   0.53125000  0.25000000  0.71875000       0.006
   0.51562500  0.25000000  0.73437500       0.006
   0.50000000  0.25000000  0.75000000       0.006
   0.50000000  0.25000000  0.75000000       0.006
   0.50000000  0.26562500  0.73437500       0.006
   0.50000000  0.28125000  0.71875000       0.006
   0.50000000  0.29687500  0.70312500       0.006
   0.50000000  0.31250000  0.68750000       0.006
   0.50000000  0.32812500  0.67187500       0.006
   0.50000000  0.34375000  0.65625000       0.006
   0.50000000  0.35937500  0.64062500       0.006
   0.50000000  0.37500000  0.62500000       0.006
   0.50000000  0.39062500  0.60937500       0.006
   0.50000000  0.40625000  0.59375000       0.006
   0.50000000  0.42187500  0.57812500       0.006
   0.50000000  0.43750000  0.56250000       0.006
   0.50000000  0.45312500  0.54687500       0.006
   0.50000000  0.46875000  0.53125000       0.006
   0.50000000  0.48437500  0.51562500       0.006
   0.50000000  0.50000000  0.50000000       0.006
   0.50000000  0.50000000  0.50000000       0.006
   0.49107143  0.49107143  0.51785714       0.006
   0.48214286  0.48214286  0.53571429       0.006
   0.47321429  0.47321429  0.55357143       0.006
   0.46428571  0.46428571  0.57142857       0.006
   0.45535714  0.45535714  0.58928571       0.006
   0.44642857  0.44642857  0.60714286       0.006
   0.43750000  0.43750000  0.62500000       0.006
   0.42857143  0.42857143  0.64285714       0.006
   0.41964286  0.41964286  0.66071429       0.006
   0.41071429  0.41071429  0.67857143       0.006
   0.40178571  0.40178571  0.69642857       0.006
   0.39285714  0.39285714  0.71428571       0.006
   0.38392857  0.38392857  0.73214286       0.006
   0.37500000  0.37500000  0.75000000       0.006
   0.62500000  0.25000000  0.62500000       0.006
   0.60937500  0.21875000  0.60937500       0.006
   0.59375000  0.18750000  0.59375000       0.006
   0.57812500  0.15625000  0.57812500       0.006
   0.56250000  0.12500000  0.56250000       0.006
   0.54687500  0.09375000  0.54687500       0.006
   0.53125000  0.06250000  0.53125000       0.006
   0.51562500  0.03125000  0.51562500       0.006
   0.50000000  0.00000000  0.50000000       0.006
 
 position of ions in fractional coordinates (direct lattice) 
   0.00000000  0.00000000  0.00000000
   0.50000000  0.50000000  0.00000000
   0.50000000  0.00000000  0.50000000
   0.00000000  0.50000000  0.50000000
   0.25000000  0.25000000  0.25000000
   0.25000000  0.75000000  0.75000000
   0.75000000  0.75000000  0.25000000
   0.75000000  0.25000000  0.75000000
 
 position of ions in cartesian coordinates  (Angst):
   0.00000000  0.00000000  0.00000000
   2.83123894  2.83123894  0.00000000
   2.83123894  0.00000000  2.83123894
  -0.00000000  2.83123894  2.83123894
   1.41561947  1.41561947  1.41561947
   1.41561947  4.24685840  4.24685840
   4.24685840  4.24685840  1.41561947
   4.24685840  1.41561947  4.24685840
 


--------------------------------------------------------------------------------------------------------


 k-point   1 :   0.0000 0.0000 0.0000  plane waves:    7153
 k-point   2 :   0.0217 0.0000 0.0217  plane waves:    7195
 k-point   3 :   0.0435 0.0000 0.0435  plane waves:    7219
 k-point   4 :   0.0652 0.0000 0.0652  plane waves:    7243
 k-point   5 :   0.0870 0.0000 0.0870  plane waves:    7269
 k-point   6 :   0.1087 0.0000 0.1087  plane waves:    7275
 k-point   7 :   0.1304 0.0000 0.1304  plane waves:    7283
 k-point   8 :   0.1522 0.0000 0.1522  plane waves:    7279
 k-point   9 :   0.1739 0.0000 0.1739  plane waves:    7293
 k-point  10 :   0.1957 0.0000 0.1957  plane waves:    7309
 k-point  11 :   0.2174 0.0000 0.2174  plane waves:    7309
 k-point  12 :   0.2391 0.0000 0.2391  plane waves:    7309
 k-point  13 :   0.2609 0.0000 0.2609  plane waves:    7313
 k-point  14 :   0.2826 0.0000 0.2826  plane waves:    7321
 k-point  15 :   0.3043 0.0000 0.3043  plane waves:    7317
 k-point  16 :   0.3261 0.0000 0.3261  plane waves:    7327
 k-point  17 :   0.3478 0.0000 0.3478  plane waves:    7329
 k-point  18 :   0.3696 0.0000 0.3696  plane waves:    7329
 k-point  19 :   0.3913 0.0000 0.3913  plane waves:    7327
 k-point  20 :   0.4130 0.0000 0.4130  plane waves:    7325
 k-point  21 :   0.4348 0.0000 0.4348  plane waves:    7321
 k-point  22 :   0.4565 0.0000 0.4565  plane waves:    7323
 k-point  23 :   0.4783 0.0000 0.4783  plane waves:    7315
 k-point  24 :   0.5000 0.0000 0.5000  plane waves:    7316
 k-point  25 :   0.5000 0.0000 0.5000  plane waves:    7316
 k-point  26 :   0.5000 0.0208 0.5208  plane waves:    7306
 k-point  27 :   0.5000 0.0417 0.5417  plane waves:    7312
 k-point  28 :   0.5000 0.0625 0.5625  plane waves:    7314
 k-point  29 :   0.5000 0.0833 0.5833  plane waves:    7308
 k-point  30 :   0.5000 0.1042 0.6042  plane waves:    7310
 k-point  31 :   0.5000 0.1250 0.6250  plane waves:    7314
 k-point  32 :   0.5000 0.1458 0.6458  plane waves:    7320
 k-point  33 :   0.5000 0.1667 0.6667  plane waves:    7314
 k-point  34 :   0.5000 0.1875 0.6875  plane waves:    7322
 k-point  35 :   0.5000 0.2083 0.7083  plane waves:    7322
 k-point  36 :   0.5000 0.2292 0.7292  plane waves:    7318
 k-point  37 :   0.5000 0.2500 0.7500  plane waves:    7332
 k-point  38 :   0.5000 0.2500 0.7500  plane waves:    7332
 k-point  39 :   0.4844 0.2656 0.7500  plane waves:    7314
 k-point  40 :   0.4687 0.2812 0.7500  plane waves:    7307
 k-point  41 :   0.4531 0.2969 0.7500  plane waves:    7318
 k-point  42 :   0.4375 0.3125 0.7500  plane waves:    7311
 k-point  43 :   0.4219 0.3281 0.7500  plane waves:    7309
 k-point  44 :   0.4062 0.3438 0.7500  plane waves:    7303
 k-point  45 :   0.3906 0.3594 0.7500  plane waves:    7299
 k-point  46 :   0.3750 0.3750 0.7500  plane waves:    7304
 k-point  47 :   0.3750 0.3750 0.7500  plane waves:    7304
 k-point  48 :   0.3594 0.3594 0.7187  plane waves:    7306
 k-point  49 :   0.3438 0.3438 0.6875  plane waves:    7310
 k-point  50 :   0.3281 0.3281 0.6562  plane waves:    7316
 k-point  51 :   0.3125 0.3125 0.6250  plane waves:    7304
 k-point  52 :   0.2969 0.2969 0.5937  plane waves:    7316
 k-point  53 :   0.2812 0.2812 0.5625  plane waves:    7313
 k-point  54 :   0.2656 0.2656 0.5312  plane waves:    7314
 k-point  55 :   0.2500 0.2500 0.5000  plane waves:    7332
 k-point  56 :   0.2344 0.2344 0.4687  plane waves:    7325
 k-point  57 :   0.2187 0.2187 0.4375  plane waves:    7314
 k-point  58 :   0.2031 0.2031 0.4062  plane waves:    7315
 k-point  59 :   0.1875 0.1875 0.3750  plane waves:    7317
 k-point  60 :   0.1719 0.1719 0.3438  plane waves:    7310
 k-point  61 :   0.1562 0.1562 0.3125  plane waves:    7300
 k-point  62 :   0.1406 0.1406 0.2812  plane waves:    7304
 k-point  63 :   0.1250 0.1250 0.2500  plane waves:    7293
 k-point  64 :   0.1094 0.1094 0.2187  plane waves:    7297
 k-point  65 :   0.0937 0.0937 0.1875  plane waves:    7296
 k-point  66 :   0.0781 0.0781 0.1563  plane waves:    7289
 k-point  67 :   0.0625 0.0625 0.1250  plane waves:    7267
 k-point  68 :   0.0469 0.0469 0.0937  plane waves:    7254
 k-point  69 :   0.0313 0.0313 0.0625  plane waves:    7235
 k-point  70 :   0.0156 0.0156 0.0312  plane waves:    7197
 k-point  71 :   0.0000 0.0000 0.0000  plane waves:    7153
 k-point  72 :   0.0000 0.0000 0.0000  plane waves:    7153
 k-point  73 :   0.0250 0.0250 0.0250  plane waves:    7198
 k-point  74 :   0.0500 0.0500 0.0500  plane waves:    7244
 k-point  75 :   0.0750 0.0750 0.0750  plane waves:    7259
 k-point  76 :   0.1000 0.1000 0.1000  plane waves:    7277
 k-point  77 :   0.1250 0.1250 0.1250  plane waves:    7277
 k-point  78 :   0.1500 0.1500 0.1500  plane waves:    7292
 k-point  79 :   0.1750 0.1750 0.1750  plane waves:    7298
 k-point  80 :   0.2000 0.2000 0.2000  plane waves:    7310
 k-point  81 :   0.2250 0.2250 0.2250  plane waves:    7298
 k-point  82 :   0.2500 0.2500 0.2500  plane waves:    7310
 k-point  83 :   0.2750 0.2750 0.2750  plane waves:    7295
 k-point  84 :   0.3000 0.3000 0.3000  plane waves:    7298
 k-point  85 :   0.3250 0.3250 0.3250  plane waves:    7310
 k-point  86 :   0.3500 0.3500 0.3500  plane waves:    7316
 k-point  87 :   0.3750 0.3750 0.3750  plane waves:    7337
 k-point  88 :   0.4000 0.4000 0.4000  plane waves:    7343
 k-point  89 :   0.4250 0.4250 0.4250  plane waves:    7343
 k-point  90 :   0.4500 0.4500 0.4500  plane waves:    7325
 k-point  91 :   0.4750 0.4750 0.4750  plane waves:    7322
 k-point  92 :   0.5000 0.5000 0.5000  plane waves:    7400
 k-point  93 :   0.5000 0.5000 0.5000  plane waves:    7400
 k-point  94 :   0.5089 0.4821 0.5089  plane waves:    7344
 k-point  95 :   0.5179 0.4643 0.5179  plane waves:    7322
 k-point  96 :   0.5268 0.4464 0.5268  plane waves:    7310
 k-point  97 :   0.5357 0.4286 0.5357  plane waves:    7320
 k-point  98 :   0.5446 0.4107 0.5446  plane waves:    7327
 k-point  99 :   0.5536 0.3929 0.5536  plane waves:    7334
 k-point 100 :   0.5625 0.3750 0.5625  plane waves:    7330
 k-point 101 :   0.5714 0.3571 0.5714  plane waves:    7333
 k-point 102 :   0.5804 0.3393 0.5804  plane waves:    7326
 k-point 103 :   0.5893 0.3214 0.5893  plane waves:    7316
 k-point 104 :   0.5982 0.3036 0.5982  plane waves:    7318
 k-point 105 :   0.6071 0.2857 0.6071  plane waves:    7316
 k-point 106 :   0.6161 0.2679 0.6161  plane waves:    7310
 k-point 107 :   0.6250 0.2500 0.6250  plane waves:    7304
 k-point 108 :   0.6250 0.2500 0.6250  plane waves:    7304
 k-point 109 :   0.6094 0.2500 0.6406  plane waves:    7299
 k-point 110 :   0.5938 0.2500 0.6562  plane waves:    7303
 k-point 111 :   0.5781 0.2500 0.6719  plane waves:    7309
 k-point 112 :   0.5625 0.2500 0.6875  plane waves:    7311
 k-point 113 :   0.5469 0.2500 0.7031  plane waves:    7318
 k-point 114 :   0.5312 0.2500 0.7188  plane waves:    7307
 k-point 115 :   0.5156 0.2500 0.7344  plane waves:    7314
 k-point 116 :   0.5000 0.2500 0.7500  plane waves:    7332
 k-point 117 :   0.5000 0.2500 0.7500  plane waves:    7332
 k-point 118 :   0.5000 0.2656 0.7344  plane waves:    7316
 k-point 119 :   0.5000 0.2812 0.7187  plane waves:    7312
 k-point 120 :   0.5000 0.2969 0.7031  plane waves:    7324
 k-point 121 :   0.5000 0.3125 0.6875  plane waves:    7324
 k-point 122 :   0.5000 0.3281 0.6719  plane waves:    7318
 k-point 123 :   0.5000 0.3438 0.6562  plane waves:    7320
 k-point 124 :   0.5000 0.3594 0.6406  plane waves:    7336
 k-point 125 :   0.5000 0.3750 0.6250  plane waves:    7344
 k-point 126 :   0.5000 0.3906 0.6094  plane waves:    7324
 k-point 127 :   0.5000 0.4062 0.5938  plane waves:    7324
 k-point 128 :   0.5000 0.4219 0.5781  plane waves:    7324
 k-point 129 :   0.5000 0.4375 0.5625  plane waves:    7326
 k-point 130 :   0.5000 0.4531 0.5469  plane waves:    7316
 k-point 131 :   0.5000 0.4688 0.5312  plane waves:    7332
 k-point 132 :   0.5000 0.4844 0.5156  plane waves:    7342
 k-point 133 :   0.5000 0.5000 0.5000  plane waves:    7400
 k-point 134 :   0.5000 0.5000 0.5000  plane waves:    7400
 k-point 135 :   0.4911 0.4911 0.5179  plane waves:    7344
 k-point 136 :   0.4821 0.4821 0.5357  plane waves:    7322
 k-point 137 :   0.4732 0.4732 0.5536  plane waves:    7310
 k-point 138 :   0.4643 0.4643 0.5714  plane waves:    7320
 k-point 139 :   0.4554 0.4554 0.5893  plane waves:    7327
 k-point 140 :   0.4464 0.4464 0.6071  plane waves:    7334
 k-point 141 :   0.4375 0.4375 0.6250  plane waves:    7330
 k-point 142 :   0.4286 0.4286 0.6429  plane waves:    7333
 k-point 143 :   0.4196 0.4196 0.6607  plane waves:    7326
 k-point 144 :   0.4107 0.4107 0.6786  plane waves:    7316
 k-point 145 :   0.4018 0.4018 0.6964  plane waves:    7318
 k-point 146 :   0.3929 0.3929 0.7143  plane waves:    7316
 k-point 147 :   0.3839 0.3839 0.7321  plane waves:    7310
 k-point 148 :   0.3750 0.3750 0.7500  plane waves:    7304
 k-point 149 :   0.6250 0.2500 0.6250  plane waves:    7304
 k-point 150 :   0.6094 0.2188 0.6094  plane waves:    7310
 k-point 151 :   0.5938 0.1875 0.5938  plane waves:    7320
 k-point 152 :   0.5781 0.1562 0.5781  plane waves:    7310
 k-point 153 :   0.5625 0.1250 0.5625  plane waves:    7309
 k-point 154 :   0.5469 0.0938 0.5469  plane waves:    7307
 k-point 155 :   0.5312 0.0625 0.5312  plane waves:    7305
 k-point 156 :   0.5156 0.0312 0.5156  plane waves:    7309
 k-point 157 :   0.5000 0.0000 0.5000  plane waves:    7316

 maximum and minimum number of plane-waves per node :       758      698

 maximum number of plane-waves:      7400
 maximum index in each direction: 
   IXMAX=   12   IYMAX=   12   IZMAX=   12
   IXMIN=  -12   IYMIN=  -12   IZMIN=  -12


 parallel 3D FFT for wavefunctions:
    minimum data exchange during FFTs selected (reduces bandwidth)
 parallel 3D FFT for charge:
    minimum data exchange during FFTs selected (reduces bandwidth)


 total amount of memory used by VASP MPI-rank0    89475. kBytes
=======================================================================

   base      :      30000. kBytes
   nonl-proj :      34280. kBytes
   fftplans  :        680. kBytes
   grid      :        988. kBytes
   one-center:         15. kBytes
   wavefun   :      23512. kBytes
 
     INWAV:  cpu time      0.0000: real time      0.0000
 initial charge density was supplied:
 number of electron      71.9999994 magnetization 
 keeping initial charge density in first step


--------------------------------------------------------------------------------------------------------


 Maximum index for augmentation-charges          965 (set IRDMAX)


--------------------------------------------------------------------------------------------------------


 First call to EWALD:  gamma=   0.313
 Maximum number of real-space cells 3x 3x 3
 Maximum number of reciprocal cells 3x 3x 3

    FEWALD:  cpu time      0.0035: real time      0.0037


--------------------------------------- Ionic step        1  -------------------------------------------




--------------------------------------- Iteration      1(   1)  ---------------------------------------


    POTLOK:  cpu time      0.0173: real time      0.0871
    SETDIJ:  cpu time      0.1542: real time      0.1551
     EDDAV:  cpu time     11.3706: real time     12.9248
       DOS:  cpu time      0.0078: real time      0.0082
    --------------------------------------------
      LOOP:  cpu time     11.5499: real time     13.1751

 eigenvalue-minimisations  : 63444
 total energy-change (2. order) : 0.7677010E+03  (-0.2639813E+04)
 number of electron      71.9999994 magnetization 
 augmentation part       71.9999994 magnetization 

 Free energy of the ion-electron system (eV)
  ---------------------------------------------------
  alpha Z        PSCENC =       240.03196352
  Ewald energy   TEWEN  =     -5054.07144589
  -Hartree energ DENC   =     -2889.57098310
  -exchange      EXHF   =         0.00000000
  -V(xc)+E(xc)   XCENC  =       135.81514168
  PAW double counting   =      8021.67953426    -9273.66907609
  entropy T*S    EENTRO =        -0.00014991
  eigenvalues    EBANDS =       315.94231629
  atomic energy  EATOM  =      9271.54367517
  Solvation  Ediel_sol  =         0.00000000
  ---------------------------------------------------
  free energy    TOTEN  =       767.70097594 eV

  energy without entropy =      767.70112584  energy(sigma->0) =      767.70105089


--------------------------------------------------------------------------------------------------------




--------------------------------------- Iteration      1(   2)  ---------------------------------------


     EDDAV:  cpu time      8.2473: real time      8.2741
       DOS:  cpu time      0.0064: real time      0.0064
    --------------------------------------------
      LOOP:  cpu time      8.2537: real time      8.2805

 eigenvalue-minimisations  : 45216
 total energy-change (2. order) :-0.6686275E+03  (-0.5188332E+03)
 number of electron      71.9999994 magnetization 
 augmentation part       71.9999994 magnetization 

 Free energy of the ion-electron system (eV)
  ---------------------------------------------------
  alpha Z        PSCENC =       240.03196352
  Ewald energy   TEWEN  =     -5054.07144589
  -Hartree energ DENC   =     -2889.57098310
  -exchange      EXHF   =         0.00000000
  -V(xc)+E(xc)   XCENC  =       135.81514168
  PAW double counting   =      8021.67953426    -9273.66907609
  entropy T*S    EENTRO =        -0.00000789
  eigenvalues    EBANDS =      -352.68533680
  atomic energy  EATOM  =      9271.54367517
  Solvation  Ediel_sol  =         0.00000000
  ---------------------------------------------------
  free energy    TOTEN  =        99.07346486 eV

  energy without entropy =       99.07347275  energy(sigma->0) =       99.07346881


--------------------------------------------------------------------------------------------------------




--------------------------------------- Iteration      1(   3)  ---------------------------------------


     EDDAV:  cpu time      8.9710: real time      9.0071
       DOS:  cpu time      0.0031: real time      0.0031
    --------------------------------------------
      LOOP:  cpu time      8.9741: real time      9.0103

 eigenvalue-minimisations  : 52140
 total energy-change (2. order) :-0.1260878E+03  (-0.1207520E+03)
 number of electron      71.9999994 magnetization 
 augmentation part       71.9999994 magnetization 

 Free energy of the ion-electron system (eV)
  ---------------------------------------------------
  alpha Z        PSCENC =       240.03196352
  Ewald energy   TEWEN  =     -5054.07144589
  -Hartree energ DENC   =     -2889.57098310
  -exchange      EXHF   =         0.00000000
  -V(xc)+E(xc)   XCENC  =       135.81514168
  PAW double counting   =      8021.67953426    -9273.66907609
  entropy T*S    EENTRO =        -0.00000000
  eigenvalues    EBANDS =      -478.77317341
  atomic energy  EATOM  =      9271.54367517
  Solvation  Ediel_sol  =         0.00000000
  ---------------------------------------------------
  free energy    TOTEN  =       -27.01436386 eV

  energy without entropy =      -27.01436386  energy(sigma->0) =      -27.01436386


--------------------------------------------------------------------------------------------------------




--------------------------------------- Iteration      1(   4)  ---------------------------------------


     EDDAV:  cpu time      9.3021: real time      9.4163
       DOS:  cpu time      0.0023: real time      0.0023
    --------------------------------------------
      LOOP:  cpu time      9.3045: real time      9.4187

 eigenvalue-minimisations  : 54012
 total energy-change (2. order) :-0.6253914E+01  (-0.6214757E+01)
 number of electron      71.9999994 magnetization 
 augmentation part       71.9999994 magnetization 

 Free energy of the ion-electron system (eV)
  ---------------------------------------------------
  alpha Z        PSCENC =       240.03196352
  Ewald energy   TEWEN  =     -5054.07144589
  -Hartree energ DENC   =     -2889.57098310
  -exchange      EXHF   =         0.00000000
  -V(xc)+E(xc)   XCENC  =       135.81514168
  PAW double counting   =      8021.67953426    -9273.66907609
  entropy T*S    EENTRO =        -0.00000000
  eigenvalues    EBANDS =      -485.02708721
  atomic energy  EATOM  =      9271.54367517
  Solvation  Ediel_sol  =         0.00000000
  ---------------------------------------------------
  free energy    TOTEN  =       -33.26827765 eV

  energy without entropy =      -33.26827765  energy(sigma->0) =      -33.26827765


--------------------------------------------------------------------------------------------------------




--------------------------------------- Iteration      1(   5)  ---------------------------------------


     EDDAV:  cpu time     10.1764: real time     10.2169
       DOS:  cpu time      0.0028: real time      0.0028
    --------------------------------------------
      LOOP:  cpu time     10.1792: real time     10.2197

 eigenvalue-minimisations  : 56316
 total energy-change (2. order) :-0.7425671E-01  (-0.7423159E-01)
 number of electron      71.9999994 magnetization 
 augmentation part       71.9999994 magnetization 

 Free energy of the ion-electron system (eV)
  ---------------------------------------------------
  alpha Z        PSCENC =       240.03196352
  Ewald energy   TEWEN  =     -5054.07144589
  -Hartree energ DENC   =     -2889.57098310
  -exchange      EXHF   =         0.00000000
  -V(xc)+E(xc)   XCENC  =       135.81514168
  PAW double counting   =      8021.67953426    -9273.66907609
  entropy T*S    EENTRO =        -0.00000000
  eigenvalues    EBANDS =      -485.10134392
  atomic energy  EATOM  =      9271.54367517
  Solvation  Ediel_sol  =         0.00000000
  ---------------------------------------------------
  free energy    TOTEN  =       -33.34253436 eV

  energy without entropy =      -33.34253436  energy(sigma->0) =      -33.34253436


--------------------------------------------------------------------------------------------------------




--------------------------------------- Iteration      1(   6)  ---------------------------------------


    EDDIAG:  cpu time      2.8648: real time      2.8880
  RMM-DIIS:  cpu time      4.0914: real time      4.1239
    ORTHCH:  cpu time      0.6546: real time      0.6562
       DOS:  cpu time      0.0029: real time      0.0029
    --------------------------------------------
      LOOP:  cpu time      7.6137: real time      7.6710

 eigenvalue-minimisations  : 77517
 total energy-change (2. order) :-0.1376096E-02  (-0.1376096E-02)
 number of electron      71.9999994 magnetization 
 augmentation part       71.9999994 magnetization 

 Free energy of the ion-electron system (eV)
  ---------------------------------------------------
  alpha Z        PSCENC =       240.03196352
  Ewald energy   TEWEN  =     -5054.07144589
  -Hartree energ DENC   =     -2889.57098310
  -exchange      EXHF   =         0.00000000
  -V(xc)+E(xc)   XCENC  =       135.81514168
  PAW double counting   =      8021.67953426    -9273.66907609
  entropy T*S    EENTRO =        -0.00000000
  eigenvalues    EBANDS =      -485.10272001
  atomic energy  EATOM  =      9271.54367517
  Solvation  Ediel_sol  =         0.00000000
  ---------------------------------------------------
  free energy    TOTEN  =       -33.34391046 eV

  energy without entropy =      -33.34391046  energy(sigma->0) =      -33.34391046


--------------------------------------------------------------------------------------------------------




--------------------------------------- Iteration      1(   7)  ---------------------------------------


    EDDIAG:  cpu time      2.8988: real time      2.9219
  RMM-DIIS:  cpu time      3.4072: real time      3.4153
    ORTHCH:  cpu time      0.6448: real time      0.6463
       DOS:  cpu time      0.0024: real time      0.0024
    --------------------------------------------
      LOOP:  cpu time      6.9532: real time      6.9859

 eigenvalue-minimisations  : 75455
 total energy-change (2. order) :-0.2218187E-03  (-0.2224694E-03)
 number of electron      71.9999994 magnetization 
 augmentation part       71.9999994 magnetization 

 Free energy of the ion-electron system (eV)
  ---------------------------------------------------
  alpha Z        PSCENC =       240.03196352
  Ewald energy   TEWEN  =     -5054.07144589
  -Hartree energ DENC   =     -2889.57098310
  -exchange      EXHF   =         0.00000000
  -V(xc)+E(xc)   XCENC  =       135.81514168
  PAW double counting   =      8021.67953426    -9273.66907609
  entropy T*S    EENTRO =        -0.00000000
  eigenvalues    EBANDS =      -485.10294183
  atomic energy  EATOM  =      9271.54367517
  Solvation  Ediel_sol  =         0.00000000
  ---------------------------------------------------
  free energy    TOTEN  =       -33.34413228 eV

  energy without entropy =      -33.34413228  energy(sigma->0) =      -33.34413228


--------------------------------------------------------------------------------------------------------




--------------------------------------- Iteration      1(   8)  ---------------------------------------


    EDDIAG:  cpu time      2.7430: real time      2.7628
WARNING in EDDRMM: call to ZHEGV failed, returncode =   8  4     10
  RMM-DIIS:  cpu time      3.4483: real time      3.4567
    ORTHCH:  cpu time      0.6435: real time      0.6450
       DOS:  cpu time      0.0025: real time      0.0025
    --------------------------------------------
      LOOP:  cpu time      6.8373: real time      6.8670

 eigenvalue-minimisations  : 77626
 total energy-change (2. order) :-0.2338822E-04  (-0.2336028E-04)
 number of electron      71.9999994 magnetization 
 augmentation part       71.9999994 magnetization 

 Free energy of the ion-electron system (eV)
  ---------------------------------------------------
  alpha Z        PSCENC =       240.03196352
  Ewald energy   TEWEN  =     -5054.07144589
  -Hartree energ DENC   =     -2889.57098310
  -exchange      EXHF   =         0.00000000
  -V(xc)+E(xc)   XCENC  =       135.81514168
  PAW double counting   =      8021.67953426    -9273.66907609
  entropy T*S    EENTRO =        -0.00000000
  eigenvalues    EBANDS =      -485.10296522
  atomic energy  EATOM  =      9271.54367517
  Solvation  Ediel_sol  =         0.00000000
  ---------------------------------------------------
  free energy    TOTEN  =       -33.34415567 eV

  energy without entropy =      -33.34415567  energy(sigma->0) =      -33.34415567


--------------------------------------------------------------------------------------------------------




--------------------------------------- Iteration      1(   9)  ---------------------------------------


    EDDIAG:  cpu time      2.7426: real time      2.7660
  RMM-DIIS:  cpu time      2.8060: real time      2.8126
    ORTHCH:  cpu time      0.6364: real time      0.6379
       DOS:  cpu time      0.0026: real time      0.0026
    --------------------------------------------
      LOOP:  cpu time      6.1876: real time      6.2192

 eigenvalue-minimisations  : 62357
 total energy-change (2. order) :-0.3553413E-05  (-0.3653692E-05)
 number of electron      71.9999994 magnetization 
 augmentation part       71.9999994 magnetization 

 Free energy of the ion-electron system (eV)
  ---------------------------------------------------
  alpha Z        PSCENC =       240.03196352
  Ewald energy   TEWEN  =     -5054.07144589
  -Hartree energ DENC   =     -2889.57098310
  -exchange      EXHF   =         0.00000000
  -V(xc)+E(xc)   XCENC  =       135.81514168
  PAW double counting   =      8021.67953426    -9273.66907609
  entropy T*S    EENTRO =        -0.00000000
  eigenvalues    EBANDS =      -485.10296877
  atomic energy  EATOM  =      9271.54367517
  Solvation  Ediel_sol  =         0.00000000
  ---------------------------------------------------
  free energy    TOTEN  =       -33.34415922 eV

  energy without entropy =      -33.34415922  energy(sigma->0) =      -33.34415922


--------------------------------------------------------------------------------------------------------




 average (electrostatic) potential at core
  the test charge radii are     1.0314  1.0621
  (the norm of the test charge is              1.0000)
       1 -66.2669       2 -66.2669       3 -66.2669       4 -66.2669       5 -50.2506
       6 -50.2506       7 -50.2506       8 -50.2506
 
 
 
 E-fermi :   3.8649     XC(G=0):  -9.7514     alpha+bet : -9.6917

 Fermi energy:         3.8648892629

 k-point     1 :       0.0000    0.0000    0.0000
  band No.  band energies     occupation 
      1     -11.1192      2.00000
      2     -11.1192      2.00000
      3     -11.1192      2.00000
      4     -11.0079      2.00000
      5     -11.0079      2.00000
      6     -11.0079      2.00000
      7     -10.9591      2.00000
      8     -10.9591      2.00000
      9     -10.9590      2.00000
     10     -10.9590      2.00000
     11     -10.9590      2.00000
     12     -10.9590      2.00000
     13     -10.9547      2.00000
     14     -10.9547      2.00000
     15     -10.9547      2.00000
     16     -10.9291      2.00000
     17     -10.9291      2.00000
     18     -10.9163      2.00000
     19     -10.9163      2.00000
[...]
     45       9.2385      0.00000
     46       9.3576      0.00000
     47       9.3576      0.00000
     48       9.4797      0.00000
     49       9.5644      0.00000
     50       9.7278      0.00000
     51       9.7278      0.00000
     52       9.7786      0.00000
     53      12.0254      0.00000
     54      12.1192      0.00000
     55      12.1192      0.00000
     56      12.1907      0.00000
     57      13.7416      0.00000
     58      13.9855      0.00000
     59      13.9855      0.00000
     60      14.1678      0.00000
     61      16.0606      0.00000
     62      16.2167      0.00000
     63      16.2167      0.00000
     64      16.3509      0.00000
     65      16.9361      0.00000
     66      16.9884      0.00000
     67      16.9884      0.00000
     68      17.0788      0.00000
     69      17.8013      0.00000
     70      18.0148      0.00000
     71      18.0148      0.00000
     72      18.2491      0.00000
     73      20.7927      0.00000
     74      21.1111      0.00000
     75      21.1111      0.00000
     76      21.3905      0.00000
     77      21.9756      0.00000
     78      21.9954      0.00000
     79      21.9954      0.00000
     80      22.1668      0.00000
     81      22.5466      0.00000
     82      22.7302      0.00000
     83      22.7302      0.00000
     84      22.8580      0.00000
     85      23.8590      0.00000
     86      24.0045      0.00000
     87      24.0045      0.00000
     88      24.0858      0.00000
     89      24.8013      0.00000
     90      25.0890      0.00000
     91      25.0890      0.00000
     92      25.4685      0.00000
     93      25.8563      0.00000
     94      25.9700      0.00000
     95      25.9700      0.00000
     96      26.0444      0.00000
     97      27.0694      0.00000
     98      27.4434      0.00000
     99      27.4434      0.00000
    100      27.7501      0.00000
    101      28.3874      0.00000
    102      28.6328      0.00000
    103      28.6328      0.00000
    104      28.8023      0.00000
    105      29.0734      0.00000
    106      29.2242      0.00000
    107      29.2242      0.00000
    108      29.5156      0.00000
    109      30.1014      0.00000
    110      30.3462      0.00000
    111      30.3462      0.00000
    112      30.5385      0.00000
    113      30.7328      0.00000
    114      30.9788      0.00000
    115      30.9788      0.00000
    116      31.2558      0.00000
    117      31.5203      0.00000
    118      31.5203      0.00000
    119      31.6371      0.00000
    120      31.7494      0.00000
    121      32.5046      0.00000
    122      32.5947      0.00000
    123      32.7114      0.00000
    124      32.7114      0.00000
    125      33.9658      0.00000
    126      34.2867      0.00000
    127      34.2869      0.00000
    128      34.5782      0.00000
    129      35.0750      0.00000
    130      35.3743      0.00000
    131      35.3772      0.00000
    132      35.6655      0.00000
    133      38.1154      0.00000
    134      38.1938      0.00000
    135      38.3614      0.00000
    136      38.4280      0.00000
    137      38.4972      0.00000
    138      38.5742      0.00000
    139      38.6493      0.00000
    140      38.7715      0.00000
    141      38.8387      0.00000
    142      38.9161      0.00000
    143      39.0877      0.00000
    144      39.2059      0.00000

 k-point   157 :       0.5000    0.0000    0.5000
  band No.  band energies     occupation 
      1     -11.0846      2.00000
      2     -11.0846      2.00000
      3     -11.0846      2.00000
      4     -11.0846      2.00000
      5     -10.9849      2.00000
      6     -10.9849      2.00000
      7     -10.9849      2.00000
      8     -10.9849      2.00000
      9     -10.9828      2.00000
     10     -10.9828      2.00000
     11     -10.9828      2.00000
     12     -10.9828      2.00000
     13     -10.9310      2.00000
     14     -10.9310      2.00000
     15     -10.9310      2.00000
     16     -10.9310      2.00000
     17     -10.9289      2.00000
     18     -10.9289      2.00000
     19     -10.9289      2.00000
     20     -10.9289      2.00000
     21      -7.3181      2.00000
     22      -7.3181      2.00000
     23      -7.3181      2.00000
     24      -7.3181      2.00000
     25      -1.8958      2.00000
     26      -1.8958      2.00000
     27      -1.8958      2.00000
     28      -1.8958      2.00000
     29       0.3777      2.00000
     30       0.3777      2.00000
     31       0.3777      2.00000
     32       0.3777      2.00000
     33       2.5410      2.00000
     34       2.5410      2.00000
     35       2.5410      2.00000
     36       2.5410      2.00000
     37       6.4229      0.00000
     38       6.4229      0.00000
     39       6.4229      0.00000
     40       6.4229      0.00000
     41       9.2964      0.00000
     42       9.2964      0.00000
     43       9.2964      0.00000
     44       9.2964      0.00000
     45       9.3727      0.00000
     46       9.3727      0.00000
     47       9.3727      0.00000
     48       9.3727      0.00000
     49       9.4940      0.00000
     50       9.4940      0.00000
     51       9.4940      0.00000
     52       9.4940      0.00000
     53      12.0771      0.00000
     54      12.0771      0.00000
     55      12.0771      0.00000
     56      12.0771      0.00000
     57      13.9887      0.00000
     58      13.9887      0.00000
     59      13.9887      0.00000
     60      13.9887      0.00000
     61      16.3154      0.00000
     62      16.3154      0.00000
     63      16.3154      0.00000
     64      16.3154      0.00000
     65      16.9268      0.00000
     66      16.9268      0.00000
     67      16.9268      0.00000
     68      16.9268      0.00000
     69      17.9597      0.00000
     70      17.9597      0.00000
     71      17.9597      0.00000
     72      17.9597      0.00000
     73      21.1284      0.00000
     74      21.1284      0.00000
     75      21.1284      0.00000
     76      21.1284      0.00000
     77      22.0546      0.00000
     78      22.0546      0.00000
     79      22.0546      0.00000
     80      22.0546      0.00000
     81      22.9158      0.00000
     82      22.9158      0.00000
     83      22.9158      0.00000
     84      22.9158      0.00000
     85      23.7914      0.00000
     86      23.7914      0.00000
     87      23.7914      0.00000
     88      23.7914      0.00000
     89      25.0914      0.00000
     90      25.0914      0.00000
     91      25.0914      0.00000
     92      25.0914      0.00000
     93      25.9026      0.00000
     94      25.9026      0.00000
     95      25.9026      0.00000
     96      25.9026      0.00000
     97      27.4182      0.00000
     98      27.4182      0.00000
     99      27.4182      0.00000
    100      27.4182      0.00000
    101      28.7606      0.00000
    102      28.7606      0.00000
    103      28.7606      0.00000
    104      28.7606      0.00000
    105      29.2064      0.00000
    106      29.2064      0.00000
    107      29.2064      0.00000
    108      29.2064      0.00000
    109      30.3498      0.00000
    110      30.3498      0.00000
    111      30.3498      0.00000
    112      30.3498      0.00000
    113      30.8451      0.00000
    114      30.8451      0.00000
    115      30.8451      0.00000
    116      30.8451      0.00000
    117      31.6763      0.00000
    118      31.6763      0.00000
    119      31.6763      0.00000
    120      31.6763      0.00000
    121      32.5967      0.00000
    122      32.5967      0.00000
    123      32.5967      0.00000
    124      32.5968      0.00000
    125      34.4480      0.00000
    126      34.4480      0.00000
    127      34.4480      0.00000
    128      34.4481      0.00000
    129      35.1407      0.00000
    130      35.1408      0.00000
    131      35.1410      0.00000
    132      35.1415      0.00000
    133      38.5305      0.00000
    134      38.5435      0.00000
    135      38.5543      0.00000
    136      38.5717      0.00000
    137      38.5890      0.00000
    138      38.6439      0.00000
    139      38.7240      0.00000
    140      38.7433      0.00000
    141      38.8192      0.00000
    142      39.0421      0.00000
    143      39.1966      0.00000
    144      39.7059      0.00000


--------------------------------------------------------------------------------------------------------


 soft charge-density along one line, spin component           1
         0         1         2         3         4         5         6         7         8         9
 total charge-density along one line
 
 pseudopotential strength for first ion, spin component:           1
-14.124  -0.000   0.000   0.000  -0.000   2.084  -0.000  -0.000
 -0.000 -14.124   0.000  -0.000  -0.000  -0.000   2.084  -0.000
  0.000   0.000 -14.123  -0.000   0.000  -0.000  -0.000   2.083
  0.000  -0.000  -0.000 -14.124   0.000  -0.000   0.000  -0.000
 -0.000  -0.000   0.000   0.000 -14.123   0.000   0.000   0.000
  2.084  -0.000  -0.000  -0.000   0.000   3.981   0.000   0.000
 -0.000   2.084  -0.000   0.000   0.000   0.000   3.981   0.000
 -0.000  -0.000   2.083  -0.000   0.000   0.000   0.000   3.979
 -0.000   0.000  -0.000   2.084  -0.000   0.000  -0.000   0.000
  0.000   0.000   0.000  -0.000   2.083  -0.000  -0.000  -0.000
  0.000   0.000   0.000  -0.000  -0.000   0.000  -0.000  -0.000
  0.000  -0.000  -0.000   0.000   0.000  -0.000   0.000  -0.000
  0.000  -0.000   0.000  -0.000   0.000   0.000  -0.000   0.000
 -0.000  -0.000  -0.000   0.000   0.000   0.002  -0.000  -0.000
 -0.000  -0.000  -0.000  -0.000  -0.000  -0.000   0.002  -0.000
  0.000  -0.000   0.000  -0.001   0.000  -0.000   0.000  -0.000
 -0.001  -0.000  -0.000   0.000  -0.000  -0.000   0.000   0.000
 -0.000  -0.001  -0.000  -0.000   0.000   0.000  -0.000   0.000
 total augmentation occupancy for first ion, spin component:           1
  2.000   0.000   0.000   0.000   0.000   0.000   0.000   0.000   0.000   0.000   0.000   0.000   0.000   0.000   0.000   0.000
  0.000   2.000   0.000   0.000   0.000   0.000   0.000   0.000   0.000   0.000   0.000   0.000   0.000   0.000   0.000   0.000
  0.000   0.000   2.000   0.000   0.000   0.000   0.000   0.000   0.000   0.000   0.000   0.000   0.000   0.000   0.000   0.000
  0.000   0.000   0.000   2.000   0.000   0.000   0.000   0.000   0.000   0.000   0.000   0.000   0.000   0.000   0.000   0.000
  0.000   0.000   0.000   0.000   2.000   0.000   0.000   0.000   0.000   0.000   0.000   0.000   0.000   0.000   0.000   0.000
  0.000   0.000   0.000   0.000   0.000   0.000   0.000   0.000   0.000   0.000   0.000   0.000   0.000   0.000   0.000   0.000
  0.000   0.000   0.000   0.000   0.000   0.000   0.000   0.000   0.000   0.000   0.000   0.000   0.000   0.000   0.000   0.000
  0.000   0.000   0.000   0.000   0.000   0.000   0.000   0.000   0.000   0.000   0.000   0.000   0.000   0.000   0.000   0.000
  0.000   0.000   0.000   0.000   0.000   0.000   0.000   0.000   0.000   0.000   0.000   0.000   0.000   0.000   0.000   0.000
  0.000   0.000   0.000   0.000   0.000   0.000   0.000   0.000   0.000   0.000   0.000   0.000   0.000   0.000   0.000   0.000
  0.000   0.000   0.000   0.000   0.000   0.000   0.000   0.000   0.000   0.000   2.000   0.000   0.000   0.000   0.000   0.000
  0.000   0.000   0.000   0.000   0.000   0.000   0.000   0.000   0.000   0.000   0.000   0.000   0.000   0.000   0.000   0.000
  0.000   0.000   0.000   0.000   0.000   0.000   0.000   0.000   0.000   0.000   0.000   0.000   0.333   0.000   0.000   0.000
  0.000   0.000   0.000   0.000   0.000   0.000   0.000   0.000   0.000   0.000   0.000   0.000   0.000   0.333   0.000   0.000
  0.000   0.000   0.000   0.000   0.000   0.000   0.000   0.000   0.000   0.000   0.000   0.000   0.000   0.000   0.333   0.000
  0.000   0.000   0.000   0.000   0.000   0.000   0.000   0.000   0.000   0.000   0.000   0.000   0.000   0.000   0.000   0.000
  0.000   0.000   0.000   0.000   0.000   0.000   0.000   0.000   0.000   0.000   0.000   0.000   0.000   0.000   0.000   0.000
  0.000   0.000   0.000   0.000   0.000   0.000   0.000   0.000   0.000   0.000   0.000   0.000   0.000   0.000   0.000   0.000


------------------------ aborting loop because EDIFF is reached ----------------------------------------





 total charge

# of ion       s       p       d       tot
------------------------------------------
    1        0.848   0.812   9.998  11.658
    2        0.848   0.812   9.998  11.658
    3        0.848   0.812   9.998  11.658
    4        0.848   0.812   9.998  11.658
    5        1.192   1.660   0.030   2.881
    6        1.192   1.660   0.030   2.881
    7        1.192   1.660   0.030   2.881
    8        1.192   1.660   0.030   2.881
--------------------------------------------------
tot          8.158   9.885  40.111  58.154
 
    CHARGE:  cpu time      0.0494: real time      0.0832
    FORLOC:  cpu time      0.0010: real time      0.0010
    FORNL :  cpu time      0.8015: real time      0.8040
    STRESS:  cpu time      1.4528: real time      1.4566
    FORCOR:  cpu time      0.0103: real time      0.0106
    FORHAR:  cpu time      0.0045: real time      0.0048
    OFIELD:  cpu time      0.0007: real time      0.0007

  FORCE on cell =-STRESS in cart. coord.  units (eV):
  Direction    XX          YY          ZZ          XY          YZ          ZX
  --------------------------------------------------------------------------------------
  Alpha Z   240.03196   240.03196   240.03196
  Ewald   -1684.69273 -1684.69273 -1684.69273    -0.00000    -0.00000    -0.00000
  Hartree   964.38032   961.83612   963.86241    -0.04514     0.45884    -0.09545
  E(xc)    -385.21332  -384.99380  -385.14779     0.08424    -0.10521     0.11377
  Local    -251.05995  -243.03309  -249.02195     1.62496    -2.66213     2.25048
  n-local   186.74266   184.02934   186.00572    -0.86044     1.03661    -1.15626
  augment   480.70114   481.24482   480.84757     0.13537    -0.16053     0.17716
  Kinetic   450.67728   449.97178   450.44062    -1.90826     2.76728    -1.83475
  Fock        0.00000     0.00000     0.00000     0.00000     0.00000     0.00000
  -------------------------------------------------------------------------------------
  Total       1.56736     4.39441     2.32582    -0.96928     1.33486    -0.54505
  in kB      13.83124    38.77854    20.52426    -8.55344    11.77948    -4.80983
  external pressure =       24.38 kB  Pullay stress =        0.00 kB


 VOLUME and BASIS-vectors are now :
 -----------------------------------------------------------------------------
  energy-cutoff  :      680.00
  volume of cell :      181.56
      direct lattice vectors                 reciprocal lattice vectors
     5.662477870  0.000000000  0.000000000     0.176601132  0.000000000  0.000000000
    -0.000000000  5.662477870  0.000000000     0.000000000  0.176601132  0.000000000
     0.000000000  0.000000000  5.662477870    -0.000000000 -0.000000000  0.176601132

  length of vectors
     5.662477870  5.662477870  5.662477870     0.176601132  0.176601132  0.176601132


 FORCES acting on ions
    electron-ion (+dipol)            ewald-force                    non-local-force                 convergence-correction
 -----------------------------------------------------------------------------------------------
   -.845E+00 0.105E+01 0.963E+00   -.568E-13 0.142E-13 0.568E-13   0.340E+00 -.403E+00 -.327E+00   0.518E+00 -.649E+00 -.616E+00
   -.845E+00 0.105E+01 0.963E+00   -.568E-13 0.284E-13 0.568E-13   0.339E+00 -.403E+00 -.327E+00   0.518E+00 -.649E+00 -.616E+00
   -.845E+00 0.105E+01 0.963E+00   -.284E-13 0.284E-13 0.568E-13   0.340E+00 -.403E+00 -.327E+00   0.518E+00 -.649E+00 -.616E+00
   -.844E+00 0.105E+01 0.963E+00   -.568E-13 0.426E-13 0.568E-13   0.339E+00 -.403E+00 -.327E+00   0.518E+00 -.649E+00 -.616E+00
   0.247E+00 -.346E+00 -.311E+00   0.581E-13 -.277E-13 -.578E-13   -.225E+00 0.287E+00 0.236E+00   -.276E-01 0.513E-01 0.479E-01
   0.247E+00 -.346E+00 -.311E+00   0.581E-13 -.283E-13 -.565E-13   -.225E+00 0.287E+00 0.236E+00   -.276E-01 0.513E-01 0.479E-01
   0.247E+00 -.346E+00 -.311E+00   0.556E-13 -.275E-13 -.574E-13   -.225E+00 0.287E+00 0.236E+00   -.276E-01 0.513E-01 0.479E-01
   0.247E+00 -.346E+00 -.311E+00   0.555E-13 -.300E-13 -.561E-13   -.225E+00 0.287E+00 0.236E+00   -.276E-01 0.513E-01 0.479E-01
 -----------------------------------------------------------------------------------------------
   -.239E+01 0.281E+01 0.261E+01   0.284E-13 0.188E-15 -.410E-15   0.460E+00 -.463E+00 -.365E+00   0.196E+01 -.239E+01 -.227E+01
 
 
 POSITION                                       TOTAL-FORCE (eV/Angst)
 -----------------------------------------------------------------------------------
      0.00000      0.00000      0.00000         0.008781      0.002693      0.023958
      2.83124      2.83124      0.00000         0.008767      0.002657      0.023947
      2.83124      0.00000      2.83124         0.008786      0.002680      0.024001
     -0.00000      2.83124      2.83124         0.008742      0.002718      0.023975
      1.41562      1.41562      1.41562        -0.008769     -0.002688     -0.023969
      1.41562      4.24686      4.24686        -0.008769     -0.002688     -0.023972
      4.24686      4.24686      1.41562        -0.008769     -0.002685     -0.023969
      4.24686      1.41562      4.24686        -0.008769     -0.002687     -0.023972
 -----------------------------------------------------------------------------------
    total drift:                                0.030799     -0.041822     -0.028578


--------------------------------------------------------------------------------------------------------



  FREE ENERGIE OF THE ION-ELECTRON SYSTEM (eV)
  ---------------------------------------------------
  free  energy   TOTEN  =       -33.34415922 eV

  energy  without entropy=      -33.34415922  energy(sigma->0) =      -33.34415922
 


--------------------------------------------------------------------------------------------------------


    POTLOK:  cpu time      0.1648: real time      0.1653


--------------------------------------------------------------------------------------------------------


     LOOP+:  cpu time     78.5572: real time     80.6321
    4ORBIT:  cpu time      0.0000: real time      0.0000



 total charge

# of ion       s       p       d       tot
------------------------------------------
    1        0.848   0.812   9.998  11.658
    2        0.848   0.812   9.998  11.658
    3        0.848   0.812   9.998  11.658
    4        0.848   0.812   9.998  11.658
    5        1.192   1.660   0.030   2.881
    6        1.192   1.660   0.030   2.881
    7        1.192   1.660   0.030   2.881
    8        1.192   1.660   0.030   2.881
--------------------------------------------------
tot          8.158   9.885  40.111  58.154
 

 total amount of memory used by VASP MPI-rank0    89475. kBytes
=======================================================================

   base      :      30000. kBytes
   nonl-proj :      34280. kBytes
   fftplans  :        680. kBytes
   grid      :        988. kBytes
   one-center:         15. kBytes
   wavefun   :      23512. kBytes
 
  
  
 General timing and accounting informations for this job:
 ========================================================
  
                  Total CPU time used (sec):       98.181
                            User time (sec):       93.465
                          System time (sec):        4.715
                         Elapsed time (sec):      110.668
  
                   Maximum memory used (kb):      279652.
                   Average memory used (kb):          N/A
  
                          Minor page faults:        45875
                          Major page faults:            0
                 Voluntary context switches:         9675
