 vasp.6.4.2 20Jul23 (build Mar 15 2024 16:31:38) complex                        
  
 executed on             LinuxIFC date 2025.03.26  17:50:41
 running  120 mpi-ranks, on    3 nodes
 distrk:  each k-point on  120 cores,    1 groups
 distr:  one band on NCORE=  10 cores,   12 groups


--------------------------------------------------------------------------------------------------------


 INCAR:
   ALGO = Normal
   EDIFF = 1e-05
   ENAUG = 1360
   ENCUT = 680
   GGA = Pe
   HFSCREEN = 0.2
   ISMEAR = 0
   ISPIN = 2
   LAECHG = True
   LASPH = True
   LCHARG = True
   LDAU = False
   LELF = False
   LHFCALC = True
   LMIXTAU = True
   LORBIT = 11
   LREAL = False
   LVTOT = True
   LWAVE = True
   MAGMOM = 2*0.6
   NCORE = 10
   NELM = 200
   NSW = 0
   PREC = Accurate
   PRECFOCK = Accurate
   SIGMA = 0.01

 POTCAR:    PAW_PBE Si 05Jan2001                  
 WARNING: For LVTOT=.TRUE., VASP.5.x writes the TOTAL local potential to the
     file LOCPOT. If you want only the Hartree contributions, use LVHAR=.TRUE.
     instead. 

 POTCAR:    PAW_PBE Si 05Jan2001                  
   VRHFIN =Si: s2p2                                                                                 
   LEXCH  = PE                                                                                      
   EATOM  =   103.0669 eV,    7.5752 Ry                                                             
                                                                                                    
   TITEL  = PAW_PBE Si 05Jan2001                                                                    
   LULTRA =        F    use ultrasoft PP ?                                                          
   IUNSCR =        1    unscreen: 0-lin 1-nonlin 2-no                                               
   RPACOR =    1.500    partial core radius                                                         
   POMASS =   28.085; ZVAL   =    4.000    mass and valenz                                          
   RCORE  =    1.900    outmost cutoff radius                                                       
   RWIGS  =    2.480; RWIGS  =    1.312    wigner-seitz radius (au A)                               
   ENMAX  =  245.345; ENMIN  =  184.009 eV                                                          
   ICORE  =        2    local potential                                                             
   LCOR   =        T    correct aug charges                                                         
   LPAW   =        T    paw PP                                                                      
   EAUG   =  322.069                                                                                
   DEXC   =    0.000                                                                                
   RMAX   =    1.950    core radius for proj-oper                                                   
   RAUG   =    1.300    factor for augmentation sphere                                              
   RDEP   =    1.993    radius for radial grids                                                     
   RDEPT  =    1.837    core radius for aug-charge                                                  
                                                                                                    
   Atomic configuration                                                                             
    6 entries                                                                                       
     n  l   j            E        occ.                                                              
     1  0  0.50     -1785.8828   2.0000                                                             
     2  0  0.50      -139.4969   2.0000                                                             
     2  1  1.50       -95.5546   6.0000                                                             
     3  0  0.50       -10.8127   2.0000                                                             
     3  1  0.50        -4.0811   2.0000                                                             
     3  2  1.50        -4.0817   0.0000                                                             
   Description                                                                                      
     l       E           TYP  RCUT    TYP  RCUT                                                     
     0    -10.8127223     23  1.900                                                                 
     0     -7.6451159     23  1.900                                                                 
     1     -4.0811372     23  1.900                                                                 
     1      2.4879257     23  1.900                                                                 
     2     -4.0817478      7  1.900                                                                 
  local pseudopotential read in
  partial core-charges read in
  partial kinetic energy density read in
  atomic valenz-charges read in
  non local Contribution for L=           0  read in
    real space projection operators read in
  non local Contribution for L=           0  read in
    real space projection operators read in
  non local Contribution for L=           1  read in
    real space projection operators read in
  non local Contribution for L=           1  read in
    real space projection operators read in
    PAW grid and wavefunctions read in
 
   number of l-projection  operators is LMAX  =           4
   number of lm-projection operators is LMMAX =           8
 
  PAW_PBE Si 05Jan2001                  :
 energy of atom  1       EATOM= -103.0669
 kinetic energy error for atom=    0.0003 (will be added to EATOM!!)
 
 
 POSCAR: Si2
  positions in direct lattice
  No initial velocities read in
 exchange correlation table for  LEXCH =        8
   RHO(1)=    0.500       N(1)  =     2000
   RHO(2)=  100.500       N(2)  =     4000
 


--------------------------------------------------------------------------------------------------------


 ion  position               nearest neighbor table
   1  0.875  0.875  0.875-   2 2.36   2 2.36   2 2.36   2 2.36
   2  0.125  0.125  0.125-   1 2.36   1 2.36   1 2.36   1 2.36
 
  LATTYP: Found a face centered cubic cell.
 ALAT       =     5.4437031470
  
  Lattice vectors:
  
 A1 = (   3.3335729972,   0.0000000000,   1.9246389981)
 A2 = (   1.1111909993,   3.1429239987,   1.9246389993)
 A3 = (   0.0000000000,   0.0000000000,   3.8492780000)


Analysis of symmetry for initial positions (statically):
=====================================================================
 Subroutine PRICEL returns:
 Original cell was already a primitive cell.
 

 Routine SETGRP: Setting up the symmetry group for a 
 face centered cubic supercell.


 Subroutine GETGRP returns: Found 48 space group operations
 (whereof 12 operations were pure point group operations)
 out of a pool of 48 trial point group operations.


The static configuration has the point symmetry D_3d.
 The point group associated with its full space group is O_h .


Analysis of symmetry for dynamics (positions and initial velocities):
=====================================================================
 Subroutine PRICEL returns:
 Original cell was already a primitive cell.
 

 Routine SETGRP: Setting up the symmetry group for a 
 face centered cubic supercell.


 Subroutine GETGRP returns: Found 48 space group operations
 (whereof 12 operations were pure point group operations)
 out of a pool of 48 trial point group operations.


The dynamic configuration has the point symmetry D_3d.
 The point group associated with its full space group is O_h .


Analysis of structural, dynamic, and magnetic symmetry:
=====================================================================
 Subroutine PRICEL returns:
 Original cell was already a primitive cell.
 

 Routine SETGRP: Setting up the symmetry group for a 
 face centered cubic supercell.


 Subroutine GETGRP returns: Found 48 space group operations
 (whereof 12 operations were pure point group operations)
 out of a pool of 48 trial point group operations.


The overall configuration has the point symmetry D_3d.
 The point group associated with its full space group is O_h .


 Subroutine INISYM returns: Found 48 space group operations
 (whereof 12 operations are pure point group operations),
 and found     1 'primitive' translations


----------------------------------------------------------------------------------------

                                     Primitive cell                                     

  volume of cell :      40.3295

  direct lattice vectors                    reciprocal lattice vectors
     3.333572997  0.000000000  1.924638998     0.299978432 -0.106058350  0.000000000
     1.111190999  3.142923999  1.924638999     0.000000000  0.318175050  0.000000000
     0.000000000  0.000000000  3.849278000    -0.149989216 -0.106058350  0.259788979

  length of vectors
     3.849278400  3.849279410  3.849278000     0.318175161  0.318175050  0.318175190

  position of ions in fractional coordinates (direct lattice)
     0.875000000  0.875000000  0.875000000
     0.125000000  0.125000000  0.125000000

  ion indices of the primitive-cell ions
   primitive index   ion index
                 1           1
                 2           2

----------------------------------------------------------------------------------------

 
 
 KPOINTS: k-points for static calculation at exact

Read explicit list of k-points.

 Found      2 k-points:

 Following reciprocal coordinates:
            Coordinates               Weight
  0.000000  0.000000  0.000000      0.500000
  0.375000  0.375000  0.000000      0.500000

 Following cartesian coordinates:
            Coordinates               Weight
  0.000000  0.000000  0.000000      0.500000
  0.112492  0.079544  0.000000      0.500000
 
 
 Subroutine IBZKPT_HF returns following result:
 ==============================================
 
 Found      7 k-points in 1st BZ
 the following      7 k-points will be used (e.g. in the exchange kernel)
 Following reciprocal coordinates:   # in IRBZ
  0.000000  0.000000  0.000000    0.50000000   1 t-inv F
  0.375000  0.375000  0.000000    0.08333333   2 t-inv F
 -0.375000 -0.375000  0.000000    0.08333333   2 t-inv F
  0.000000  0.375000  0.375000    0.08333333   2 t-inv F
  0.000000 -0.375000 -0.375000    0.08333333   2 t-inv F
  0.375000  0.000000  0.375000    0.08333333   2 t-inv F
 -0.375000  0.000000 -0.375000    0.08333333   2 t-inv F


--------------------------------------------------------------------------------------------------------




 Dimension of arrays:
   k-points           NKPTS =      2   k-points in BZ     NKDIM =      7   number of bands    NBANDS=     12
   number of dos      NEDOS =    301   number of ions     NIONS =      2
   non local maximal  LDIM  =      4   non local SUM 2l+1 LMDIM =      8
   total plane-waves  NPLWV =  46656
   max r-space proj   IRMAX =      1   max aug-charges    IRDMAX=  38875
   dimension x,y,z NGX =    36 NGY =   36 NGZ =   36
   dimension x,y,z NGXF=    72 NGYF=   72 NGZF=   72
   support grid    NGXF=    72 NGYF=   72 NGZF=   72
   ions per type =               2
   NGX,Y,Z   is equivalent  to a cutoff of  15.55, 15.55, 15.55 a.u.
   NGXF,Y,Z  is equivalent  to a cutoff of  31.10, 31.10, 31.10 a.u.

 SYSTEM =  unknown system                          
 POSCAR =  Si2                                     

 Startparameter for this run:
   NWRITE =      2    write-flag & timer
   PREC   = accura    normal or accurate (medium, high low for compatibility)
   ISTART =      0    job   : 0-new  1-cont  2-samecut
   ICHARG =      2    charge: 1-file 2-atom 10-const
   ISPIN  =      2    spin polarized calculation?
   LNONCOLLINEAR =      F non collinear calculations
   LSORBIT =      F    spin-orbit coupling
   INIWAV =      1    electr: 0-lowe 1-rand  2-diag
   LASPH  =      T    aspherical Exc in radial PAW
 Electronic Relaxation 1
   ENCUT  =  680.0 eV  49.98 Ry    7.07 a.u.   8.18  8.18  8.18*2*pi/ulx,y,z
   ENINI  =  680.0     initial cutoff
   ENAUG  = 1360.0 eV  augmentation charge cutoff
   NELM   =    200;   NELMIN=  2; NELMDL=  0     # of ELM steps 
   EDIFF  = 0.1E-04   stopping-criterion for ELM
   LREAL  =      F    real-space projection
   NLSPLINE    = F    spline interpolate recip. space projectors
   LCOMPAT=      F    compatible to vasp.4.4
   GGA_COMPAT  = T    GGA compatible to vasp.4.4-vasp.4.6
   LMAXPAW     = -100 max onsite density
   LMAXMIX     =    2 max onsite mixed and CHGCAR
   VOSKOWN=      0    Vosko Wilk Nusair interpolation
   ROPT   =    0.00000
 Ionic relaxation
   EDIFFG = 0.1E-03   stopping-criterion for IOM
   NSW    =      0    number of steps for IOM
   NBLOCK =      1;   KBLOCK =      1    inner block; outer block 
   IBRION =     -1    ionic relax: 0-MD 1-quasi-New 2-CG
   NFREE  =      0    steps in history (QN), initial steepest desc. (CG)
   ISIF   =      0    stress and relaxation
   IWAVPR =     10    prediction:  0-non 1-charg 2-wave 3-comb
   ISYM   =      3    0-nonsym 1-usesym 2-fastsym
   LCORR  =      T    Harris-Foulkes like correction to forces

   POTIM  = 0.5000    time-step for ionic-motion
   TEIN   =    0.0    initial temperature
   TEBEG  =    0.0;   TEEND  =   0.0 temperature during run
   SMASS  =  -3.00    Nose mass-parameter (am)
   estimated Nose-frequenzy (Omega)   =  0.10E-29 period in steps = 0.13E+47 mass=  -0.339E-27a.u.
   SCALEE = 1.0000    scale energy and forces
   NPACO  =    256;   APACO  = 10.0  distance and # of slots for P.C.
   PSTRESS=    0.0 pullay stress

  Mass of Ions in am
   POMASS =  28.09
  Ionic Valenz
   ZVAL   =   4.00
  Atomic Wigner-Seitz radii
   RWIGS  =  -1.00
  virtual crystal weights 
   VCA    =   1.00
   NELECT =       8.0000    total number of electrons
   NUPDOWN=      -1.0000    fix difference up-down

 DOS related values:
   EMIN   =  10.00;   EMAX   =-10.00  energy-range for DOS
   EFERMI =   0.00;   METHOD = LEGACY      
   ISMEAR =     0;   SIGMA  =   0.01  broadening in eV -4-tet -1-fermi 0-gaus

 Electronic relaxation 2 (details)
   IALGO  =     38    algorithm
   LDIAG  =      T    sub-space diagonalisation (order eigenvalues)
   LSUBROT=      F    optimize rotation matrix (better conditioning)
   TURBO    =      0    0=normal 1=particle mesh
   IRESTART =      0    0=no restart 2=restart with 2 vectors
   NREBOOT  =      0    no. of reboots
   NMIN     =      0    reboot dimension
   EREF     =   0.00    reference energy to select bands
   IMIX   =      1    mixing-type and parameters
     AMIX     =   0.40;   BMIX     =  1.00
     AMIX_MAG =   1.60;   BMIX_MAG =  1.00
     AMIN     =   0.10
     WC   =   100.;   INIMIX=   1;  MIXPRE=   1;  MAXMIX= -45

 Intra band minimization:
   WEIMIN = 0.0000     energy-eigenvalue tresh-hold
   EBREAK =  0.21E-06  absolut break condition
   DEPER  =   0.30     relativ break condition  

   TIME   =   0.40     timestep for ELM

  volume/ion in A,a.u.               =      20.16       136.08
  Fermi-wavevector in a.u.,A,eV,Ry     =   0.954766  1.804247 12.402783  0.911579
  Thomas-Fermi vector in A             =   2.083543
 
 Write flags
   LWAVE        =      T    write WAVECAR
   LDOWNSAMPLE  =      F    k-point downsampling of WAVECAR
   LCHARG       =      T    write CHGCAR
   LVTOT        =      T    write LOCPOT, total local potential
   LVHAR        =      F    write LOCPOT, Hartree potential only
   LELF         =      F    write electronic localiz. function (ELF)
   LORBIT       =     11    0 simple, 1 ext, 2 COOP (PROOUT), +10 PAW based schemes


 Dipole corrections
   LMONO  =      F    monopole corrections only (constant potential shift)
   LDIPOL =      F    correct potential (dipole corrections)
   IDIPOL =      0    1-x, 2-y, 3-z, 4-all directions 
   EPSILON=  1.0000000 bulk dielectric constant

 Exchange correlation treatment:
   GGA     =    PE    GGA type
   LEXCH   =     8    internal setting for exchange type
   LIBXC   =     F    Libxc                    
   VOSKOWN =     0    Vosko Wilk Nusair interpolation
   EXXOEP  =     0    0=HF, 1=EXX-LHF (local Hartree Fock) 2=EXX OEP
   LHFCALC =     T    Hartree Fock is set to
   LSYMGRAD=     F    symmetrize gradient (conserves proper symmetry)
   PRECFOCK=accur.    Normal, Fast or Accurate (Low or Medium for compatibility)
   LRHFCALC=     F    long range Hartree Fock
   LRSCOR  =     F    long range correlation only (use DFT for short range part)
   LTHOMAS =     F    Thomas Fermi screening in HF
   LMODELHF=     F    short range full HF, long range fraction AEXX
   FOCKCORR=     1    mode to apply convergence corrections
   LFOCKACE=     T    use Adeptively-Compressed-Exchange operator
   ENCUT4O =  -1.0   cutoff for four orbital integrals eV
   LMAXFOCK=     4    L truncation for augmentation on plane wave grid
   LMAXFOCKAE=  -1    L truncation for all-electron charge restoration on plane wave grid
   NMAXFOCKAE=   1    number of basis functions for all-electron charge restoration
   LFOCKAEDFT=     F  apply the AE augmentation even for DFT
   NKREDX  =     1    reduce k-point grid by
   NKREDY  =     1    reduce k-point grid by
   NKREDZ  =     1    reduce k-point grid by
   SHIFTRED=     F    shift reduced grid of Gamma
   HFKIDENT=     F    idential grid for each k-point
   ODDONLY =     F    use only odd q-grid points
   EVENONLY=     F    use only even q-grid points
   HFALPHA =   -1.0000 decay constant for conv. correction
   MCALPHA =    0.0000 extent of test-charge in conv. correction in multipole expansion
   AEXX    =    0.2500 exact exchange contribution
   HFSCREEN=    0.2000 screening length (either q_TF or 0.3 A-1)
   HFSCREENC=   0.2000 screening length for correlation (either q_TF or 0.3 A-1)
   HFRCUT  =    0.0000 spherical cutoff for potential kernel
   ALDAX   =    0.7500 LDA exchange part
   AGGAX   =    0.7500 GGA exchange part
   ALDAC   =    1.0000 LDA correlation
   AGGAC   =    1.0000 GGA correlation
   ENCUTFOCK=  -1.0 apply spherical cutoff to Coloumb kernel
   NBANDSGWLOW=     1    first orbital included in HF term
   NBLOCK_FOCK=    64    blocking factor in FOCK_ACC

 Linear response parameters
   LEPSILON=     F    determine dielectric tensor
   LRPA    =     F    only Hartree local field effects (RPA)
   LNABLA  =     F    use nabla operator in PAW spheres
   LVEL    =     F    velocity operator in full k-point grid
   CSHIFT  =0.1000    complex shift for real part using Kramers Kronig
   OMEGAMAX=  -1.0    maximum frequency
   DEG_THRESHOLD= 0.2000000E-02 threshold for treating states as degnerate
   RTIME   =   -0.100 relaxation time in fs
  (WPLASMAI=    0.000 imaginary part of plasma frequency in eV, 0.658/RTIME)
   DFIELD  = 0.0000000 0.0000000 0.0000000 field for delta impulse in time
 
  Optional k-point grid parameters
   LKPOINTS_OPT  =     F    use optional k-point grid
   KPOINTS_OPT_MODE=     1    mode for optional k-point grid
 
 Orbital magnetization related:
   ORBITALMAG=     F  switch on orbital magnetization
   LCHIMAG   =     F  perturbation theory with respect to B field
   DQ        =  0.001000  dq finite difference perturbation B field
   LLRAUG    =     F  two centre corrections for induced B field
   LBONE     =     F  B-component reconstruction in AE one-centre
   LVGVCALC  =     T  calculate vGv susceptibility
   LVGVAPPL  =     F  apply vGv susceptibility instead of pGv for G=0

 Random number generation:
   RANDOM_GENERATOR = DEFAULT
   PCG_SEED         = not used


--------------------------------------------------------------------------------------------------------


 Static calculation
 charge density and potential will be updated during run
 spin polarized calculation
 Variant of blocked Davidson
 Davidson routine will perform the subspace rotation
 perform sub-space diagonalisation
    after iterative eigenvector-optimisation
 Kerker-like  mixing scheme
 using additional bands            8
 reciprocal scheme for non local part
 use partial core corrections
 calculate Harris-corrections to forces 
   (improved forces if not selfconsistent)
 use gradient corrections 
 use of overlap-Matrix (Vanderbilt PP)
 Gauss-broadening in eV      SIGMA  =   0.01


--------------------------------------------------------------------------------------------------------


  energy-cutoff  :      680.00
  volume of cell :       40.33
      direct lattice vectors                 reciprocal lattice vectors
     3.333572997  0.000000000  1.924638998     0.299978432 -0.106058350  0.000000000
     1.111190999  3.142923999  1.924638999     0.000000000  0.318175050  0.000000000
     0.000000000  0.000000000  3.849278000    -0.149989216 -0.106058350  0.259788979

  length of vectors
     3.849278400  3.849279410  3.849278000     0.318175161  0.318175050  0.318175190


 
 k-points in units of 2pi/SCALE and weight: k-points for static calculation at exact
   0.00000000  0.00000000  0.00000000       0.500
   0.11249191  0.07954376  0.00000000       0.500
 
 k-points in reciprocal lattice and weights: k-points for static calculation at exact
   0.00000000  0.00000000  0.00000000       0.500
   0.37500000  0.37500000  0.00000000       0.500
 
 position of ions in fractional coordinates (direct lattice) 
   0.87500000  0.87500000  0.87500000
   0.12500000  0.12500000  0.12500000
 
 position of ions in cartesian coordinates  (Angst):
   3.88916850  2.75005850  6.73623650
   0.55559550  0.39286550  0.96231950
 


--------------------------------------------------------------------------------------------------------


 k-point   1 :   0.0000 0.0000 0.0000  plane waves:    1639
 k-point   2 :   0.3750 0.3750 0.0000  plane waves:    1624

 maximum and minimum number of plane-waves per node :       173      159

 maximum number of plane-waves:      1639
 maximum index in each direction: 
   IXMAX=    8   IYMAX=    8   IZMAX=    8
   IXMIN=   -8   IYMIN=   -8   IZMIN=   -8


 parallel 3D FFT for wavefunctions:
    minimum data exchange during FFTs selected (reduces bandwidth)
 parallel 3D FFT for charge:
    minimum data exchange during FFTs selected (reduces bandwidth)

 
 Radii for the augmentation spheres in the non-local exchange
 for species   1 augmentation radius   1.237 (default was   0.989)
       energy cutoff for augmentation   2720.0

 real space projection operators:
  total allocation   :       1284.75 KBytes
  max/ min on nodes  :        159.54         84.94

 Maximum index for augmentation-charges in exchange         1076
  SETUP_FOCK is finished

 total amount of memory used by VASP MPI-rank0    31865. kBytes
=======================================================================

   base      :      30000. kBytes
   nonl-proj :         30. kBytes
   fftplans  :        508. kBytes
   grid      :        800. kBytes
   one-center:          6. kBytes
   HF        :          4. kBytes
   nonlr-proj:        504. kBytes
   wavefun   :         13. kBytes
 
     INWAV:  cpu time      0.0000: real time      0.0000
 initial charge density was supplied:
 charge density of overlapping atoms calculated
 number of electron       8.0000000 magnetization       1.2000000
 keeping initial charge density in first step


--------------------------------------------------------------------------------------------------------


 Maximum index for augmentation-charges         1039 (set IRDMAX)


--------------------------------------------------------------------------------------------------------


 First call to EWALD:  gamma=   0.517
 Maximum number of real-space cells 3x 3x 3
 Maximum number of reciprocal cells 3x 3x 3

    FEWALD:  cpu time      0.0020: real time      0.0021


--------------------------------------- Ionic step        1  -------------------------------------------




--------------------------------------- Iteration      1(   1)  ---------------------------------------


    POTLOK:  cpu time      0.0255: real time      0.1125
    SETDIJ:  cpu time      0.1586: real time      0.1593
     EDDAV:  cpu time      0.0537: real time      0.5194
       DOS:  cpu time      0.0043: real time      0.0045
    --------------------------------------------
      LOOP:  cpu time      0.2422: real time      0.7957

 eigenvalue-minimisations  :    96
 total energy-change (2. order) :-0.2443557E+03  (-0.3281021E+03)
 number of electron       8.0000000 magnetization       1.2000000
 augmentation part        8.0000000 magnetization       1.2000000

 Free energy of the ion-electron system (eV)
  ---------------------------------------------------
  alpha Z        PSCENC =         3.33880742
  Ewald energy   TEWEN  =      -227.98820653
  -Hartree energ DENC   =       -11.11484529
  -exchange      EXHF   =         0.00000000
  -V(xc)+E(xc)   XCENC  =       -18.55253271
  PAW double counting   =       176.18363791     -391.58776073
  entropy T*S    EENTRO =        -0.00000000
  eigenvalues    EBANDS =        21.36618247
  atomic energy  EATOM  =       203.99906502
  Solvation  Ediel_sol  =         0.00000000
  ---------------------------------------------------
  free energy    TOTEN  =      -244.35565245 eV

  energy without entropy =     -244.35565245  energy(sigma->0) =     -244.35565245
  exchange ACFDT corr.  =         0.00000000  see jH, gK, PRB 81, 115126


--------------------------------------------------------------------------------------------------------




--------------------------------------- Iteration      1(   2)  ---------------------------------------


     EDDAV:  cpu time      0.0154: real time      0.0826
       DOS:  cpu time      0.0001: real time      0.0001
    --------------------------------------------
      LOOP:  cpu time      0.0156: real time      0.0827

 eigenvalue-minimisations  :   120
 total energy-change (2. order) :-0.1501776E+02  (-0.1327372E+02)
 number of electron       8.0000000 magnetization       1.2000000
 augmentation part        8.0000000 magnetization       1.2000000

 Free energy of the ion-electron system (eV)
  ---------------------------------------------------
  alpha Z        PSCENC =         3.33880742
  Ewald energy   TEWEN  =      -227.98820653
  -Hartree energ DENC   =       -11.11484529
  -exchange      EXHF   =         0.00000000
  -V(xc)+E(xc)   XCENC  =       -18.55253271
  PAW double counting   =       176.18363791     -391.58776073
  entropy T*S    EENTRO =        -0.00000000
  eigenvalues    EBANDS =         6.34841852
  atomic energy  EATOM  =       203.99906502
  Solvation  Ediel_sol  =         0.00000000
  ---------------------------------------------------
  free energy    TOTEN  =      -259.37341639 eV

  energy without entropy =     -259.37341639  energy(sigma->0) =     -259.37341639
  exchange ACFDT corr.  =         0.00000000  see jH, gK, PRB 81, 115126


--------------------------------------------------------------------------------------------------------




--------------------------------------- Iteration      1(   3)  ---------------------------------------


     EDDAV:  cpu time      0.0152: real time      0.0446
       DOS:  cpu time      0.0001: real time      0.0001
    --------------------------------------------
      LOOP:  cpu time      0.0153: real time      0.0447

 eigenvalue-minimisations  :   132
 total energy-change (2. order) :-0.3150570E+00  (-0.3150600E+00)
 number of electron       8.0000000 magnetization       1.2000000
 augmentation part        8.0000000 magnetization       1.2000000

 Free energy of the ion-electron system (eV)
  ---------------------------------------------------
  alpha Z        PSCENC =         3.33880742
  Ewald energy   TEWEN  =      -227.98820653
  -Hartree energ DENC   =       -11.11484529
  -exchange      EXHF   =         0.00000000
  -V(xc)+E(xc)   XCENC  =       -18.55253271
  PAW double counting   =       176.18363791     -391.58776073
  entropy T*S    EENTRO =        -0.00000000
  eigenvalues    EBANDS =         6.03336154
  atomic energy  EATOM  =       203.99906502
  Solvation  Ediel_sol  =         0.00000000
  ---------------------------------------------------
  free energy    TOTEN  =      -259.68847337 eV

  energy without entropy =     -259.68847337  energy(sigma->0) =     -259.68847337
  exchange ACFDT corr.  =         0.00000000  see jH, gK, PRB 81, 115126


--------------------------------------------------------------------------------------------------------




--------------------------------------- Iteration      1(   4)  ---------------------------------------


     EDDAV:  cpu time      0.0113: real time      0.0114
       DOS:  cpu time      0.0001: real time      0.0001
    --------------------------------------------
      LOOP:  cpu time      0.0115: real time      0.0116

 eigenvalue-minimisations  :   132
 total energy-change (2. order) :-0.6795178E-03  (-0.6797986E-03)
 number of electron       8.0000000 magnetization       1.2000000
 augmentation part        8.0000000 magnetization       1.2000000

 Free energy of the ion-electron system (eV)
  ---------------------------------------------------
  alpha Z        PSCENC =         3.33880742
  Ewald energy   TEWEN  =      -227.98820653
  -Hartree energ DENC   =       -11.11484529
  -exchange      EXHF   =         0.00000000
  -V(xc)+E(xc)   XCENC  =       -18.55253271
  PAW double counting   =       176.18363791     -391.58776073
  entropy T*S    EENTRO =        -0.00000000
  eigenvalues    EBANDS =         6.03268203
  atomic energy  EATOM  =       203.99906502
  Solvation  Ediel_sol  =         0.00000000
  ---------------------------------------------------
  free energy    TOTEN  =      -259.68915289 eV

  energy without entropy =     -259.68915289  energy(sigma->0) =     -259.68915289
  exchange ACFDT corr.  =         0.00000000  see jH, gK, PRB 81, 115126


--------------------------------------------------------------------------------------------------------




--------------------------------------- Iteration      1(   5)  ---------------------------------------


    POTLOK:  cpu time      0.0179: real time      0.0180
    SETDIJ:  cpu time      0.3770: real time      0.3778
     EDDAV:  cpu time      0.1653: real time      0.2394
       DOS:  cpu time      0.0001: real time      0.0001
    CHARGE:  cpu time      0.0138: real time      0.0422
    MIXING:  cpu time      0.0005: real time      0.0005
    --------------------------------------------
      LOOP:  cpu time      0.5745: real time      0.6780

 eigenvalue-minimisations  :   120
 total energy-change (2. order) : 0.2540050E+03  (-0.2605208E+00)
 number of electron       8.0000000 magnetization      -0.7200000
 augmentation part       -0.3966978 magnetization      -0.7178374

 Free energy of the ion-electron system (eV)
  ---------------------------------------------------
  alpha Z        PSCENC =         3.33880742
  Ewald energy   TEWEN  =      -227.98820653
  -Hartree energ DENC   =       -11.11484529
  -exchange      EXHF   =        12.29007056
  -V(xc)+E(xc)   XCENC  =       -14.85505547
  PAW double counting   =       171.60291941     -143.75928125
  entropy T*S    EENTRO =        -0.00000000
  eigenvalues    EBANDS =         0.80240594
  atomic energy  EATOM  =       203.99906502
  Solvation  Ediel_sol  =         0.00000000
  ---------------------------------------------------
  free energy    TOTEN  =        -5.68412019 eV

  energy without entropy =       -5.68412019  energy(sigma->0) =       -5.68412019
  exchange ACFDT corr.  =         0.00000000  see jH, gK, PRB 81, 115126


--------------------------------------------------------------------------------------------------------




--------------------------------------- Iteration      1(   6)  ---------------------------------------


    POTLOK:  cpu time      0.0180: real time      0.0181
    SETDIJ:  cpu time      0.3737: real time      0.3745
     EDDAV:  cpu time      0.1294: real time      0.1297
       DOS:  cpu time      0.0001: real time      0.0001
    CHARGE:  cpu time      0.0032: real time      0.0032
    MIXING:  cpu time      0.0001: real time      0.0001
    --------------------------------------------
      LOOP:  cpu time      0.5245: real time      0.5259

 eigenvalue-minimisations  :   132
 total energy-change (2. order) : 0.7158198E+00  (-0.4395349E-01)
 number of electron       8.0000000 magnetization       0.4320000
 augmentation part       -0.3848702 magnetization       0.4306176

 Free energy of the ion-electron system (eV)
  ---------------------------------------------------
  alpha Z        PSCENC =         3.33880742
  Ewald energy   TEWEN  =      -227.98820653
  -Hartree energ DENC   =       -14.21731614
  -exchange      EXHF   =        12.46041353
  -V(xc)+E(xc)   XCENC  =       -14.56434621
  PAW double counting   =       567.23558933     -539.52991198
  entropy T*S    EENTRO =        -0.00000000
  eigenvalues    EBANDS =         4.29760520
  atomic energy  EATOM  =       203.99906502
  Solvation  Ediel_sol  =         0.00000000
  ---------------------------------------------------
  free energy    TOTEN  =        -4.96830036 eV

  energy without entropy =       -4.96830036  energy(sigma->0) =       -4.96830036
  exchange ACFDT corr.  =         0.00000000  see jH, gK, PRB 81, 115126


--------------------------------------------------------------------------------------------------------




--------------------------------------- Iteration      1(   7)  ---------------------------------------


    POTLOK:  cpu time      0.0178: real time      0.0179
    SETDIJ:  cpu time      0.3737: real time      0.3746
     EDDAV:  cpu time      0.1259: real time      0.1262
       DOS:  cpu time      0.0001: real time      0.0001
    CHARGE:  cpu time      0.0033: real time      0.0033
    MIXING:  cpu time      0.0001: real time      0.0001
    --------------------------------------------
      LOOP:  cpu time      0.5209: real time      0.5223

 eigenvalue-minimisations  :   120
 total energy-change (2. order) : 0.2333018E+00  (-0.2463425E-01)
 number of electron       8.0000000 magnetization      -0.2592000
 augmentation part       -0.3790560 magnetization      -0.2582039

 Free energy of the ion-electron system (eV)
  ---------------------------------------------------
  alpha Z        PSCENC =         3.33880742
  Ewald energy   TEWEN  =      -227.98820653
  -Hartree energ DENC   =       -16.34459621
  -exchange      EXHF   =        12.32719255
  -V(xc)+E(xc)   XCENC  =       -14.35291684
  PAW double counting   =       966.60540008     -938.96512508
  entropy T*S    EENTRO =        -0.00000000
  eigenvalues    EBANDS =         6.64538107
  atomic energy  EATOM  =       203.99906502
  Solvation  Ediel_sol  =         0.00000000
  ---------------------------------------------------
  free energy    TOTEN  =        -4.73499852 eV

  energy without entropy =       -4.73499852  energy(sigma->0) =       -4.73499852
  exchange ACFDT corr.  =         0.00000000  see jH, gK, PRB 81, 115126


--------------------------------------------------------------------------------------------------------




--------------------------------------- Iteration      1(   8)  ---------------------------------------


    POTLOK:  cpu time      0.0179: real time      0.0180
    SETDIJ:  cpu time      0.3729: real time      0.3738
     EDDAV:  cpu time      0.1265: real time      0.1268
       DOS:  cpu time      0.0001: real time      0.0001
    CHARGE:  cpu time      0.0031: real time      0.0031
    MIXING:  cpu time      0.0001: real time      0.0001
    --------------------------------------------
      LOOP:  cpu time      0.5206: real time      0.5220

 eigenvalue-minimisations  :   120
 total energy-change (2. order) : 0.5656745E-01  (-0.8903651E-02)
 number of electron       8.0000000 magnetization       0.1555200
 augmentation part       -0.3759845 magnetization       0.1548734

 Free energy of the ion-electron system (eV)
  ---------------------------------------------------
  alpha Z        PSCENC =         3.33880742
  Ewald energy   TEWEN  =      -227.98820653
  -Hartree energ DENC   =       -17.63886448
  -exchange      EXHF   =        12.21553307
  -V(xc)+E(xc)   XCENC  =       -14.22206631
  PAW double counting   =      1262.63699869    -1235.02628912
  entropy T*S    EENTRO =        -0.00000000
  eigenvalues    EBANDS =         8.00659117
  atomic energy  EATOM  =       203.99906502
  Solvation  Ediel_sol  =         0.00000000
  ---------------------------------------------------
  free energy    TOTEN  =        -4.67843107 eV

  energy without entropy =       -4.67843107  energy(sigma->0) =       -4.67843107
  exchange ACFDT corr.  =         0.00000000  see jH, gK, PRB 81, 115126


--------------------------------------------------------------------------------------------------------




--------------------------------------- Iteration      1(   9)  ---------------------------------------


    POTLOK:  cpu time      0.0172: real time      0.0174
    SETDIJ:  cpu time      0.3732: real time      0.3741
     EDDAV:  cpu time      0.1264: real time      0.1267
       DOS:  cpu time      0.0003: real time      0.0003
    CHARGE:  cpu time      0.0036: real time      0.0037
    MIXING:  cpu time      0.0001: real time      0.0001
    --------------------------------------------
      LOOP:  cpu time      0.5208: real time      0.5222

 eigenvalue-minimisations  :    96
 total energy-change (2. order) : 0.1006121E-01  (-0.2836598E-02)
 number of electron       8.0000000 magnetization      -0.0933120
 augmentation part       -0.3745285 magnetization      -0.0929580

 Free energy of the ion-electron system (eV)
  ---------------------------------------------------
  alpha Z        PSCENC =         3.33880742
  Ewald energy   TEWEN  =      -227.98820653
  -Hartree energ DENC   =       -18.39091202
  -exchange      EXHF   =        12.15033141
  -V(xc)+E(xc)   XCENC  =       -14.14498912
  PAW double counting   =      1461.19733408    -1433.59901438
  entropy T*S    EENTRO =        -0.00000000
  eigenvalues    EBANDS =         8.76921425
  atomic energy  EATOM  =       203.99906502
  Solvation  Ediel_sol  =         0.00000000
  ---------------------------------------------------
  free energy    TOTEN  =        -4.66836987 eV

  energy without entropy =       -4.66836987  energy(sigma->0) =       -4.66836987
  exchange ACFDT corr.  =         0.00000000  see jH, gK, PRB 81, 115126


--------------------------------------------------------------------------------------------------------




--------------------------------------- Iteration      1(  10)  ---------------------------------------


    POTLOK:  cpu time      0.0200: real time      0.0202
    SETDIJ:  cpu time      0.3729: real time      0.3738
     EDDAV:  cpu time      0.1275: real time      0.1278
       DOS:  cpu time      0.0002: real time      0.0002
    CHARGE:  cpu time      0.0036: real time      0.0037
    MIXING:  cpu time      0.0001: real time      0.0001
    --------------------------------------------
      LOOP:  cpu time      0.5245: real time      0.5258

 eigenvalue-minimisations  :   132
 total energy-change (2. order) :-0.8764413E-04  (-0.8553035E-03)
 number of electron       8.0000000 magnetization       0.0559872
 augmentation part       -0.3739327 magnetization       0.0557661

 Free energy of the ion-electron system (eV)
  ---------------------------------------------------
  alpha Z        PSCENC =         3.33880742
  Ewald energy   TEWEN  =      -227.98820653
  -Hartree energ DENC   =       -18.82375537
  -exchange      EXHF   =        12.11578861
  -V(xc)+E(xc)   XCENC  =       -14.09991876
  PAW double counting   =      1586.08379058    -1558.49012638
  entropy T*S    EENTRO =        -0.00000000
  eigenvalues    EBANDS =         9.19609791
  atomic energy  EATOM  =       203.99906502
  Solvation  Ediel_sol  =         0.00000000
  ---------------------------------------------------
  free energy    TOTEN  =        -4.66845751 eV

  energy without entropy =       -4.66845751  energy(sigma->0) =       -4.66845751
  exchange ACFDT corr.  =         0.00000000  see jH, gK, PRB 81, 115126


--------------------------------------------------------------------------------------------------------




--------------------------------------- Iteration      1(  11)  ---------------------------------------


    POTLOK:  cpu time      0.0192: real time      0.0201
    SETDIJ:  cpu time      0.3750: real time      0.3759
     EDDAV:  cpu time      0.1315: real time      0.1318
       DOS:  cpu time      0.0002: real time      0.0002
    CHARGE:  cpu time      0.0033: real time      0.0033
    MIXING:  cpu time      0.0001: real time      0.0001
    --------------------------------------------
      LOOP:  cpu time      0.5293: real time      0.5314

 eigenvalue-minimisations  :   120
 total energy-change (2. order) :-0.1376649E-02  (-0.2695510E-03)
 number of electron       8.0000000 magnetization      -0.0335923
 augmentation part       -0.3736806 magnetization      -0.0334760

 Free energy of the ion-electron system (eV)
  ---------------------------------------------------
  alpha Z        PSCENC =         3.33880742
  Ewald energy   TEWEN  =      -227.98820653
  -Hartree energ DENC   =       -19.07563997
  -exchange      EXHF   =        12.09817079
  -V(xc)+E(xc)   XCENC  =       -14.07322997
  PAW double counting   =      1660.39819140    -1632.80606956
  entropy T*S    EENTRO =        -0.00000000
  eigenvalues    EBANDS =         9.43907724
  atomic energy  EATOM  =       203.99906502
  Solvation  Ediel_sol  =         0.00000000
  ---------------------------------------------------
  free energy    TOTEN  =        -4.66983416 eV

  energy without entropy =       -4.66983416  energy(sigma->0) =       -4.66983416
  exchange ACFDT corr.  =         0.00000000  see jH, gK, PRB 81, 115126


--------------------------------------------------------------------------------------------------------




--------------------------------------- Iteration      1(  12)  ---------------------------------------


    POTLOK:  cpu time      0.0186: real time      0.0191
    SETDIJ:  cpu time      0.3734: real time      0.3743
     EDDAV:  cpu time      0.1265: real time      0.1268
       DOS:  cpu time      0.0001: real time      0.0001
    CHARGE:  cpu time      0.0032: real time      0.0032
    MIXING:  cpu time      0.0001: real time      0.0001
    --------------------------------------------
      LOOP:  cpu time      0.5219: real time      0.5236

 eigenvalue-minimisations  :   120
 total energy-change (2. order) :-0.9894085E-03  (-0.8755576E-04)
 number of electron       8.0000000 magnetization       0.0201554
 augmentation part       -0.3735887 magnetization       0.0200724

 Free energy of the ion-electron system (eV)
  ---------------------------------------------------
  alpha Z        PSCENC =         3.33880742
  Ewald energy   TEWEN  =      -227.98820653
  -Hartree energ DENC   =       -19.22431178
  -exchange      EXHF   =        12.08916007
  -V(xc)+E(xc)   XCENC  =       -14.05717939
  PAW double counting   =      1703.50485796    -1675.91305186
  entropy T*S    EENTRO =        -0.00000000
  eigenvalues    EBANDS =         9.58003553
  atomic energy  EATOM  =       203.99906502
  Solvation  Ediel_sol  =         0.00000000
  ---------------------------------------------------
  free energy    TOTEN  =        -4.67082357 eV

  energy without entropy =       -4.67082357  energy(sigma->0) =       -4.67082357
  exchange ACFDT corr.  =         0.00000000  see jH, gK, PRB 81, 115126


--------------------------------------------------------------------------------------------------------




--------------------------------------- Iteration      1(  13)  ---------------------------------------


    POTLOK:  cpu time      0.0171: real time      0.0173
    SETDIJ:  cpu time      0.3735: real time      0.3744
     EDDAV:  cpu time      0.1255: real time      0.1258
       DOS:  cpu time      0.0001: real time      0.0001
    CHARGE:  cpu time      0.0030: real time      0.0030
    MIXING:  cpu time      0.0001: real time      0.0001
    --------------------------------------------
      LOOP:  cpu time      0.5194: real time      0.5207

 eigenvalue-minimisations  :   120
 total energy-change (2. order) :-0.5491149E-03  (-0.3365289E-04)
 number of electron       8.0000000 magnetization      -0.0120932
 augmentation part       -0.3735563 magnetization      -0.0120515

 Free energy of the ion-electron system (eV)
  ---------------------------------------------------
  alpha Z        PSCENC =         3.33880742
  Ewald energy   TEWEN  =      -227.98820653
  -Hartree energ DENC   =       -19.31359493
  -exchange      EXHF   =        12.08452982
  -V(xc)+E(xc)   XCENC  =       -14.04739733
  PAW double counting   =      1728.04317768    -1700.45126752
  entropy T*S    EENTRO =        -0.00000000
  eigenvalues    EBANDS =         9.66351369
  atomic energy  EATOM  =       203.99906502
  Solvation  Ediel_sol  =         0.00000000
  ---------------------------------------------------
  free energy    TOTEN  =        -4.67137269 eV

  energy without entropy =       -4.67137269  energy(sigma->0) =       -4.67137269
  exchange ACFDT corr.  =         0.00000000  see jH, gK, PRB 81, 115126


--------------------------------------------------------------------------------------------------------




--------------------------------------- Iteration      1(  14)  ---------------------------------------


    POTLOK:  cpu time      0.0172: real time      0.0174
    SETDIJ:  cpu time      0.3734: real time      0.3743
     EDDAV:  cpu time      0.1252: real time      0.1255
       DOS:  cpu time      0.0001: real time      0.0001
    CHARGE:  cpu time      0.0031: real time      0.0031
    MIXING:  cpu time      0.0001: real time      0.0001
    --------------------------------------------
      LOOP:  cpu time      0.5191: real time      0.5204

 eigenvalue-minimisations  :   120
 total energy-change (2. order) :-0.2777657E-03  (-0.1264702E-04)
 number of electron       8.0000000 magnetization       0.0072559
 augmentation part       -0.3735533 magnetization       0.0072277

 Free energy of the ion-electron system (eV)
  ---------------------------------------------------
  alpha Z        PSCENC =         3.33880742
  Ewald energy   TEWEN  =      -227.98820653
  -Hartree energ DENC   =       -19.36801533
  -exchange      EXHF   =        12.08208413
  -V(xc)+E(xc)   XCENC  =       -14.04138235
  PAW double counting   =      1741.72327195    -1714.13118971
  entropy T*S    EENTRO =        -0.00000000
  eigenvalues    EBANDS =         9.71391494
  atomic energy  EATOM  =       203.99906502
  Solvation  Ediel_sol  =         0.00000000
  ---------------------------------------------------
  free energy    TOTEN  =        -4.67165045 eV

  energy without entropy =       -4.67165045  energy(sigma->0) =       -4.67165045
  exchange ACFDT corr.  =         0.00000000  see jH, gK, PRB 81, 115126


--------------------------------------------------------------------------------------------------------




--------------------------------------- Iteration      1(  15)  ---------------------------------------


    POTLOK:  cpu time      0.0171: real time      0.0173
    SETDIJ:  cpu time      0.3735: real time      0.3744
     EDDAV:  cpu time      0.1248: real time      0.1251
       DOS:  cpu time      0.0001: real time      0.0001
    CHARGE:  cpu time      0.0031: real time      0.0031
    MIXING:  cpu time      0.0001: real time      0.0001
    --------------------------------------------
      LOOP:  cpu time      0.5187: real time      0.5201

 eigenvalue-minimisations  :   120
 total energy-change (2. order) :-0.1357100E-03  (-0.5353816E-05)
 number of electron       8.0000000 magnetization      -0.0043536
 augmentation part       -0.3735592 magnetization      -0.0043395

 Free energy of the ion-electron system (eV)
  ---------------------------------------------------
  alpha Z        PSCENC =         3.33880742
  Ewald energy   TEWEN  =      -227.98820653
  -Hartree energ DENC   =       -19.40170018
  -exchange      EXHF   =        12.08078752
  -V(xc)+E(xc)   XCENC  =       -14.03765459
  PAW double counting   =      1749.18311114    -1721.59087684
  entropy T*S    EENTRO =        -0.00000000
  eigenvalues    EBANDS =         9.74488088
  atomic energy  EATOM  =       203.99906502
  Solvation  Ediel_sol  =         0.00000000
  ---------------------------------------------------
  free energy    TOTEN  =        -4.67178616 eV

  energy without entropy =       -4.67178616  energy(sigma->0) =       -4.67178616
  exchange ACFDT corr.  =         0.00000000  see jH, gK, PRB 81, 115126


--------------------------------------------------------------------------------------------------------




--------------------------------------- Iteration      1(  16)  ---------------------------------------


    POTLOK:  cpu time      0.0179: real time      0.0180
    SETDIJ:  cpu time      0.3734: real time      0.3743
     EDDAV:  cpu time      0.1253: real time      0.1256
       DOS:  cpu time      0.0001: real time      0.0001
    CHARGE:  cpu time      0.0031: real time      0.0031
    MIXING:  cpu time      0.0001: real time      0.0001
    --------------------------------------------
      LOOP:  cpu time      0.5199: real time      0.5213

 eigenvalue-minimisations  :   120
 total energy-change (2. order) :-0.6530990E-04  (-0.2246923E-05)
 number of electron       8.0000000 magnetization       0.0026121
 augmentation part       -0.3735626 magnetization       0.0026012

 Free energy of the ion-electron system (eV)
  ---------------------------------------------------
  alpha Z        PSCENC =         3.33880742
  Ewald energy   TEWEN  =      -227.98820653
  -Hartree energ DENC   =       -19.42282163
  -exchange      EXHF   =        12.08008367
  -V(xc)+E(xc)   XCENC  =       -14.03533056
  PAW double counting   =      1753.09732153    -1725.50495264
  entropy T*S    EENTRO =        -0.00000000
  eigenvalues    EBANDS =         9.76418225
  atomic energy  EATOM  =       203.99906502
  Solvation  Ediel_sol  =         0.00000000
  ---------------------------------------------------
  free energy    TOTEN  =        -4.67185147 eV

  energy without entropy =       -4.67185147  energy(sigma->0) =       -4.67185147
  exchange ACFDT corr.  =         0.00000000  see jH, gK, PRB 81, 115126


--------------------------------------------------------------------------------------------------------




--------------------------------------- Iteration      1(  17)  ---------------------------------------


    POTLOK:  cpu time      0.0180: real time      0.0181
    SETDIJ:  cpu time      0.3737: real time      0.3746
     EDDAV:  cpu time      0.1243: real time      0.1246
       DOS:  cpu time      0.0001: real time      0.0001
    CHARGE:  cpu time      0.0032: real time      0.0032
    MIXING:  cpu time      0.0001: real time      0.0001
    --------------------------------------------
      LOOP:  cpu time      0.5195: real time      0.5209

 eigenvalue-minimisations  :   120
 total energy-change (2. order) :-0.3101367E-04  (-0.9947178E-06)
 number of electron       8.0000000 magnetization      -0.0015673
 augmentation part       -0.3735665 magnetization      -0.0015611

 Free energy of the ion-electron system (eV)
  ---------------------------------------------------
  alpha Z        PSCENC =         3.33880742
  Ewald energy   TEWEN  =      -227.98820653
  -Hartree energ DENC   =       -19.43622675
  -exchange      EXHF   =        12.07970364
  -V(xc)+E(xc)   XCENC  =       -14.03386900
  PAW double counting   =      1755.17339760    -1727.58091768
  entropy T*S    EENTRO =        -0.00000000
  eigenvalues    EBANDS =         9.77636380
  atomic energy  EATOM  =       203.99906502
  Solvation  Ediel_sol  =         0.00000000
  ---------------------------------------------------
  free energy    TOTEN  =        -4.67188248 eV

  energy without entropy =       -4.67188248  energy(sigma->0) =       -4.67188248
  exchange ACFDT corr.  =         0.00000000  see jH, gK, PRB 81, 115126


--------------------------------------------------------------------------------------------------------




--------------------------------------- Iteration      1(  18)  ---------------------------------------


    POTLOK:  cpu time      0.0185: real time      0.0187
    SETDIJ:  cpu time      0.3735: real time      0.3743
     EDDAV:  cpu time      0.1229: real time      0.1232
       DOS:  cpu time      0.0001: real time      0.0001
    CHARGE:  cpu time      0.0031: real time      0.0031
    MIXING:  cpu time      0.0001: real time      0.0001
    --------------------------------------------
      LOOP:  cpu time      0.5182: real time      0.5195

 eigenvalue-minimisations  :   108
 total energy-change (2. order) :-0.1463596E-04  (-0.4387161E-06)
 number of electron       8.0000000 magnetization       0.0009404
 augmentation part       -0.3735693 magnetization       0.0009369

 Free energy of the ion-electron system (eV)
  ---------------------------------------------------
  alpha Z        PSCENC =         3.33880742
  Ewald energy   TEWEN  =      -227.98820653
  -Hartree energ DENC   =       -19.44481868
  -exchange      EXHF   =        12.07949183
  -V(xc)+E(xc)   XCENC  =       -14.03294498
  PAW double counting   =      1756.22981816    -1728.63727212
  entropy T*S    EENTRO =        -0.00000000
  eigenvalues    EBANDS =         9.78416275
  atomic energy  EATOM  =       203.99906502
  Solvation  Ediel_sol  =         0.00000000
  ---------------------------------------------------
  free energy    TOTEN  =        -4.67189712 eV

  energy without entropy =       -4.67189712  energy(sigma->0) =       -4.67189712
  exchange ACFDT corr.  =         0.00000000  see jH, gK, PRB 81, 115126


--------------------------------------------------------------------------------------------------------




--------------------------------------- Iteration      1(  19)  ---------------------------------------


    POTLOK:  cpu time      0.0171: real time      0.0173
    SETDIJ:  cpu time      0.3736: real time      0.3745
     EDDAV:  cpu time      0.1220: real time      0.1223
       DOS:  cpu time      0.0002: real time      0.0002
    --------------------------------------------
      LOOP:  cpu time      0.5129: real time      0.5143

 eigenvalue-minimisations  :    84
 total energy-change (2. order) :-0.6876186E-05  (-0.1938323E-06)
 number of electron       8.0000000 magnetization       0.0009404
 augmentation part       -0.3735693 magnetization       0.0009369

 Free energy of the ion-electron system (eV)
  ---------------------------------------------------
  alpha Z        PSCENC =         3.33880742
  Ewald energy   TEWEN  =      -227.98820653
  -Hartree energ DENC   =       -19.45037856
  -exchange      EXHF   =        12.07937423
  -V(xc)+E(xc)   XCENC  =       -14.03235646
  PAW double counting   =      1756.74599640    -1729.15340036
  entropy T*S    EENTRO =        -0.00000000
  eigenvalues    EBANDS =         9.78919485
  atomic energy  EATOM  =       203.99906502
  Solvation  Ediel_sol  =         0.00000000
  ---------------------------------------------------
  free energy    TOTEN  =        -4.67190400 eV

  energy without entropy =       -4.67190400  energy(sigma->0) =       -4.67190400
  exchange ACFDT corr.  =         0.00000000  see jH, gK, PRB 81, 115126


--------------------------------------------------------------------------------------------------------




 average (electrostatic) potential at core
  the test charge radii are     0.9892
  (the norm of the test charge is              1.0000)
       1 -78.7511       2 -78.7511
 
 
 
 E-fermi :   5.5742     XC(G=0):  -7.5663     alpha+bet :-11.8943

 Fermi energy:         5.5741759026

 spin component 1

 k-point     1 :       0.0000    0.0000    0.0000
  band No.  band energies     occupation 
      1      -7.3157      1.00000
      2       5.4552      1.00000
      3       5.4552      1.00000
      4       5.4552      1.00000
      5       9.3207      0.00000
      6       9.3207      0.00000
      7       9.3207      0.00000
      8      10.5032      0.00000
      9      14.5659      0.00000
     10      14.6075      0.00000
     11      14.6075      0.00000
     12      17.9100      0.00000

 k-point     2 :       0.3750    0.3750    0.0000
  band No.  band energies     occupation 
      1      -4.6478      1.00000
      2      -0.3598      1.00000
      3       2.8729      1.00000
      4       2.8729      1.00000
      5       7.1858      0.00000
      6       8.0759      0.00000
      7      14.9461      0.00000
      8      14.9461      0.00000
      9      17.4067      0.00000
     10      17.8340      0.00000
     11      20.2313      0.00000
     12      20.2314      0.00000
 Fermi energy:         5.5741759026

 spin component 2

 k-point     1 :       0.0000    0.0000    0.0000
  band No.  band energies     occupation 
      1      -7.3155      1.00000
      2       5.4555      1.00000
      3       5.4555      1.00000
      4       5.4555      1.00000
      5       9.3210      0.00000
      6       9.3210      0.00000
      7       9.3210      0.00000
      8      10.5034      0.00000
      9      14.5656      0.00000
     10      14.6078      0.00000
     11      14.6078      0.00000
     12      17.9106      0.00000

 k-point     2 :       0.3750    0.3750    0.0000
  band No.  band energies     occupation 
      1      -4.6475      1.00000
      2      -0.3596      1.00000
      3       2.8732      1.00000
      4       2.8732      1.00000
      5       7.1860      0.00000
      6       8.0761      0.00000
      7      14.9464      0.00000
      8      14.9464      0.00000
      9      17.4070      0.00000
     10      17.8342      0.00000
     11      20.2317      0.00000
     12      20.2317      0.00000


--------------------------------------------------------------------------------------------------------


 soft charge-density along one line, spin component           1
         0         1         2         3         4         5         6         7         8         9
 total charge-density along one line
 
 soft charge-density along one line, spin component           2
         0         1         2         3         4         5         6         7         8         9
 total charge-density along one line
 
 pseudopotential strength for first ion, spin component:           1
 17.773  24.798  -0.000  -0.000  -0.000  -0.000  -0.000  -0.000
 24.798  34.603  -0.000  -0.000  -0.000  -0.000  -0.000  -0.000
 -0.000  -0.000   4.065   0.000  -0.000   7.577   0.000  -0.000
 -0.000  -0.000   0.000   4.065  -0.000   0.000   7.577  -0.000
 -0.000  -0.000  -0.000  -0.000   4.065  -0.000  -0.000   7.577
 -0.000  -0.000   7.577   0.000  -0.000  14.134   0.000  -0.000
 -0.000  -0.000   0.000   7.577  -0.000   0.000  14.134  -0.000
 -0.000  -0.000  -0.000  -0.000   7.577  -0.000  -0.000  14.134
 pseudopotential strength for first ion, spin component:           2
 17.773  24.798  -0.000  -0.000  -0.000  -0.000  -0.000  -0.000
 24.798  34.603  -0.000  -0.000  -0.000  -0.000  -0.000  -0.000
 -0.000  -0.000   4.065   0.000  -0.000   7.577   0.000  -0.000
 -0.000  -0.000   0.000   4.065  -0.000   0.000   7.577  -0.000
 -0.000  -0.000  -0.000  -0.000   4.065  -0.000  -0.000   7.577
 -0.000  -0.000   7.577   0.000  -0.000  14.133   0.000  -0.000
 -0.000  -0.000   0.000   7.577  -0.000   0.000  14.133  -0.000
 -0.000  -0.000  -0.000  -0.000   7.577  -0.000  -0.000  14.133
 total augmentation occupancy for first ion, spin component:           1
 11.901  -6.052   0.000   0.000   0.000  -0.000  -0.000  -0.000
 -6.052   3.105  -0.000  -0.000  -0.000   0.000   0.000   0.000
  0.000  -0.000   3.841  -0.000  -0.000  -0.911   0.000   0.000
  0.000  -0.000  -0.000   3.841   0.000   0.000  -0.911  -0.000
  0.000  -0.000  -0.000   0.000   3.841   0.000  -0.000  -0.911
 -0.000   0.000  -0.911   0.000   0.000   0.225  -0.000  -0.000
 -0.000   0.000   0.000  -0.911  -0.000  -0.000   0.225  -0.000
 -0.000   0.000   0.000  -0.000  -0.911  -0.000  -0.000   0.225
 total augmentation occupancy for first ion, spin component:           2
 -0.000   0.000  -0.000  -0.000  -0.000   0.000   0.000   0.000
  0.000  -0.000   0.000   0.000   0.000  -0.000  -0.000  -0.000
 -0.000   0.000  -0.000   0.000  -0.000   0.000  -0.000   0.000
 -0.000   0.000   0.000  -0.000  -0.000  -0.000   0.000   0.000
 -0.000   0.000  -0.000  -0.000  -0.000   0.000   0.000   0.000
  0.000  -0.000   0.000  -0.000   0.000  -0.000   0.000  -0.000
  0.000  -0.000  -0.000   0.000   0.000   0.000  -0.000  -0.000
  0.000  -0.000   0.000   0.000   0.000  -0.000  -0.000  -0.000


------------------------ aborting loop because EDIFF is reached ----------------------------------------





 total charge

# of ion       s       p       d       tot
------------------------------------------
    1        0.594   1.131   0.000   1.725
    2        0.594   1.131   0.000   1.725
--------------------------------------------------
tot          1.188   2.262   0.000   3.450



 magnetization (x)

# of ion       s       p       d       tot
------------------------------------------
    1       -0.000  -0.000   0.000  -0.000
    2       -0.000  -0.000   0.000  -0.000
--------------------------------------------------
tot         -0.000  -0.000   0.000  -0.000
 
    CHARGE:  cpu time      0.0032: real time      0.0032
    FORLOC:  cpu time      0.0009: real time      0.0009
    FORHF :  cpu time      0.0613: real time      0.0622
    FORNL :  cpu time      0.0060: real time      0.0065
    FORCOR:  cpu time      0.3910: real time      0.3922
    FORHAR:  cpu time      0.0034: real time      0.0037
    MIXING:  cpu time      0.0007: real time      0.0007
    OFIELD:  cpu time      0.0009: real time      0.0012

 VOLUME and BASIS-vectors are now :
 -----------------------------------------------------------------------------
  energy-cutoff  :      680.00
  volume of cell :       40.33
      direct lattice vectors                 reciprocal lattice vectors
     3.333572997  0.000000000  1.924638998     0.299978432 -0.106058350  0.000000000
     1.111190999  3.142923999  1.924638999     0.000000000  0.318175050  0.000000000
     0.000000000  0.000000000  3.849278000    -0.149989216 -0.106058350  0.259788979

  length of vectors
     3.849278400  3.849279410  3.849278000     0.318175161  0.318175050  0.318175190


 FORCES acting on ions
    electron-ion (+dipol)            ewald-force                    non-local-force                 convergence-correction
 -----------------------------------------------------------------------------------------------
   0.841E-05 0.563E-04 0.204E-05   -.886E-05 -.418E-04 -.379E-07   -.553E-21 -.139E-21 -.637E-21   0.514E-06 -.869E-06 -.100E-06
   -.835E-05 -.563E-04 -.209E-05   0.886E-05 0.418E-04 0.379E-07   0.832E-22 -.864E-22 0.132E-21   -.523E-06 0.875E-06 0.873E-07
 -----------------------------------------------------------------------------------------------
   0.568E-07 -.110E-08 -.538E-07   -.602E-15 -.229E-16 -.120E-15   -.470E-21 -.226E-21 -.504E-21   -.921E-08 0.549E-08 -.128E-07
 
 
 POSITION                                       TOTAL-FORCE (eV/Angst)
 -----------------------------------------------------------------------------------
      3.88917      2.75006      6.73624        -0.000000     -0.000000     -0.000000
      0.55560      0.39287      0.96232         0.000000      0.000000      0.000000
 -----------------------------------------------------------------------------------
    total drift:                                0.000000      0.000000     -0.000000


--------------------------------------------------------------------------------------------------------



  FREE ENERGIE OF THE ION-ELECTRON SYSTEM (eV)
  ---------------------------------------------------
  free  energy   TOTEN  =        -4.67190400 eV

  energy  without entropy=       -4.67190400  energy(sigma->0) =       -4.67190400
 


--------------------------------------------------------------------------------------------------------


    POTLOK:  cpu time      0.4008: real time      0.4018


--------------------------------------------------------------------------------------------------------


 writing wavefunctions
     LOOP+:  cpu time      9.6153: real time     10.4474
    4ORBIT:  cpu time      0.0000: real time      0.0000



 total charge

# of ion       s       p       d       tot
------------------------------------------
    1        0.594   1.131   0.000   1.725
    2        0.594   1.131   0.000   1.725
--------------------------------------------------
tot          1.188   2.262   0.000   3.450



 magnetization (x)

# of ion       s       p       d       tot
------------------------------------------
    1       -0.000  -0.000   0.000  -0.000
    2       -0.000  -0.000   0.000  -0.000
--------------------------------------------------
tot         -0.000  -0.000   0.000  -0.000
 

 total amount of memory used by VASP MPI-rank0    34897. kBytes
=======================================================================

   base      :      30000. kBytes
   nonl-proj :         30. kBytes
   fftplans  :        508. kBytes
   grid      :        800. kBytes
   one-center:          6. kBytes
   HF        :          4. kBytes
   nonlr-proj:       1467. kBytes
   wavefun   :         13. kBytes
   fock_wrk  :       2069. kBytes
 
  
  
 General timing and accounting informations for this job:
 ========================================================
  
                  Total CPU time used (sec):       15.988
                            User time (sec):       13.699
                          System time (sec):        2.289
                         Elapsed time (sec):       24.139
  
                   Maximum memory used (kb):      296464.
                   Average memory used (kb):          N/A
  
                          Minor page faults:        37361
                          Major page faults:            0
                 Voluntary context switches:         8790
