<?xml version="1.0" encoding="ISO-8859-1"?>
<modeling>
 <generator>
  <i name="program" type="string">vasp </i>
  <i name="version" type="string">6.4.2  </i>
  <i name="subversion" type="string">20Jul23 (build Mar 15 2024 16:31:38) complex                          parallel </i>
  <i name="platform" type="string">LinuxIFC </i>
  <i name="date" type="string">2025 03 26 </i>
  <i name="time" type="string">17:50:41 </i>
 </generator>
 <incar>
  <i type="string" name="PREC">Accurate</i>
  <i type="string" name="ALGO">Normal</i>
  <i type="int" name="ISPIN">     2</i>
  <i type="int" name="NELM">   200</i>
  <i name="EDIFF">      0.00001000</i>
  <i type="int" name="NSW">     0</i>
  <i name="ENCUT">    680.00000000</i>
  <i name="ENAUG">   1360.00000000</i>
  <v name="MAGMOM">      0.60000000      0.60000000</v>
  <i type="logical" name="LREAL"> F  </i>
  <i type="int" name="ISMEAR">     0</i>
  <i name="SIGMA">      0.01000000</i>
  <i type="logical" name="LWAVE"> T  </i>
  <i type="logical" name="LCHARG"> T  </i>
  <i type="logical" name="LVTOT"> T  </i>
  <i type="int" name="LORBIT">    11</i>
  <i type="logical" name="LELF"> F  </i>
  <i type="logical" name="LASPH"> T  </i>
  <i type="logical" name="LAECHG"> T  </i>
  <i name="HFSCREEN">      0.20000000</i>
  <i type="logical" name="LHFCALC"> T  </i>
  <i type="string" name="GGA">Pe</i>
  <i type="string" name="PRECFOCK">Accurate</i>
  <i type="logical" name="LDAU"> F  </i>
  <i type="logical" name="LMIXTAU"> T  </i>
 </incar>
 <primitive_cell>
  <structure name="primitive_cell" >
   <crystal>
    <varray name="basis" >
     <v>       3.33357300       0.00000000       1.92463900 </v>
     <v>       1.11119100       3.14292400       1.92463900 </v>
     <v>       0.00000000       0.00000000       3.84927800 </v>
    </varray>
    <i name="volume">     40.32952680 </i>
    <varray name="rec_basis" >
     <v>       0.29997843      -0.10605835       0.00000000 </v>
     <v>       0.00000000       0.31817505       0.00000000 </v>
     <v>      -0.14998922      -0.10605835       0.25978898 </v>
    </varray>
   </crystal>
   <varray name="positions" >
    <v>       0.87500000       0.87500000       0.87500000 </v>
    <v>       0.12500000       0.12500000       0.12500000 </v>
   </varray>
  </structure>
  <varray name="primitive_index" >
   <v type="int" >        1 </v>
   <v type="int" >        2 </v>
  </varray>
 </primitive_cell>
 <kpoints>
  <varray name="kpointlist" >
   <v>       0.00000000       0.00000000       0.00000000 </v>
   <v>       0.37500000       0.37500000       0.00000000 </v>
  </varray>
  <varray name="weights" >
   <v>       0.50000000 </v>
   <v>       0.50000000 </v>
  </varray>
 </kpoints>
 <parameters>
  <separator name="general" >
   <i type="string" name="SYSTEM">unknown system</i>
   <i type="logical" name="LCOMPAT"> F  </i>
  </separator>
  <separator name="electronic" >
   <i type="string" name="PREC">accura</i>
   <i name="ENMAX">    680.00000000</i>
   <i name="ENAUG">   1360.00000000</i>
   <i name="EDIFF">      0.00001000</i>
   <i type="int" name="IALGO">    38</i>
   <i type="int" name="IWAVPR">    10</i>
   <i type="int" name="NBANDS">    12</i>
   <i type="int" name="NBANDSLOW">    -1</i>
   <i type="int" name="NBANDSHIGH">    -1</i>
   <i name="NELECT">      8.00000000</i>
   <i type="int" name="TURBO">     0</i>
   <i type="int" name="IRESTART">     0</i>
   <i type="int" name="NREBOOT">     0</i>
   <i type="int" name="NMIN">     0</i>
   <i name="EREF">      0.00000000</i>
   <separator name="electronic smearing" >
    <i type="int" name="ISMEAR">     0</i>
    <i name="SIGMA">      0.01000000</i>
    <i name="KSPACING">      0.50000000</i>
    <i type="logical" name="KGAMMA"> T  </i>
    <i type="logical" name="KBLOWUP"> T  </i>
   </separator>
   <separator name="electronic projectors" >
    <i type="logical" name="LREAL"> F  </i>
    <v name="ROPT">      0.00000000</v>
    <i type="int" name="LMAXPAW">  -100</i>
    <i type="int" name="LMAXMIX">     2</i>
    <i type="logical" name="NLSPLINE"> F  </i>
   </separator>
   <separator name="electronic startup" >
    <i type="int" name="ISTART">     0</i>
    <i type="int" name="ICHARG">     2</i>
    <i type="int" name="INIWAV">     1</i>
   </separator>
   <separator name="electronic spin" >
    <i type="int" name="ISPIN">     2</i>
    <i type="logical" name="LNONCOLLINEAR"> F  </i>
    <v name="MAGMOM">      0.60000000      0.60000000</v>
    <i name="NUPDOWN">     -1.00000000</i>
    <i type="logical" name="LSORBIT"> F  </i>
    <v name="SAXIS">      0.00000000      0.00000000      1.00000000</v>
    <i type="logical" name="LSPIRAL"> F  </i>
    <v name="QSPIRAL">      0.00000000      0.00000000      0.00000000</v>
    <i type="logical" name="LZEROZ"> F  </i>
   </separator>
   <separator name="electronic exchange-correlation" >
    <i type="logical" name="LASPH"> T  </i>
    <i type="logical" name="LMETAGGA"> F  </i>
   </separator>
   <separator name="electronic convergence" >
    <i type="int" name="NELM">   200</i>
    <i type="int" name="NELMDL">     0</i>
    <i type="int" name="NELMIN">     2</i>
    <i name="ENINI">    680.00000000</i>
    <separator name="electronic convergence detail" >
     <i type="logical" name="LDIAG"> T  </i>
     <i type="logical" name="LSUBROT"> F  </i>
     <i name="WEIMIN">      0.00000000</i>
     <i name="EBREAK">      0.00000021</i>
     <i name="DEPER">      0.30000000</i>
     <i type="int" name="NRMM">     4</i>
     <i name="TIME">      0.40000000</i>
    </separator>
   </separator>
   <separator name="electronic mixer" >
    <i name="AMIX">      0.40000000</i>
    <i name="BMIX">      1.00000000</i>
    <i name="AMIN">      0.10000000</i>
    <i name="AMIX_MAG">      1.60000000</i>
    <i name="BMIX_MAG">      1.00000000</i>
    <separator name="electronic mixer details" >
     <i type="int" name="IMIX">     1</i>
     <i type="logical" name="MIXFIRST"> F  </i>
     <i type="int" name="MAXMIX">   -45</i>
     <i name="WC">    100.00000000</i>
     <i type="int" name="INIMIX">     1</i>
     <i type="int" name="MIXPRE">     1</i>
     <i type="int" name="MREMOVE">     5</i>
    </separator>
   </separator>
   <separator name="electronic dipolcorrection" >
    <i type="logical" name="LDIPOL"> F  </i>
    <i type="logical" name="LMONO"> F  </i>
    <i type="int" name="IDIPOL">     0</i>
    <i name="EPSILON">      1.00000000</i>
    <v name="DIPOL">   -100.00000000   -100.00000000   -100.00000000</v>
    <i name="EFIELD">      0.00000000</i>
   </separator>
  </separator>
  <separator name="grids" >
   <i type="int" name="NGX">    36</i>
   <i type="int" name="NGY">    36</i>
   <i type="int" name="NGZ">    36</i>
   <i type="int" name="NGXF">    72</i>
   <i type="int" name="NGYF">    72</i>
   <i type="int" name="NGZF">    72</i>
   <i type="logical" name="ADDGRID"> F  </i>
  </separator>
  <separator name="ionic" >
   <i type="int" name="NSW">     0</i>
   <i type="int" name="IBRION">    -1</i>
   <i type="int" name="MDALGO">     0</i>
   <i type="int" name="ISIF">     0</i>
   <i name="PSTRESS">      0.00000000</i>
   <i name="EDIFFG">      0.00010000</i>
   <i type="int" name="NFREE">     0</i>
   <i name="POTIM">      0.50000000</i>
   <i name="SMASS">     -3.00000000</i>
   <i name="SCALEE">      1.00000000</i>
  </separator>
  <separator name="ionic md" >
   <i name="TEBEG">      0.00010000</i>
   <i name="TEEND">      0.00010000</i>
   <i type="int" name="NBLOCK">     1</i>
   <i type="int" name="KBLOCK">     1</i>
   <i type="int" name="NPACO">   256</i>
   <i name="APACO">     10.00000000</i>
  </separator>
  <separator name="symmetry" >
   <i type="int" name="ISYM">     3</i>
   <i name="SYMPREC">      0.00001000</i>
  </separator>
  <separator name="dos" >
   <i type="int" name="LORBIT">    11</i>
   <v name="RWIGS">     -1.00000000</v>
   <i type="int" name="NEDOS">   301</i>
   <i name="EMIN">     10.00000000</i>
   <i name="EMAX">    -10.00000000</i>
   <i name="EFERMI">      0.00000000</i>
  </separator>
  <separator name="writing" >
   <i type="int" name="NWRITE">     2</i>
   <i type="logical" name="LWAVE"> T  </i>
   <i type="logical" name="LDOWNSAMPLE"> F  </i>
   <i type="logical" name="LCHARG"> T  </i>
   <i type="logical" name="LPARD"> F  </i>
   <i type="logical" name="LVTOT"> T  </i>
   <i type="logical" name="LVHAR"> F  </i>
   <i type="logical" name="LELF"> F  </i>
   <i type="logical" name="LOPTICS"> F  </i>
   <v name="STM">      0.00000000      0.00000000      0.00000000      0.00000000      0.00000000      0.00000000      0.00000000</v>
  </separator>
  <separator name="performance" >
   <i type="int" name="NPAR">    12</i>
   <i type="int" name="NSIM">     4</i>
   <i type="int" name="NBLK">    -1</i>
   <i type="logical" name="LPLANE"> T  </i>
   <i type="logical" name="LSCALAPACK"> T  </i>
   <i type="logical" name="LSCAAWARE"> F  </i>
   <i type="logical" name="LSCALU"> F  </i>
   <i type="logical" name="LASYNC"> F  </i>
   <i type="logical" name="LORBITALREAL"> F  </i>
  </separator>
  <separator name="miscellaneous" >
   <i type="int" name="IDIOT">     3</i>
   <i type="int" name="PHON_NSTRUCT">    -1</i>
   <i type="logical" name="LMUSIC"> F  </i>
   <v name="POMASS">     28.08500000</v>
   <v name="DARWINR">      0.00000000</v>
   <v name="DARWINV">      1.00000000</v>
   <i type="logical" name="LCORR"> T  </i>
  </separator>
  <i type="logical" name="GGA_COMPAT"> T  </i>
  <i type="logical" name="LBERRY"> F  </i>
  <i type="int" name="ICORELEVEL">     0</i>
  <i type="logical" name="LDAU"> F  </i>
  <i type="int" name="I_CONSTRAINED_M">     0</i>
  <separator name="electronic exchange-correlation" >
   <i type="string" name="GGA">PE</i>
   <i type="int" name="VOSKOWN">     0</i>
   <i type="logical" name="LHFCALC"> T  </i>
   <i type="string" name="PRECFOCK">accur.</i>
   <i type="logical" name="LSYMGRAD"> F  </i>
   <i type="logical" name="LHFONE"> F  </i>
   <i type="logical" name="LRHFCALC"> F  </i>
   <i type="logical" name="LTHOMAS"> F  </i>
   <i type="logical" name="LMODELHF"> F  </i>
   <i type="logical" name="LFOCKACE"> T  </i>
   <i name="ENCUT4O">     -1.00000000</i>
   <i type="int" name="EXXOEP">     0</i>
   <i type="int" name="FOURORBIT">     0</i>
   <i name="AEXX">      0.25000000</i>
   <i name="HFALPHA">     -1.00000000</i>
   <i name="MCALPHA">      0.00000000</i>
   <i name="ALDAX">      0.75000000</i>
   <i name="AGGAX">      0.75000000</i>
   <i name="ALDAC">      1.00000000</i>
   <i name="AGGAC">      1.00000000</i>
   <i type="int" name="NKREDX">     1</i>
   <i type="int" name="NKREDY">     1</i>
   <i type="int" name="NKREDZ">     1</i>
   <i type="logical" name="SHIFTRED"> F  </i>
   <i type="logical" name="ODDONLY"> F  </i>
   <i type="logical" name="EVENONLY"> F  </i>
   <i type="int" name="LMAXFOCK">     4</i>
   <i type="int" name="NMAXFOCKAE">     1</i>
   <i type="logical" name="LFOCKAEDFT"> F  </i>
   <i name="HFSCREEN">      0.20000000</i>
   <i name="HFSCREENC">      0.20000000</i>
   <i type="int" name="NBANDSGWLOW">     1</i>
  </separator>
  <separator name="vdW DFT" >
   <i type="logical" name="LUSE_VDW"> F  </i>
   <i type="int" name="IVDW_NL">     1</i>
   <i type="logical" name="LSPIN_VDW"> F  </i>
   <i name="Zab_VDW">     -0.84910000</i>
   <i name="PARAM1">      0.12340000</i>
   <i name="PARAM2">      1.00000000</i>
   <i name="PARAM3">      0.00000000</i>
  </separator>
  <separator name="model GW" >
   <i type="int" name="MODEL_GW">     0</i>
   <i name="MODEL_EPS0">     12.09885804</i>
   <i name="MODEL_ALPHA">      1.00000000</i>
  </separator>
  <separator name="linear response parameters" >
   <i type="logical" name="LEPSILON"> F  </i>
   <i type="logical" name="LRPA"> F  </i>
   <i type="logical" name="LNABLA"> F  </i>
   <i type="logical" name="LVEL"> F  </i>
   <i name="CSHIFT">      0.10000000</i>
   <i name="OMEGAMAX">     -1.00000000</i>
   <i name="DEG_THRESHOLD">      0.00200000</i>
   <i name="RTIME">     -0.10000000</i>
   <i name="WPLASMAI">      0.00000000</i>
   <v name="DFIELD">      0.00000000      0.00000000      0.00000000</v>
   <v name="WPLASMA">      0.00000000      0.00000000      0.00000000      0.00000000      0.00000000      0.00000000      0.00000000      0.00000000      0.00000000</v>
  </separator>
  <separator name="orbital magnetization" >
   <i type="logical" name="NUCIND"> F  </i>
   <v name="MAGPOS">      0.00000000      0.00000000      0.00000000</v>
   <i type="logical" name="LNICSALL"> T  </i>
   <i type="logical" name="ORBITALMAG"> F  </i>
   <i type="logical" name="LMAGBLOCH"> F  </i>
   <i type="logical" name="LCHIMAG"> F  </i>
   <i type="logical" name="LGAUGE"> T  </i>
   <i type="int" name="MAGATOM">     0</i>
   <v name="MAGDIPOL">      0.00000000      0.00000000      0.00000000</v>
   <v name="AVECCONST">      0.00000000      0.00000000      0.00000000</v>
  </separator>
  <separator name="response functions" >
   <i type="logical" name="LALL_IN_ONE"> F  </i>
   <i type="int" name="IALL_IN_ONE">    -1</i>
   <i type="int" name="NBANDS_WAVE">    -1</i>
   <i type="logical" name="LFINITE_TEMPERATURE"> F  </i>
   <i type="logical" name="LADDER"> F  </i>
   <i type="logical" name="LRPAFORCE"> F  </i>
   <i type="logical" name="LFXC"> F  </i>
   <i type="logical" name="LHARTREE"> T  </i>
   <i type="int" name="IBSE">     0</i>
   <v type="int" name="KPOINT">    -1     0     0     0</v>
   <i type="logical" name="LTCTC"> F  </i>
   <i type="logical" name="LTCTE"> F  </i>
   <i type="logical" name="LTETE"> F  </i>
   <i type="logical" name="LTRIPLET"> F  </i>
   <i type="logical" name="LFXCEPS"> F  </i>
   <i type="logical" name="LFXHEG"> F  </i>
   <i type="int" name="NATURALO">     2</i>
   <i type="logical" name="LHOLEGF"> F  </i>
   <i type="logical" name="L2ORDER"> F  </i>
   <i type="logical" name="LDMP1"> F  </i>
   <i type="logical" name="LMP2LT"> F  </i>
   <i type="logical" name="LSMP2LT"> F  </i>
   <i type="logical" name="LGWLF"> F  </i>
   <i name="ENCUTGW">     -1.60000002</i>
   <i name="ENCUTGWSOFT">     -1.60000002</i>
   <i name="ENCUTLF">     -1.00000000</i>
   <i type="logical" name="LESF_SPLINES"> F  </i>
   <i type="int" name="LMAXMP2">    -1</i>
   <i name="SCISSOR">      0.00000000</i>
   <i type="int" name="NOMEGA">     0</i>
   <i type="int" name="NOMEGAR">     0</i>
   <i type="int" name="NBANDSGW">    -1</i>
   <i type="int" name="NBANDSO">    -1</i>
   <i type="int" name="NBANDSV">    -1</i>
   <i type="int" name="NELMGW">     1</i>
   <i type="int" name="NELMHF">     1</i>
   <i type="int" name="DIM">     3</i>
   <i type="int" name="IESPILON">     4</i>
   <i type="int" name="ANTIRES">     0</i>
   <i name="OMEGAMAX">    -30.00000000</i>
   <i name="OMEGAMIN">    -30.00000000</i>
   <i name="OMEGATL">   -200.00000000</i>
   <i type="int" name="OMEGAGRID">     0</i>
   <i name="CSHIFT">     -0.10000000</i>
   <i type="logical" name="LSELFENERGY"> F  </i>
   <i type="logical" name="LSPECTRAL"> F  </i>
   <i type="logical" name="LSPECTRALGW"> F  </i>
   <i type="logical" name="LSINGLES"> F  </i>
   <i type="logical" name="LFERMIGW"> F  </i>
   <i type="logical" name="ODDONLYGW"> F  </i>
   <i type="logical" name="EVENONLYGW"> F  </i>
   <i type="int" name="NKREDLFX">     1</i>
   <i type="int" name="NKREDLFY">     1</i>
   <i type="int" name="NKREDLFZ">     1</i>
   <i type="int" name="MAXMEM">  2800</i>
   <i type="int" name="TELESCOPE">     0</i>
   <i type="int" name="NTAUPAR">    -1</i>
   <i type="int" name="NOMEGAPAR">    -1</i>
   <i name="DAMP_NEWTON">      0.80000001</i>
   <i name="LAMBDA">      1.00000000</i>
  </separator>
  <separator name="External order field" >
   <i name="OFIELD_KAPPA">      0.00000000</i>
   <v name="OFIELD_K">      0.00000000      0.00000000      0.00000000</v>
   <i name="OFIELD_Q6_NEAR">      0.00000000</i>
   <i name="OFIELD_Q6_FAR">      0.00000000</i>
   <i name="OFIELD_A">      0.00000000</i>
  </separator>
  <separator name="optional k-points parameters" >
   <i type="int" name="KPOINTS_OPT_MODE">     1</i>
   <i type="logical" name="LKPOINTS_OPT"> F  </i>
  </separator>
 </parameters>
 <atominfo>
  <atoms>       2 </atoms>
  <types>       1 </types>
  <array name="atoms" >
   <dimension dim="1">ion</dimension>
   <field type="string">element</field>
   <field type="int">atomtype</field>
   <set>
    <rc><c>Si</c><c>   1</c></rc>
    <rc><c>Si</c><c>   1</c></rc>
   </set>
  </array>
  <array name="atomtypes" >
   <dimension dim="1">type</dimension>
   <field type="int">atomspertype</field>
   <field type="string">element</field>
   <field>mass</field>
   <field>valence</field>
   <field type="string">pseudopotential</field>
   <set>
    <rc><c>   2</c><c>Si</c><c>     28.08500000</c><c>      4.00000000</c><c>  PAW_PBE Si 05Jan2001                  </c></rc>
   </set>
  </array>
 </atominfo>
 <structure name="initialpos" >
  <crystal>
   <varray name="basis" >
    <v>       3.33357300       0.00000000       1.92463900 </v>
    <v>       1.11119100       3.14292400       1.92463900 </v>
    <v>       0.00000000       0.00000000       3.84927800 </v>
   </varray>
   <i name="volume">     40.32952680 </i>
   <varray name="rec_basis" >
    <v>       0.29997843      -0.10605835       0.00000000 </v>
    <v>       0.00000000       0.31817505       0.00000000 </v>
    <v>      -0.14998922      -0.10605835       0.25978898 </v>
   </varray>
  </crystal>
  <varray name="positions" >
   <v>       0.87500000       0.87500000       0.87500000 </v>
   <v>       0.12500000       0.12500000       0.12500000 </v>
  </varray>
 </structure>
 <calculation>
  <scstep>
   <time name="dav">    0.05    0.52</time>
   <time name="total">    0.24    0.80</time>
   <energy>
    <i name="alphaZ">      3.33880742 </i>
    <i name="ewald">   -227.98820653 </i>
    <i name="hartreedc">    -11.11484529 </i>
    <i name="XCdc">    -18.55253271 </i>
    <i name="pawpsdc">    176.18363791 </i>
    <i name="pawaedc">   -391.58776073 </i>
    <i name="eentropy">     -0.00000000 </i>
    <i name="bandstr">     21.36618247 </i>
    <i name="atom">    203.99906502 </i>
    <i name="e_fr_energy">   -244.35565245 </i>
    <i name="e_wo_entrp">   -244.35565245 </i>
    <i name="e_0_energy">   -244.35565245 </i>
   </energy>
  </scstep>
  <scstep>
   <time name="dav">    0.02    0.08</time>
   <time name="total">    0.02    0.08</time>
   <energy>
    <i name="e_fr_energy">   -259.37341639 </i>
    <i name="e_wo_entrp">   -259.37341639 </i>
    <i name="e_0_energy">   -259.37341639 </i>
   </energy>
  </scstep>
  <scstep>
   <time name="dav">    0.02    0.04</time>
   <time name="total">    0.02    0.04</time>
   <energy>
    <i name="e_fr_energy">   -259.68847337 </i>
    <i name="e_wo_entrp">   -259.68847337 </i>
    <i name="e_0_energy">   -259.68847337 </i>
   </energy>
  </scstep>
  <scstep>
   <time name="dav">    0.01    0.01</time>
   <time name="total">    0.01    0.01</time>
   <energy>
    <i name="e_fr_energy">   -259.68915289 </i>
    <i name="e_wo_entrp">   -259.68915289 </i>
    <i name="e_0_energy">   -259.68915289 </i>
   </energy>
  </scstep>
  <scstep>
   <time name="dav">    0.17    0.24</time>
   <time name="total">    0.57    0.68</time>
   <energy>
    <i name="e_fr_energy">     -5.68412019 </i>
    <i name="e_wo_entrp">     -5.68412019 </i>
    <i name="e_0_energy">     -5.68412019 </i>
   </energy>
  </scstep>
  <scstep>
   <time name="dav">    0.13    0.13</time>
   <time name="total">    0.52    0.53</time>
   <energy>
    <i name="e_fr_energy">     -4.96830036 </i>
    <i name="e_wo_entrp">     -4.96830036 </i>
    <i name="e_0_energy">     -4.96830036 </i>
   </energy>
  </scstep>
  <scstep>
   <time name="dav">    0.13    0.13</time>
   <time name="total">    0.52    0.52</time>
   <energy>
    <i name="e_fr_energy">     -4.73499852 </i>
    <i name="e_wo_entrp">     -4.73499852 </i>
    <i name="e_0_energy">     -4.73499852 </i>
   </energy>
  </scstep>
  <scstep>
   <time name="dav">    0.13    0.13</time>
   <time name="total">    0.52    0.52</time>
   <energy>
    <i name="e_fr_energy">     -4.67843107 </i>
    <i name="e_wo_entrp">     -4.67843107 </i>
    <i name="e_0_energy">     -4.67843107 </i>
   </energy>
  </scstep>
  <scstep>
   <time name="dav">    0.13    0.13</time>
   <time name="total">    0.52    0.52</time>
   <energy>
    <i name="e_fr_energy">     -4.66836987 </i>
    <i name="e_wo_entrp">     -4.66836987 </i>
    <i name="e_0_energy">     -4.66836987 </i>
   </energy>
  </scstep>
  <scstep>
   <time name="dav">    0.13    0.13</time>
   <time name="total">    0.52    0.53</time>
   <energy>
    <i name="e_fr_energy">     -4.66845751 </i>
    <i name="e_wo_entrp">     -4.66845751 </i>
    <i name="e_0_energy">     -4.66845751 </i>
   </energy>
  </scstep>
  <scstep>
   <time name="dav">    0.13    0.13</time>
   <time name="total">    0.53    0.53</time>
   <energy>
    <i name="e_fr_energy">     -4.66983416 </i>
    <i name="e_wo_entrp">     -4.66983416 </i>
    <i name="e_0_energy">     -4.66983416 </i>
   </energy>
  </scstep>
  <scstep>
   <time name="dav">    0.13    0.13</time>
   <time name="total">    0.52    0.52</time>
   <energy>
    <i name="e_fr_energy">     -4.67082357 </i>
    <i name="e_wo_entrp">     -4.67082357 </i>
    <i name="e_0_energy">     -4.67082357 </i>
   </energy>
  </scstep>
  <scstep>
   <time name="dav">    0.13    0.13</time>
   <time name="total">    0.52    0.52</time>
   <energy>
    <i name="e_fr_energy">     -4.67137269 </i>
    <i name="e_wo_entrp">     -4.67137269 </i>
    <i name="e_0_energy">     -4.67137269 </i>
   </energy>
  </scstep>
  <scstep>
   <time name="dav">    0.13    0.13</time>
   <time name="total">    0.52    0.52</time>
   <energy>
    <i name="e_fr_energy">     -4.67165045 </i>
    <i name="e_wo_entrp">     -4.67165045 </i>
    <i name="e_0_energy">     -4.67165045 </i>
   </energy>
  </scstep>
  <scstep>
   <time name="dav">    0.12    0.13</time>
   <time name="total">    0.52    0.52</time>
   <energy>
    <i name="e_fr_energy">     -4.67178616 </i>
    <i name="e_wo_entrp">     -4.67178616 </i>
    <i name="e_0_energy">     -4.67178616 </i>
   </energy>
  </scstep>
  <scstep>
   <time name="dav">    0.13    0.13</time>
   <time name="total">    0.52    0.52</time>
   <energy>
    <i name="e_fr_energy">     -4.67185147 </i>
    <i name="e_wo_entrp">     -4.67185147 </i>
    <i name="e_0_energy">     -4.67185147 </i>
   </energy>
  </scstep>
  <scstep>
   <time name="dav">    0.12    0.12</time>
   <time name="total">    0.52    0.52</time>
   <energy>
    <i name="e_fr_energy">     -4.67188248 </i>
    <i name="e_wo_entrp">     -4.67188248 </i>
    <i name="e_0_energy">     -4.67188248 </i>
   </energy>
  </scstep>
  <scstep>
   <time name="dav">    0.12    0.12</time>
   <time name="total">    0.52    0.52</time>
   <energy>
    <i name="e_fr_energy">     -4.67189712 </i>
    <i name="e_wo_entrp">     -4.67189712 </i>
    <i name="e_0_energy">     -4.67189712 </i>
   </energy>
  </scstep>
  <scstep>
   <time name="dav">    0.12    0.12</time>
   <time name="total">    0.51    0.51</time>
   <energy>
    <i name="alphaZ">      3.33880742 </i>
    <i name="ewald">   -227.98820653 </i>
    <i name="hartreedc">    -19.45037856 </i>
    <i name="XCdc">    -14.03235646 </i>
    <i name="pawpsdc">   1756.74599640 </i>
    <i name="pawaedc">  -1729.15340036 </i>
    <i name="eentropy">     -0.00000000 </i>
    <i name="bandstr">      9.78919485 </i>
    <i name="atom">    203.99906502 </i>
    <i name="e_fr_energy">     -4.67190400 </i>
    <i name="e_wo_entrp">     -4.67190400 </i>
    <i name="e_0_energy">     -4.67190400 </i>
   </energy>
  </scstep>
  <structure>
   <crystal>
    <varray name="basis" >
     <v>       3.33357300       0.00000000       1.92463900 </v>
     <v>       1.11119100       3.14292400       1.92463900 </v>
     <v>       0.00000000       0.00000000       3.84927800 </v>
    </varray>
    <i name="volume">     40.32952680 </i>
    <varray name="rec_basis" >
     <v>       0.29997843      -0.10605835       0.00000000 </v>
     <v>       0.00000000       0.31817505       0.00000000 </v>
     <v>      -0.14998922      -0.10605835       0.25978898 </v>
    </varray>
   </crystal>
   <varray name="positions" >
    <v>       0.87500000       0.87500000       0.87500000 </v>
    <v>       0.12500000       0.12500000       0.12500000 </v>
   </varray>
  </structure>
  <varray name="forces" >
   <v>      -0.00000000      -0.00000000      -0.00000000 </v>
   <v>       0.00000000       0.00000000       0.00000000 </v>
  </varray>
  <energy>
   <i name="e_fr_energy">     -4.67190400 </i>
   <i name="e_wo_entrp">     -4.67190400 </i>
   <i name="e_0_energy">     -4.67190400 </i>
  </energy>
  <time name="totalsc">    9.62   10.45</time>
  <eigenvalues>
   <array>
    <dimension dim="1">band</dimension>
    <dimension dim="2">kpoint</dimension>
    <dimension dim="3">spin</dimension>
    <field>eigene</field>
    <field>occ</field>
    <set>
     <set comment="spin 1">
      <set comment="kpoint 1">
       <r>   -7.3157    1.0000 </r>
       <r>    5.4552    1.0000 </r>
       <r>    5.4552    1.0000 </r>
       <r>    5.4552    1.0000 </r>
       <r>    9.3207    0.0000 </r>
       <r>    9.3207    0.0000 </r>
       <r>    9.3207    0.0000 </r>
       <r>   10.5032    0.0000 </r>
       <r>   14.5659    0.0000 </r>
       <r>   14.6075    0.0000 </r>
       <r>   14.6075    0.0000 </r>
       <r>   17.9100    0.0000 </r>
      </set>
      <set comment="kpoint 2">
       <r>   -4.6478    1.0000 </r>
       <r>   -0.3598    1.0000 </r>
       <r>    2.8729    1.0000 </r>
       <r>    2.8729    1.0000 </r>
       <r>    7.1858    0.0000 </r>
       <r>    8.0759    0.0000 </r>
       <r>   14.9461    0.0000 </r>
       <r>   14.9461    0.0000 </r>
       <r>   17.4067    0.0000 </r>
       <r>   17.8340    0.0000 </r>
       <r>   20.2313    0.0000 </r>
       <r>   20.2314    0.0000 </r>
      </set>
     </set>
     <set comment="spin 2">
      <set comment="kpoint 1">
       <r>   -7.3155    1.0000 </r>
       <r>    5.4555    1.0000 </r>
       <r>    5.4555    1.0000 </r>
       <r>    5.4555    1.0000 </r>
       <r>    9.3210    0.0000 </r>
       <r>    9.3210    0.0000 </r>
       <r>    9.3210    0.0000 </r>
       <r>   10.5034    0.0000 </r>
       <r>   14.5656    0.0000 </r>
       <r>   14.6078    0.0000 </r>
       <r>   14.6078    0.0000 </r>
       <r>   17.9106    0.0000 </r>
      </set>
      <set comment="kpoint 2">
       <r>   -4.6475    1.0000 </r>
       <r>   -0.3596    1.0000 </r>
       <r>    2.8732    1.0000 </r>
       <r>    2.8732    1.0000 </r>
       <r>    7.1860    0.0000 </r>
       <r>    8.0761    0.0000 </r>
       <r>   14.9464    0.0000 </r>
       <r>   14.9464    0.0000 </r>
       <r>   17.4070    0.0000 </r>
       <r>   17.8342    0.0000 </r>
       <r>   20.2317    0.0000 </r>
       <r>   20.2317    0.0000 </r>
      </set>
     </set>
    </set>
   </array>
  </eigenvalues>
  <separator name="orbital magnetization" >
   <v name="MAGDIPOLOUT">      0.00000000      0.00000000      0.00000000</v>
  </separator>
  <dos>
   <i name="efermi">      5.57417590 </i>
   <total>
    <array>
     <dimension dim="1">gridpoints</dimension>
     <dimension dim="2">spin</dimension>
     <field>energy</field>
     <field>total</field>
     <field>integrated</field>
     <set>
      <set comment="spin 1">
       <r>    -8.6931     0.0000     0.0000 </r>
       <r>    -8.5921     0.0000     0.0000 </r>
       <r>    -8.4911     0.0000     0.0000 </r>
       <r>    -8.3901     0.0000     0.0000 </r>
       <r>    -8.2891     0.0000     0.0000 </r>
       <r>    -8.1881     0.0000     0.0000 </r>
       <r>    -8.0871     0.0000     0.0000 </r>
       <r>    -7.9861     0.0000     0.0000 </r>
       <r>    -7.8850     0.0000     0.0000 </r>
       <r>    -7.7840     0.0000     0.0000 </r>
       <r>    -7.6830     0.0000     0.0000 </r>
       <r>    -7.5820     0.0000     0.0000 </r>
       <r>    -7.4810     0.0000     0.0000 </r>
       <r>    -7.3800     0.0000     0.0000 </r>
       <r>    -7.2790     4.9501     0.5000 </r>
       <r>    -7.1780     0.0000     0.5000 </r>
       <r>    -7.0770     0.0000     0.5000 </r>
       <r>    -6.9760     0.0000     0.5000 </r>
       <r>    -6.8750     0.0000     0.5000 </r>
       <r>    -6.7740     0.0000     0.5000 </r>
       <r>    -6.6730     0.0000     0.5000 </r>
       <r>    -6.5719     0.0000     0.5000 </r>
       <r>    -6.4709     0.0000     0.5000 </r>
       <r>    -6.3699     0.0000     0.5000 </r>
       <r>    -6.2689     0.0000     0.5000 </r>
       <r>    -6.1679     0.0000     0.5000 </r>
       <r>    -6.0669     0.0000     0.5000 </r>
       <r>    -5.9659     0.0000     0.5000 </r>
       <r>    -5.8649     0.0000     0.5000 </r>
       <r>    -5.7639     0.0000     0.5000 </r>
       <r>    -5.6629     0.0000     0.5000 </r>
       <r>    -5.5619     0.0000     0.5000 </r>
       <r>    -5.4609     0.0000     0.5000 </r>
       <r>    -5.3599     0.0000     0.5000 </r>
       <r>    -5.2589     0.0000     0.5000 </r>
       <r>    -5.1578     0.0000     0.5000 </r>
       <r>    -5.0568     0.0000     0.5000 </r>
       <r>    -4.9558     0.0000     0.5000 </r>
       <r>    -4.8548     0.0000     0.5000 </r>
       <r>    -4.7538     0.0000     0.5000 </r>
       <r>    -4.6528     1.1748     0.6187 </r>
       <r>    -4.5518     0.0000     1.0000 </r>
       <r>    -4.4508     0.0000     1.0000 </r>
       <r>    -4.3498     0.0000     1.0000 </r>
       <r>    -4.2488     0.0000     1.0000 </r>
       <r>    -4.1478     0.0000     1.0000 </r>
       <r>    -4.0468     0.0000     1.0000 </r>
       <r>    -3.9458     0.0000     1.0000 </r>
       <r>    -3.8448     0.0000     1.0000 </r>
       <r>    -3.7437     0.0000     1.0000 </r>
       <r>    -3.6427     0.0000     1.0000 </r>
       <r>    -3.5417     0.0000     1.0000 </r>
       <r>    -3.4407     0.0000     1.0000 </r>
       <r>    -3.3397     0.0000     1.0000 </r>
       <r>    -3.2387     0.0000     1.0000 </r>
       <r>    -3.1377     0.0000     1.0000 </r>
       <r>    -3.0367     0.0000     1.0000 </r>
       <r>    -2.9357     0.0000     1.0000 </r>
       <r>    -2.8347     0.0000     1.0000 </r>
       <r>    -2.7337     0.0000     1.0000 </r>
       <r>    -2.6327     0.0000     1.0000 </r>
       <r>    -2.5317     0.0000     1.0000 </r>
       <r>    -2.4307     0.0000     1.0000 </r>
       <r>    -2.3296     0.0000     1.0000 </r>
       <r>    -2.2286     0.0000     1.0000 </r>
       <r>    -2.1276     0.0000     1.0000 </r>
       <r>    -2.0266     0.0000     1.0000 </r>
       <r>    -1.9256     0.0000     1.0000 </r>
       <r>    -1.8246     0.0000     1.0000 </r>
       <r>    -1.7236     0.0000     1.0000 </r>
       <r>    -1.6226     0.0000     1.0000 </r>
       <r>    -1.5216     0.0000     1.0000 </r>
       <r>    -1.4206     0.0000     1.0000 </r>
       <r>    -1.3196     0.0000     1.0000 </r>
       <r>    -1.2186     0.0000     1.0000 </r>
       <r>    -1.1176     0.0000     1.0000 </r>
       <r>    -1.0165     0.0000     1.0000 </r>
       <r>    -0.9155     0.0000     1.0000 </r>
       <r>    -0.8145     0.0000     1.0000 </r>
       <r>    -0.7135     0.0000     1.0000 </r>
       <r>    -0.6125     0.0000     1.0000 </r>
       <r>    -0.5115     0.0000     1.0000 </r>
       <r>    -0.4105     0.0000     1.0000 </r>
       <r>    -0.3095     4.9501     1.5000 </r>
       <r>    -0.2085     0.0000     1.5000 </r>
       <r>    -0.1075     0.0000     1.5000 </r>
       <r>    -0.0065     0.0000     1.5000 </r>
       <r>     0.0945     0.0000     1.5000 </r>
       <r>     0.1955     0.0000     1.5000 </r>
       <r>     0.2965     0.0000     1.5000 </r>
       <r>     0.3976     0.0000     1.5000 </r>
       <r>     0.4986     0.0000     1.5000 </r>
       <r>     0.5996     0.0000     1.5000 </r>
       <r>     0.7006     0.0000     1.5000 </r>
       <r>     0.8016     0.0000     1.5000 </r>
       <r>     0.9026     0.0000     1.5000 </r>
       <r>     1.0036     0.0000     1.5000 </r>
       <r>     1.1046     0.0000     1.5000 </r>
       <r>     1.2056     0.0000     1.5000 </r>
       <r>     1.3066     0.0000     1.5000 </r>
       <r>     1.4076     0.0000     1.5000 </r>
       <r>     1.5086     0.0000     1.5000 </r>
       <r>     1.6096     0.0000     1.5000 </r>
       <r>     1.7106     0.0000     1.5000 </r>
       <r>     1.8117     0.0000     1.5000 </r>
       <r>     1.9127     0.0000     1.5000 </r>
       <r>     2.0137     0.0000     1.5000 </r>
       <r>     2.1147     0.0000     1.5000 </r>
       <r>     2.2157     0.0000     1.5000 </r>
       <r>     2.3167     0.0000     1.5000 </r>
       <r>     2.4177     0.0000     1.5000 </r>
       <r>     2.5187     0.0000     1.5000 </r>
       <r>     2.6197     0.0000     1.5000 </r>
       <r>     2.7207     0.0000     1.5000 </r>
       <r>     2.8217     0.0000     1.5000 </r>
       <r>     2.9227     9.9003     2.5000 </r>
       <r>     3.0237     0.0000     2.5000 </r>
       <r>     3.1247     0.0000     2.5000 </r>
       <r>     3.2258     0.0000     2.5000 </r>
       <r>     3.3268     0.0000     2.5000 </r>
       <r>     3.4278     0.0000     2.5000 </r>
       <r>     3.5288     0.0000     2.5000 </r>
       <r>     3.6298     0.0000     2.5000 </r>
       <r>     3.7308     0.0000     2.5000 </r>
       <r>     3.8318     0.0000     2.5000 </r>
       <r>     3.9328     0.0000     2.5000 </r>
       <r>     4.0338     0.0000     2.5000 </r>
       <r>     4.1348     0.0000     2.5000 </r>
       <r>     4.2358     0.0000     2.5000 </r>
       <r>     4.3368     0.0000     2.5000 </r>
       <r>     4.4378     0.0000     2.5000 </r>
       <r>     4.5389     0.0000     2.5000 </r>
       <r>     4.6399     0.0000     2.5000 </r>
       <r>     4.7409     0.0000     2.5000 </r>
       <r>     4.8419     0.0000     2.5000 </r>
       <r>     4.9429     0.0000     2.5000 </r>
       <r>     5.0439     0.0000     2.5000 </r>
       <r>     5.1449     0.0000     2.5000 </r>
       <r>     5.2459     0.0000     2.5000 </r>
       <r>     5.3469     0.0000     2.5000 </r>
       <r>     5.4479     2.2311     2.7254 </r>
       <r>     5.5489     0.0000     4.0000 </r>
       <r>     5.6499     0.0000     4.0000 </r>
       <r>     5.7509     0.0000     4.0000 </r>
       <r>     5.8519     0.0000     4.0000 </r>
       <r>     5.9530     0.0000     4.0000 </r>
       <r>     6.0540     0.0000     4.0000 </r>
       <r>     6.1550     0.0000     4.0000 </r>
       <r>     6.2560     0.0000     4.0000 </r>
       <r>     6.3570     0.0000     4.0000 </r>
       <r>     6.4580     0.0000     4.0000 </r>
       <r>     6.5590     0.0000     4.0000 </r>
       <r>     6.6600     0.0000     4.0000 </r>
       <r>     6.7610     0.0000     4.0000 </r>
       <r>     6.8620     0.0000     4.0000 </r>
       <r>     6.9630     0.0000     4.0000 </r>
       <r>     7.0640     0.0000     4.0000 </r>
       <r>     7.1650     0.0083     4.0008 </r>
       <r>     7.2660     0.0000     4.5000 </r>
       <r>     7.3671     0.0000     4.5000 </r>
       <r>     7.4681     0.0000     4.5000 </r>
       <r>     7.5691     0.0000     4.5000 </r>
       <r>     7.6701     0.0000     4.5000 </r>
       <r>     7.7711     0.0000     4.5000 </r>
       <r>     7.8721     0.0000     4.5000 </r>
       <r>     7.9731     0.0000     4.5000 </r>
       <r>     8.0741     1.9772     4.6997 </r>
       <r>     8.1751     0.0000     5.0000 </r>
       <r>     8.2761     0.0000     5.0000 </r>
       <r>     8.3771     0.0000     5.0000 </r>
       <r>     8.4781     0.0000     5.0000 </r>
       <r>     8.5791     0.0000     5.0000 </r>
       <r>     8.6801     0.0000     5.0000 </r>
       <r>     8.7812     0.0000     5.0000 </r>
       <r>     8.8822     0.0000     5.0000 </r>
       <r>     8.9832     0.0000     5.0000 </r>
       <r>     9.0842     0.0000     5.0000 </r>
       <r>     9.1852     0.0000     5.0000 </r>
       <r>     9.2862     0.0000     5.0000 </r>
       <r>     9.3872    14.8504     6.5000 </r>
       <r>     9.4882     0.0000     6.5000 </r>
       <r>     9.5892     0.0000     6.5000 </r>
       <r>     9.6902     0.0000     6.5000 </r>
       <r>     9.7912     0.0000     6.5000 </r>
       <r>     9.8922     0.0000     6.5000 </r>
       <r>     9.9932     0.0000     6.5000 </r>
       <r>    10.0943     0.0000     6.5000 </r>
       <r>    10.1953     0.0000     6.5000 </r>
       <r>    10.2963     0.0000     6.5000 </r>
       <r>    10.3973     0.0000     6.5000 </r>
       <r>    10.4983     1.1990     6.6211 </r>
       <r>    10.5993     0.0000     7.0000 </r>
       <r>    10.7003     0.0000     7.0000 </r>
       <r>    10.8013     0.0000     7.0000 </r>
       <r>    10.9023     0.0000     7.0000 </r>
       <r>    11.0033     0.0000     7.0000 </r>
       <r>    11.1043     0.0000     7.0000 </r>
       <r>    11.2053     0.0000     7.0000 </r>
       <r>    11.3063     0.0000     7.0000 </r>
       <r>    11.4073     0.0000     7.0000 </r>
       <r>    11.5084     0.0000     7.0000 </r>
       <r>    11.6094     0.0000     7.0000 </r>
       <r>    11.7104     0.0000     7.0000 </r>
       <r>    11.8114     0.0000     7.0000 </r>
       <r>    11.9124     0.0000     7.0000 </r>
       <r>    12.0134     0.0000     7.0000 </r>
       <r>    12.1144     0.0000     7.0000 </r>
       <r>    12.2154     0.0000     7.0000 </r>
       <r>    12.3164     0.0000     7.0000 </r>
       <r>    12.4174     0.0000     7.0000 </r>
       <r>    12.5184     0.0000     7.0000 </r>
       <r>    12.6194     0.0000     7.0000 </r>
       <r>    12.7204     0.0000     7.0000 </r>
       <r>    12.8214     0.0000     7.0000 </r>
       <r>    12.9225     0.0000     7.0000 </r>
       <r>    13.0235     0.0000     7.0000 </r>
       <r>    13.1245     0.0000     7.0000 </r>
       <r>    13.2255     0.0000     7.0000 </r>
       <r>    13.3265     0.0000     7.0000 </r>
       <r>    13.4275     0.0000     7.0000 </r>
       <r>    13.5285     0.0000     7.0000 </r>
       <r>    13.6295     0.0000     7.0000 </r>
       <r>    13.7305     0.0000     7.0000 </r>
       <r>    13.8315     0.0000     7.0000 </r>
       <r>    13.9325     0.0000     7.0000 </r>
       <r>    14.0335     0.0000     7.0000 </r>
       <r>    14.1345     0.0000     7.0000 </r>
       <r>    14.2355     0.0000     7.0000 </r>
       <r>    14.3366     0.0000     7.0000 </r>
       <r>    14.4376     0.0000     7.0000 </r>
       <r>    14.5386     0.0003     7.0000 </r>
       <r>    14.6396    14.8501     8.5000 </r>
       <r>    14.7406     0.0000     8.5000 </r>
       <r>    14.8416     0.0000     8.5000 </r>
       <r>    14.9426     3.0683     8.8099 </r>
       <r>    15.0436     0.0000     9.5000 </r>
       <r>    15.1446     0.0000     9.5000 </r>
       <r>    15.2456     0.0000     9.5000 </r>
       <r>    15.3466     0.0000     9.5000 </r>
       <r>    15.4476     0.0000     9.5000 </r>
       <r>    15.5486     0.0000     9.5000 </r>
       <r>    15.6497     0.0000     9.5000 </r>
       <r>    15.7507     0.0000     9.5000 </r>
       <r>    15.8517     0.0000     9.5000 </r>
       <r>    15.9527     0.0000     9.5000 </r>
       <r>    16.0537     0.0000     9.5000 </r>
       <r>    16.1547     0.0000     9.5000 </r>
       <r>    16.2557     0.0000     9.5000 </r>
       <r>    16.3567     0.0000     9.5000 </r>
       <r>    16.4577     0.0000     9.5000 </r>
       <r>    16.5587     0.0000     9.5000 </r>
       <r>    16.6597     0.0000     9.5000 </r>
       <r>    16.7607     0.0000     9.5000 </r>
       <r>    16.8617     0.0000     9.5000 </r>
       <r>    16.9627     0.0000     9.5000 </r>
       <r>    17.0638     0.0000     9.5000 </r>
       <r>    17.1648     0.0000     9.5000 </r>
       <r>    17.2658     0.0000     9.5000 </r>
       <r>    17.3668     0.0000     9.5000 </r>
       <r>    17.4678     4.9501    10.0000 </r>
       <r>    17.5688     0.0000    10.0000 </r>
       <r>    17.6698     0.0000    10.0000 </r>
       <r>    17.7708     0.0000    10.0000 </r>
       <r>    17.8718     4.9501    10.5000 </r>
       <r>    17.9728     4.9501    11.0000 </r>
       <r>    18.0738     0.0000    11.0000 </r>
       <r>    18.1748     0.0000    11.0000 </r>
       <r>    18.2758     0.0000    11.0000 </r>
       <r>    18.3768     0.0000    11.0000 </r>
       <r>    18.4779     0.0000    11.0000 </r>
       <r>    18.5789     0.0000    11.0000 </r>
       <r>    18.6799     0.0000    11.0000 </r>
       <r>    18.7809     0.0000    11.0000 </r>
       <r>    18.8819     0.0000    11.0000 </r>
       <r>    18.9829     0.0000    11.0000 </r>
       <r>    19.0839     0.0000    11.0000 </r>
       <r>    19.1849     0.0000    11.0000 </r>
       <r>    19.2859     0.0000    11.0000 </r>
       <r>    19.3869     0.0000    11.0000 </r>
       <r>    19.4879     0.0000    11.0000 </r>
       <r>    19.5889     0.0000    11.0000 </r>
       <r>    19.6899     0.0000    11.0000 </r>
       <r>    19.7910     0.0000    11.0000 </r>
       <r>    19.8920     0.0000    11.0000 </r>
       <r>    19.9930     0.0000    11.0000 </r>
       <r>    20.0940     0.0000    11.0000 </r>
       <r>    20.1950     0.0000    11.0000 </r>
       <r>    20.2960     9.9003    12.0000 </r>
       <r>    20.3970     0.0000    12.0000 </r>
       <r>    20.4980     0.0000    12.0000 </r>
       <r>    20.5990     0.0000    12.0000 </r>
       <r>    20.7000     0.0000    12.0000 </r>
       <r>    20.8010     0.0000    12.0000 </r>
       <r>    20.9020     0.0000    12.0000 </r>
       <r>    21.0030     0.0000    12.0000 </r>
       <r>    21.1040     0.0000    12.0000 </r>
       <r>    21.2051     0.0000    12.0000 </r>
       <r>    21.3061     0.0000    12.0000 </r>
       <r>    21.4071     0.0000    12.0000 </r>
       <r>    21.5081     0.0000    12.0000 </r>
       <r>    21.6091     0.0000    12.0000 </r>
      </set>
      <set comment="spin 2">
       <r>    -8.6931     0.0000     0.0000 </r>
       <r>    -8.5921     0.0000     0.0000 </r>
       <r>    -8.4911     0.0000     0.0000 </r>
       <r>    -8.3901     0.0000     0.0000 </r>
       <r>    -8.2891     0.0000     0.0000 </r>
       <r>    -8.1881     0.0000     0.0000 </r>
       <r>    -8.0871     0.0000     0.0000 </r>
       <r>    -7.9861     0.0000     0.0000 </r>
       <r>    -7.8850     0.0000     0.0000 </r>
       <r>    -7.7840     0.0000     0.0000 </r>
       <r>    -7.6830     0.0000     0.0000 </r>
       <r>    -7.5820     0.0000     0.0000 </r>
       <r>    -7.4810     0.0000     0.0000 </r>
       <r>    -7.3800     0.0000     0.0000 </r>
       <r>    -7.2790     4.9501     0.5000 </r>
       <r>    -7.1780     0.0000     0.5000 </r>
       <r>    -7.0770     0.0000     0.5000 </r>
       <r>    -6.9760     0.0000     0.5000 </r>
       <r>    -6.8750     0.0000     0.5000 </r>
       <r>    -6.7740     0.0000     0.5000 </r>
       <r>    -6.6730     0.0000     0.5000 </r>
       <r>    -6.5719     0.0000     0.5000 </r>
       <r>    -6.4709     0.0000     0.5000 </r>
       <r>    -6.3699     0.0000     0.5000 </r>
       <r>    -6.2689     0.0000     0.5000 </r>
       <r>    -6.1679     0.0000     0.5000 </r>
       <r>    -6.0669     0.0000     0.5000 </r>
       <r>    -5.9659     0.0000     0.5000 </r>
       <r>    -5.8649     0.0000     0.5000 </r>
       <r>    -5.7639     0.0000     0.5000 </r>
       <r>    -5.6629     0.0000     0.5000 </r>
       <r>    -5.5619     0.0000     0.5000 </r>
       <r>    -5.4609     0.0000     0.5000 </r>
       <r>    -5.3599     0.0000     0.5000 </r>
       <r>    -5.2589     0.0000     0.5000 </r>
       <r>    -5.1578     0.0000     0.5000 </r>
       <r>    -5.0568     0.0000     0.5000 </r>
       <r>    -4.9558     0.0000     0.5000 </r>
       <r>    -4.8548     0.0000     0.5000 </r>
       <r>    -4.7538     0.0000     0.5000 </r>
       <r>    -4.6528     1.1168     0.6128 </r>
       <r>    -4.5518     0.0000     1.0000 </r>
       <r>    -4.4508     0.0000     1.0000 </r>
       <r>    -4.3498     0.0000     1.0000 </r>
       <r>    -4.2488     0.0000     1.0000 </r>
       <r>    -4.1478     0.0000     1.0000 </r>
       <r>    -4.0468     0.0000     1.0000 </r>
       <r>    -3.9458     0.0000     1.0000 </r>
       <r>    -3.8448     0.0000     1.0000 </r>
       <r>    -3.7437     0.0000     1.0000 </r>
       <r>    -3.6427     0.0000     1.0000 </r>
       <r>    -3.5417     0.0000     1.0000 </r>
       <r>    -3.4407     0.0000     1.0000 </r>
       <r>    -3.3397     0.0000     1.0000 </r>
       <r>    -3.2387     0.0000     1.0000 </r>
       <r>    -3.1377     0.0000     1.0000 </r>
       <r>    -3.0367     0.0000     1.0000 </r>
       <r>    -2.9357     0.0000     1.0000 </r>
       <r>    -2.8347     0.0000     1.0000 </r>
       <r>    -2.7337     0.0000     1.0000 </r>
       <r>    -2.6327     0.0000     1.0000 </r>
       <r>    -2.5317     0.0000     1.0000 </r>
       <r>    -2.4307     0.0000     1.0000 </r>
       <r>    -2.3296     0.0000     1.0000 </r>
       <r>    -2.2286     0.0000     1.0000 </r>
       <r>    -2.1276     0.0000     1.0000 </r>
       <r>    -2.0266     0.0000     1.0000 </r>
       <r>    -1.9256     0.0000     1.0000 </r>
       <r>    -1.8246     0.0000     1.0000 </r>
       <r>    -1.7236     0.0000     1.0000 </r>
       <r>    -1.6226     0.0000     1.0000 </r>
       <r>    -1.5216     0.0000     1.0000 </r>
       <r>    -1.4206     0.0000     1.0000 </r>
       <r>    -1.3196     0.0000     1.0000 </r>
       <r>    -1.2186     0.0000     1.0000 </r>
       <r>    -1.1176     0.0000     1.0000 </r>
       <r>    -1.0165     0.0000     1.0000 </r>
       <r>    -0.9155     0.0000     1.0000 </r>
       <r>    -0.8145     0.0000     1.0000 </r>
       <r>    -0.7135     0.0000     1.0000 </r>
       <r>    -0.6125     0.0000     1.0000 </r>
       <r>    -0.5115     0.0000     1.0000 </r>
       <r>    -0.4105     0.0000     1.0000 </r>
       <r>    -0.3095     4.9501     1.5000 </r>
       <r>    -0.2085     0.0000     1.5000 </r>
       <r>    -0.1075     0.0000     1.5000 </r>
       <r>    -0.0065     0.0000     1.5000 </r>
       <r>     0.0945     0.0000     1.5000 </r>
       <r>     0.1955     0.0000     1.5000 </r>
       <r>     0.2965     0.0000     1.5000 </r>
       <r>     0.3976     0.0000     1.5000 </r>
       <r>     0.4986     0.0000     1.5000 </r>
       <r>     0.5996     0.0000     1.5000 </r>
       <r>     0.7006     0.0000     1.5000 </r>
       <r>     0.8016     0.0000     1.5000 </r>
       <r>     0.9026     0.0000     1.5000 </r>
       <r>     1.0036     0.0000     1.5000 </r>
       <r>     1.1046     0.0000     1.5000 </r>
       <r>     1.2056     0.0000     1.5000 </r>
       <r>     1.3066     0.0000     1.5000 </r>
       <r>     1.4076     0.0000     1.5000 </r>
       <r>     1.5086     0.0000     1.5000 </r>
       <r>     1.6096     0.0000     1.5000 </r>
       <r>     1.7106     0.0000     1.5000 </r>
       <r>     1.8117     0.0000     1.5000 </r>
       <r>     1.9127     0.0000     1.5000 </r>
       <r>     2.0137     0.0000     1.5000 </r>
       <r>     2.1147     0.0000     1.5000 </r>
       <r>     2.2157     0.0000     1.5000 </r>
       <r>     2.3167     0.0000     1.5000 </r>
       <r>     2.4177     0.0000     1.5000 </r>
       <r>     2.5187     0.0000     1.5000 </r>
       <r>     2.6197     0.0000     1.5000 </r>
       <r>     2.7207     0.0000     1.5000 </r>
       <r>     2.8217     0.0000     1.5000 </r>
       <r>     2.9227     9.9003     2.5000 </r>
       <r>     3.0237     0.0000     2.5000 </r>
       <r>     3.1247     0.0000     2.5000 </r>
       <r>     3.2258     0.0000     2.5000 </r>
       <r>     3.3268     0.0000     2.5000 </r>
       <r>     3.4278     0.0000     2.5000 </r>
       <r>     3.5288     0.0000     2.5000 </r>
       <r>     3.6298     0.0000     2.5000 </r>
       <r>     3.7308     0.0000     2.5000 </r>
       <r>     3.8318     0.0000     2.5000 </r>
       <r>     3.9328     0.0000     2.5000 </r>
       <r>     4.0338     0.0000     2.5000 </r>
       <r>     4.1348     0.0000     2.5000 </r>
       <r>     4.2358     0.0000     2.5000 </r>
       <r>     4.3368     0.0000     2.5000 </r>
       <r>     4.4378     0.0000     2.5000 </r>
       <r>     4.5389     0.0000     2.5000 </r>
       <r>     4.6399     0.0000     2.5000 </r>
       <r>     4.7409     0.0000     2.5000 </r>
       <r>     4.8419     0.0000     2.5000 </r>
       <r>     4.9429     0.0000     2.5000 </r>
       <r>     5.0439     0.0000     2.5000 </r>
       <r>     5.1449     0.0000     2.5000 </r>
       <r>     5.2459     0.0000     2.5000 </r>
       <r>     5.3469     0.0000     2.5000 </r>
       <r>     5.4479     2.1096     2.7131 </r>
       <r>     5.5489     0.0000     4.0000 </r>
       <r>     5.6499     0.0000     4.0000 </r>
       <r>     5.7509     0.0000     4.0000 </r>
       <r>     5.8519     0.0000     4.0000 </r>
       <r>     5.9530     0.0000     4.0000 </r>
       <r>     6.0540     0.0000     4.0000 </r>
       <r>     6.1550     0.0000     4.0000 </r>
       <r>     6.2560     0.0000     4.0000 </r>
       <r>     6.3570     0.0000     4.0000 </r>
       <r>     6.4580     0.0000     4.0000 </r>
       <r>     6.5590     0.0000     4.0000 </r>
       <r>     6.6600     0.0000     4.0000 </r>
       <r>     6.7610     0.0000     4.0000 </r>
       <r>     6.8620     0.0000     4.0000 </r>
       <r>     6.9630     0.0000     4.0000 </r>
       <r>     7.0640     0.0000     4.0000 </r>
       <r>     7.1650     0.0075     4.0008 </r>
       <r>     7.2660     0.0000     4.5000 </r>
       <r>     7.3671     0.0000     4.5000 </r>
       <r>     7.4681     0.0000     4.5000 </r>
       <r>     7.5691     0.0000     4.5000 </r>
       <r>     7.6701     0.0000     4.5000 </r>
       <r>     7.7711     0.0000     4.5000 </r>
       <r>     7.8721     0.0000     4.5000 </r>
       <r>     7.9731     0.0000     4.5000 </r>
       <r>     8.0741     1.9140     4.6933 </r>
       <r>     8.1751     0.0000     5.0000 </r>
       <r>     8.2761     0.0000     5.0000 </r>
       <r>     8.3771     0.0000     5.0000 </r>
       <r>     8.4781     0.0000     5.0000 </r>
       <r>     8.5791     0.0000     5.0000 </r>
       <r>     8.6801     0.0000     5.0000 </r>
       <r>     8.7812     0.0000     5.0000 </r>
       <r>     8.8822     0.0000     5.0000 </r>
       <r>     8.9832     0.0000     5.0000 </r>
       <r>     9.0842     0.0000     5.0000 </r>
       <r>     9.1852     0.0000     5.0000 </r>
       <r>     9.2862     0.0000     5.0000 </r>
       <r>     9.3872    14.8504     6.5000 </r>
       <r>     9.4882     0.0000     6.5000 </r>
       <r>     9.5892     0.0000     6.5000 </r>
       <r>     9.6902     0.0000     6.5000 </r>
       <r>     9.7912     0.0000     6.5000 </r>
       <r>     9.8922     0.0000     6.5000 </r>
       <r>     9.9932     0.0000     6.5000 </r>
       <r>    10.0943     0.0000     6.5000 </r>
       <r>    10.1953     0.0000     6.5000 </r>
       <r>    10.2963     0.0000     6.5000 </r>
       <r>    10.3973     0.0000     6.5000 </r>
       <r>    10.4983     1.1612     6.6173 </r>
       <r>    10.5993     0.0000     7.0000 </r>
       <r>    10.7003     0.0000     7.0000 </r>
       <r>    10.8013     0.0000     7.0000 </r>
       <r>    10.9023     0.0000     7.0000 </r>
       <r>    11.0033     0.0000     7.0000 </r>
       <r>    11.1043     0.0000     7.0000 </r>
       <r>    11.2053     0.0000     7.0000 </r>
       <r>    11.3063     0.0000     7.0000 </r>
       <r>    11.4073     0.0000     7.0000 </r>
       <r>    11.5084     0.0000     7.0000 </r>
       <r>    11.6094     0.0000     7.0000 </r>
       <r>    11.7104     0.0000     7.0000 </r>
       <r>    11.8114     0.0000     7.0000 </r>
       <r>    11.9124     0.0000     7.0000 </r>
       <r>    12.0134     0.0000     7.0000 </r>
       <r>    12.1144     0.0000     7.0000 </r>
       <r>    12.2154     0.0000     7.0000 </r>
       <r>    12.3164     0.0000     7.0000 </r>
       <r>    12.4174     0.0000     7.0000 </r>
       <r>    12.5184     0.0000     7.0000 </r>
       <r>    12.6194     0.0000     7.0000 </r>
       <r>    12.7204     0.0000     7.0000 </r>
       <r>    12.8214     0.0000     7.0000 </r>
       <r>    12.9225     0.0000     7.0000 </r>
       <r>    13.0235     0.0000     7.0000 </r>
       <r>    13.1245     0.0000     7.0000 </r>
       <r>    13.2255     0.0000     7.0000 </r>
       <r>    13.3265     0.0000     7.0000 </r>
       <r>    13.4275     0.0000     7.0000 </r>
       <r>    13.5285     0.0000     7.0000 </r>
       <r>    13.6295     0.0000     7.0000 </r>
       <r>    13.7305     0.0000     7.0000 </r>
       <r>    13.8315     0.0000     7.0000 </r>
       <r>    13.9325     0.0000     7.0000 </r>
       <r>    14.0335     0.0000     7.0000 </r>
       <r>    14.1345     0.0000     7.0000 </r>
       <r>    14.2355     0.0000     7.0000 </r>
       <r>    14.3366     0.0000     7.0000 </r>
       <r>    14.4376     0.0000     7.0000 </r>
       <r>    14.5386     0.0003     7.0000 </r>
       <r>    14.6396    14.8501     8.5000 </r>
       <r>    14.7406     0.0000     8.5000 </r>
       <r>    14.8416     0.0000     8.5000 </r>
       <r>    14.9426     2.9125     8.7942 </r>
       <r>    15.0436     0.0000     9.5000 </r>
       <r>    15.1446     0.0000     9.5000 </r>
       <r>    15.2456     0.0000     9.5000 </r>
       <r>    15.3466     0.0000     9.5000 </r>
       <r>    15.4476     0.0000     9.5000 </r>
       <r>    15.5486     0.0000     9.5000 </r>
       <r>    15.6497     0.0000     9.5000 </r>
       <r>    15.7507     0.0000     9.5000 </r>
       <r>    15.8517     0.0000     9.5000 </r>
       <r>    15.9527     0.0000     9.5000 </r>
       <r>    16.0537     0.0000     9.5000 </r>
       <r>    16.1547     0.0000     9.5000 </r>
       <r>    16.2557     0.0000     9.5000 </r>
       <r>    16.3567     0.0000     9.5000 </r>
       <r>    16.4577     0.0000     9.5000 </r>
       <r>    16.5587     0.0000     9.5000 </r>
       <r>    16.6597     0.0000     9.5000 </r>
       <r>    16.7607     0.0000     9.5000 </r>
       <r>    16.8617     0.0000     9.5000 </r>
       <r>    16.9627     0.0000     9.5000 </r>
       <r>    17.0638     0.0000     9.5000 </r>
       <r>    17.1648     0.0000     9.5000 </r>
       <r>    17.2658     0.0000     9.5000 </r>
       <r>    17.3668     0.0000     9.5000 </r>
       <r>    17.4678     4.9501    10.0000 </r>
       <r>    17.5688     0.0000    10.0000 </r>
       <r>    17.6698     0.0000    10.0000 </r>
       <r>    17.7708     0.0000    10.0000 </r>
       <r>    17.8718     4.9501    10.5000 </r>
       <r>    17.9728     4.9501    11.0000 </r>
       <r>    18.0738     0.0000    11.0000 </r>
       <r>    18.1748     0.0000    11.0000 </r>
       <r>    18.2758     0.0000    11.0000 </r>
       <r>    18.3768     0.0000    11.0000 </r>
       <r>    18.4779     0.0000    11.0000 </r>
       <r>    18.5789     0.0000    11.0000 </r>
       <r>    18.6799     0.0000    11.0000 </r>
       <r>    18.7809     0.0000    11.0000 </r>
       <r>    18.8819     0.0000    11.0000 </r>
       <r>    18.9829     0.0000    11.0000 </r>
       <r>    19.0839     0.0000    11.0000 </r>
       <r>    19.1849     0.0000    11.0000 </r>
       <r>    19.2859     0.0000    11.0000 </r>
       <r>    19.3869     0.0000    11.0000 </r>
       <r>    19.4879     0.0000    11.0000 </r>
       <r>    19.5889     0.0000    11.0000 </r>
       <r>    19.6899     0.0000    11.0000 </r>
       <r>    19.7910     0.0000    11.0000 </r>
       <r>    19.8920     0.0000    11.0000 </r>
       <r>    19.9930     0.0000    11.0000 </r>
       <r>    20.0940     0.0000    11.0000 </r>
       <r>    20.1950     0.0000    11.0000 </r>
       <r>    20.2960     9.9003    12.0000 </r>
       <r>    20.3970     0.0000    12.0000 </r>
       <r>    20.4980     0.0000    12.0000 </r>
       <r>    20.5990     0.0000    12.0000 </r>
       <r>    20.7000     0.0000    12.0000 </r>
       <r>    20.8010     0.0000    12.0000 </r>
       <r>    20.9020     0.0000    12.0000 </r>
       <r>    21.0030     0.0000    12.0000 </r>
       <r>    21.1040     0.0000    12.0000 </r>
       <r>    21.2051     0.0000    12.0000 </r>
       <r>    21.3061     0.0000    12.0000 </r>
       <r>    21.4071     0.0000    12.0000 </r>
       <r>    21.5081     0.0000    12.0000 </r>
       <r>    21.6091     0.0000    12.0000 </r>
      </set>
     </set>
    </array>
   </total>
   <partial>
    <array>
     <dimension dim="1">gridpoints</dimension>
     <dimension dim="2">spin</dimension>
     <dimension dim="3">ion</dimension>
     <field>energy</field>
     <field>    s</field>
     <field>   py</field>
     <field>   pz</field>
     <field>   px</field>
     <field>  dxy</field>
     <field>  dyz</field>
     <field>  dz2</field>
     <field>  dxz</field>
     <field>x2-y2</field>
     <set>
      <set comment="ion 1">
       <set comment="spin 1">
        <r>    -8.6931     0.0000     0.0000     0.0000     0.0000     0.0000     0.0000     0.0000     0.0000     0.0000 </r>
        <r>    -8.5921     0.0000     0.0000     0.0000     0.0000     0.0000     0.0000     0.0000     0.0000     0.0000 </r>
        <r>    -8.4911     0.0000     0.0000     0.0000     0.0000     0.0000     0.0000     0.0000     0.0000     0.0000 </r>
        <r>    -8.3901     0.0000     0.0000     0.0000     0.0000     0.0000     0.0000     0.0000     0.0000     0.0000 </r>
        <r>    -8.2891     0.0000     0.0000     0.0000     0.0000     0.0000     0.0000     0.0000     0.0000     0.0000 </r>
        <r>    -8.1881     0.0000     0.0000     0.0000     0.0000     0.0000     0.0000     0.0000     0.0000     0.0000 </r>
        <r>    -8.0871     0.0000     0.0000     0.0000     0.0000     0.0000     0.0000     0.0000     0.0000     0.0000 </r>
        <r>    -7.9861     0.0000     0.0000     0.0000     0.0000     0.0000     0.0000     0.0000     0.0000     0.0000 </r>
        <r>    -7.8850     0.0000     0.0000     0.0000     0.0000     0.0000     0.0000     0.0000     0.0000     0.0000 </r>
        <r>    -7.7840     0.0000     0.0000     0.0000     0.0000     0.0000     0.0000     0.0000     0.0000     0.0000 </r>
        <r>    -7.6830     0.0000     0.0000     0.0000     0.0000     0.0000     0.0000     0.0000     0.0000     0.0000 </r>
        <r>    -7.5820     0.0000     0.0000     0.0000     0.0000     0.0000     0.0000     0.0000     0.0000     0.0000 </r>
        <r>    -7.4810     0.0000     0.0000     0.0000     0.0000     0.0000     0.0000     0.0000     0.0000     0.0000 </r>
        <r>    -7.3800     0.0000     0.0000     0.0000     0.0000     0.0000     0.0000     0.0000     0.0000     0.0000 </r>
        <r>    -7.2790     1.0640     0.0000     0.0000     0.0000     0.0000     0.0000     0.0000     0.0000     0.0000 </r>
        <r>    -7.1780     0.0000     0.0000     0.0000     0.0000     0.0000     0.0000     0.0000     0.0000     0.0000 </r>
        <r>    -7.0770     0.0000     0.0000     0.0000     0.0000     0.0000     0.0000     0.0000     0.0000     0.0000 </r>
        <r>    -6.9760     0.0000     0.0000     0.0000     0.0000     0.0000     0.0000     0.0000     0.0000     0.0000 </r>
        <r>    -6.8750     0.0000     0.0000     0.0000     0.0000     0.0000     0.0000     0.0000     0.0000     0.0000 </r>
        <r>    -6.7740     0.0000     0.0000     0.0000     0.0000     0.0000     0.0000     0.0000     0.0000     0.0000 </r>
        <r>    -6.6730     0.0000     0.0000     0.0000     0.0000     0.0000     0.0000     0.0000     0.0000     0.0000 </r>
        <r>    -6.5719     0.0000     0.0000     0.0000     0.0000     0.0000     0.0000     0.0000     0.0000     0.0000 </r>
        <r>    -6.4709     0.0000     0.0000     0.0000     0.0000     0.0000     0.0000     0.0000     0.0000     0.0000 </r>
        <r>    -6.3699     0.0000     0.0000     0.0000     0.0000     0.0000     0.0000     0.0000     0.0000     0.0000 </r>
        <r>    -6.2689     0.0000     0.0000     0.0000     0.0000     0.0000     0.0000     0.0000     0.0000     0.0000 </r>
        <r>    -6.1679     0.0000     0.0000     0.0000     0.0000     0.0000     0.0000     0.0000     0.0000     0.0000 </r>
        <r>    -6.0669     0.0000     0.0000     0.0000     0.0000     0.0000     0.0000     0.0000     0.0000     0.0000 </r>
        <r>    -5.9659     0.0000     0.0000     0.0000     0.0000     0.0000     0.0000     0.0000     0.0000     0.0000 </r>
        <r>    -5.8649     0.0000     0.0000     0.0000     0.0000     0.0000     0.0000     0.0000     0.0000     0.0000 </r>
        <r>    -5.7639     0.0000     0.0000     0.0000     0.0000     0.0000     0.0000     0.0000     0.0000     0.0000 </r>
        <r>    -5.6629     0.0000     0.0000     0.0000     0.0000     0.0000     0.0000     0.0000     0.0000     0.0000 </r>
        <r>    -5.5619     0.0000     0.0000     0.0000     0.0000     0.0000     0.0000     0.0000     0.0000     0.0000 </r>
        <r>    -5.4609     0.0000     0.0000     0.0000     0.0000     0.0000     0.0000     0.0000     0.0000     0.0000 </r>
        <r>    -5.3599     0.0000     0.0000     0.0000     0.0000     0.0000     0.0000     0.0000     0.0000     0.0000 </r>
        <r>    -5.2589     0.0000     0.0000     0.0000     0.0000     0.0000     0.0000     0.0000     0.0000     0.0000 </r>
        <r>    -5.1578     0.0000     0.0000     0.0000     0.0000     0.0000     0.0000     0.0000     0.0000     0.0000 </r>
        <r>    -5.0568     0.0000     0.0000     0.0000     0.0000     0.0000     0.0000     0.0000     0.0000     0.0000 </r>
        <r>    -4.9558     0.0000     0.0000     0.0000     0.0000     0.0000     0.0000     0.0000     0.0000     0.0000 </r>
        <r>    -4.8548     0.0000     0.0000     0.0000     0.0000     0.0000     0.0000     0.0000     0.0000     0.0000 </r>
        <r>    -4.7538     0.0000     0.0000     0.0000     0.0000     0.0000     0.0000     0.0000     0.0000     0.0000 </r>
        <r>    -4.6528     0.2372     0.0104     0.0104     0.0104     0.0000     0.0000     0.0000     0.0000     0.0000 </r>
        <r>    -4.5518     0.0000     0.0000     0.0000     0.0000     0.0000     0.0000     0.0000     0.0000     0.0000 </r>
        <r>    -4.4508     0.0000     0.0000     0.0000     0.0000     0.0000     0.0000     0.0000     0.0000     0.0000 </r>
        <r>    -4.3498     0.0000     0.0000     0.0000     0.0000     0.0000     0.0000     0.0000     0.0000     0.0000 </r>
        <r>    -4.2488     0.0000     0.0000     0.0000     0.0000     0.0000     0.0000     0.0000     0.0000     0.0000 </r>
        <r>    -4.1478     0.0000     0.0000     0.0000     0.0000     0.0000     0.0000     0.0000     0.0000     0.0000 </r>
        <r>    -4.0468     0.0000     0.0000     0.0000     0.0000     0.0000     0.0000     0.0000     0.0000     0.0000 </r>
        <r>    -3.9458     0.0000     0.0000     0.0000     0.0000     0.0000     0.0000     0.0000     0.0000     0.0000 </r>
        <r>    -3.8448     0.0000     0.0000     0.0000     0.0000     0.0000     0.0000     0.0000     0.0000     0.0000 </r>
        <r>    -3.7437     0.0000     0.0000     0.0000     0.0000     0.0000     0.0000     0.0000     0.0000     0.0000 </r>
        <r>    -3.6427     0.0000     0.0000     0.0000     0.0000     0.0000     0.0000     0.0000     0.0000     0.0000 </r>
        <r>    -3.5417     0.0000     0.0000     0.0000     0.0000     0.0000     0.0000     0.0000     0.0000     0.0000 </r>
        <r>    -3.4407     0.0000     0.0000     0.0000     0.0000     0.0000     0.0000     0.0000     0.0000     0.0000 </r>
        <r>    -3.3397     0.0000     0.0000     0.0000     0.0000     0.0000     0.0000     0.0000     0.0000     0.0000 </r>
        <r>    -3.2387     0.0000     0.0000     0.0000     0.0000     0.0000     0.0000     0.0000     0.0000     0.0000 </r>
        <r>    -3.1377     0.0000     0.0000     0.0000     0.0000     0.0000     0.0000     0.0000     0.0000     0.0000 </r>
        <r>    -3.0367     0.0000     0.0000     0.0000     0.0000     0.0000     0.0000     0.0000     0.0000     0.0000 </r>
        <r>    -2.9357     0.0000     0.0000     0.0000     0.0000     0.0000     0.0000     0.0000     0.0000     0.0000 </r>
        <r>    -2.8347     0.0000     0.0000     0.0000     0.0000     0.0000     0.0000     0.0000     0.0000     0.0000 </r>
        <r>    -2.7337     0.0000     0.0000     0.0000     0.0000     0.0000     0.0000     0.0000     0.0000     0.0000 </r>
        <r>    -2.6327     0.0000     0.0000     0.0000     0.0000     0.0000     0.0000     0.0000     0.0000     0.0000 </r>
        <r>    -2.5317     0.0000     0.0000     0.0000     0.0000     0.0000     0.0000     0.0000     0.0000     0.0000 </r>
        <r>    -2.4307     0.0000     0.0000     0.0000     0.0000     0.0000     0.0000     0.0000     0.0000     0.0000 </r>
        <r>    -2.3296     0.0000     0.0000     0.0000     0.0000     0.0000     0.0000     0.0000     0.0000     0.0000 </r>
        <r>    -2.2286     0.0000     0.0000     0.0000     0.0000     0.0000     0.0000     0.0000     0.0000     0.0000 </r>
        <r>    -2.1276     0.0000     0.0000     0.0000     0.0000     0.0000     0.0000     0.0000     0.0000     0.0000 </r>
        <r>    -2.0266     0.0000     0.0000     0.0000     0.0000     0.0000     0.0000     0.0000     0.0000     0.0000 </r>
        <r>    -1.9256     0.0000     0.0000     0.0000     0.0000     0.0000     0.0000     0.0000     0.0000     0.0000 </r>
        <r>    -1.8246     0.0000     0.0000     0.0000     0.0000     0.0000     0.0000     0.0000     0.0000     0.0000 </r>
        <r>    -1.7236     0.0000     0.0000     0.0000     0.0000     0.0000     0.0000     0.0000     0.0000     0.0000 </r>
        <r>    -1.6226     0.0000     0.0000     0.0000     0.0000     0.0000     0.0000     0.0000     0.0000     0.0000 </r>
        <r>    -1.5216     0.0000     0.0000     0.0000     0.0000     0.0000     0.0000     0.0000     0.0000     0.0000 </r>
        <r>    -1.4206     0.0000     0.0000     0.0000     0.0000     0.0000     0.0000     0.0000     0.0000     0.0000 </r>
        <r>    -1.3196     0.0000     0.0000     0.0000     0.0000     0.0000     0.0000     0.0000     0.0000     0.0000 </r>
        <r>    -1.2186     0.0000     0.0000     0.0000     0.0000     0.0000     0.0000     0.0000     0.0000     0.0000 </r>
        <r>    -1.1176     0.0000     0.0000     0.0000     0.0000     0.0000     0.0000     0.0000     0.0000     0.0000 </r>
        <r>    -1.0165     0.0000     0.0000     0.0000     0.0000     0.0000     0.0000     0.0000     0.0000     0.0000 </r>
        <r>    -0.9155     0.0000     0.0000     0.0000     0.0000     0.0000     0.0000     0.0000     0.0000     0.0000 </r>
        <r>    -0.8145     0.0000     0.0000     0.0000     0.0000     0.0000     0.0000     0.0000     0.0000     0.0000 </r>
        <r>    -0.7135     0.0000     0.0000     0.0000     0.0000     0.0000     0.0000     0.0000     0.0000     0.0000 </r>
        <r>    -0.6125     0.0000     0.0000     0.0000     0.0000     0.0000     0.0000     0.0000     0.0000     0.0000 </r>
        <r>    -0.5115     0.0000     0.0000     0.0000     0.0000     0.0000     0.0000     0.0000     0.0000     0.0000 </r>
        <r>    -0.4105     0.0000     0.0000     0.0000     0.0000     0.0000     0.0000     0.0000     0.0000     0.0000 </r>
        <r>    -0.3095     0.8771     0.1204     0.1204     0.1204     0.0000     0.0000     0.0000     0.0000     0.0000 </r>
        <r>    -0.2085     0.0000     0.0000     0.0000     0.0000     0.0000     0.0000     0.0000     0.0000     0.0000 </r>
        <r>    -0.1075     0.0000     0.0000     0.0000     0.0000     0.0000     0.0000     0.0000     0.0000     0.0000 </r>
        <r>    -0.0065     0.0000     0.0000     0.0000     0.0000     0.0000     0.0000     0.0000     0.0000     0.0000 </r>
        <r>     0.0945     0.0000     0.0000     0.0000     0.0000     0.0000     0.0000     0.0000     0.0000     0.0000 </r>
        <r>     0.1955     0.0000     0.0000     0.0000     0.0000     0.0000     0.0000     0.0000     0.0000     0.0000 </r>
        <r>     0.2965     0.0000     0.0000     0.0000     0.0000     0.0000     0.0000     0.0000     0.0000     0.0000 </r>
        <r>     0.3976     0.0000     0.0000     0.0000     0.0000     0.0000     0.0000     0.0000     0.0000     0.0000 </r>
        <r>     0.4986     0.0000     0.0000     0.0000     0.0000     0.0000     0.0000     0.0000     0.0000     0.0000 </r>
        <r>     0.5996     0.0000     0.0000     0.0000     0.0000     0.0000     0.0000     0.0000     0.0000     0.0000 </r>
        <r>     0.7006     0.0000     0.0000     0.0000     0.0000     0.0000     0.0000     0.0000     0.0000     0.0000 </r>
        <r>     0.8016     0.0000     0.0000     0.0000     0.0000     0.0000     0.0000     0.0000     0.0000     0.0000 </r>
        <r>     0.9026     0.0000     0.0000     0.0000     0.0000     0.0000     0.0000     0.0000     0.0000     0.0000 </r>
        <r>     1.0036     0.0000     0.0000     0.0000     0.0000     0.0000     0.0000     0.0000     0.0000     0.0000 </r>
        <r>     1.1046     0.0000     0.0000     0.0000     0.0000     0.0000     0.0000     0.0000     0.0000     0.0000 </r>
        <r>     1.2056     0.0000     0.0000     0.0000     0.0000     0.0000     0.0000     0.0000     0.0000     0.0000 </r>
        <r>     1.3066     0.0000     0.0000     0.0000     0.0000     0.0000     0.0000     0.0000     0.0000     0.0000 </r>
        <r>     1.4076     0.0000     0.0000     0.0000     0.0000     0.0000     0.0000     0.0000     0.0000     0.0000 </r>
        <r>     1.5086     0.0000     0.0000     0.0000     0.0000     0.0000     0.0000     0.0000     0.0000     0.0000 </r>
        <r>     1.6096     0.0000     0.0000     0.0000     0.0000     0.0000     0.0000     0.0000     0.0000     0.0000 </r>
        <r>     1.7106     0.0000     0.0000     0.0000     0.0000     0.0000     0.0000     0.0000     0.0000     0.0000 </r>
        <r>     1.8117     0.0000     0.0000     0.0000     0.0000     0.0000     0.0000     0.0000     0.0000     0.0000 </r>
        <r>     1.9127     0.0000     0.0000     0.0000     0.0000     0.0000     0.0000     0.0000     0.0000     0.0000 </r>
        <r>     2.0137     0.0000     0.0000     0.0000     0.0000     0.0000     0.0000     0.0000     0.0000     0.0000 </r>
        <r>     2.1147     0.0000     0.0000     0.0000     0.0000     0.0000     0.0000     0.0000     0.0000     0.0000 </r>
        <r>     2.2157     0.0000     0.0000     0.0000     0.0000     0.0000     0.0000     0.0000     0.0000     0.0000 </r>
        <r>     2.3167     0.0000     0.0000     0.0000     0.0000     0.0000     0.0000     0.0000     0.0000     0.0000 </r>
        <r>     2.4177     0.0000     0.0000     0.0000     0.0000     0.0000     0.0000     0.0000     0.0000     0.0000 </r>
        <r>     2.5187     0.0000     0.0000     0.0000     0.0000     0.0000     0.0000     0.0000     0.0000     0.0000 </r>
        <r>     2.6197     0.0000     0.0000     0.0000     0.0000     0.0000     0.0000     0.0000     0.0000     0.0000 </r>
        <r>     2.7207     0.0000     0.0000     0.0000     0.0000     0.0000     0.0000     0.0000     0.0000     0.0000 </r>
        <r>     2.8217     0.0000     0.0000     0.0000     0.0000     0.0000     0.0000     0.0000     0.0000     0.0000 </r>
        <r>     2.9227     0.0000     0.6449     0.6449     0.6449     0.0000     0.0000     0.0000     0.0000     0.0000 </r>
        <r>     3.0237     0.0000     0.0000     0.0000     0.0000     0.0000     0.0000     0.0000     0.0000     0.0000 </r>
        <r>     3.1247     0.0000     0.0000     0.0000     0.0000     0.0000     0.0000     0.0000     0.0000     0.0000 </r>
        <r>     3.2258     0.0000     0.0000     0.0000     0.0000     0.0000     0.0000     0.0000     0.0000     0.0000 </r>
        <r>     3.3268     0.0000     0.0000     0.0000     0.0000     0.0000     0.0000     0.0000     0.0000     0.0000 </r>
        <r>     3.4278     0.0000     0.0000     0.0000     0.0000     0.0000     0.0000     0.0000     0.0000     0.0000 </r>
        <r>     3.5288     0.0000     0.0000     0.0000     0.0000     0.0000     0.0000     0.0000     0.0000     0.0000 </r>
        <r>     3.6298     0.0000     0.0000     0.0000     0.0000     0.0000     0.0000     0.0000     0.0000     0.0000 </r>
        <r>     3.7308     0.0000     0.0000     0.0000     0.0000     0.0000     0.0000     0.0000     0.0000     0.0000 </r>
        <r>     3.8318     0.0000     0.0000     0.0000     0.0000     0.0000     0.0000     0.0000     0.0000     0.0000 </r>
        <r>     3.9328     0.0000     0.0000     0.0000     0.0000     0.0000     0.0000     0.0000     0.0000     0.0000 </r>
        <r>     4.0338     0.0000     0.0000     0.0000     0.0000     0.0000     0.0000     0.0000     0.0000     0.0000 </r>
        <r>     4.1348     0.0000     0.0000     0.0000     0.0000     0.0000     0.0000     0.0000     0.0000     0.0000 </r>
        <r>     4.2358     0.0000     0.0000     0.0000     0.0000     0.0000     0.0000     0.0000     0.0000     0.0000 </r>
        <r>     4.3368     0.0000     0.0000     0.0000     0.0000     0.0000     0.0000     0.0000     0.0000     0.0000 </r>
        <r>     4.4378     0.0000     0.0000     0.0000     0.0000     0.0000     0.0000     0.0000     0.0000     0.0000 </r>
        <r>     4.5389     0.0000     0.0000     0.0000     0.0000     0.0000     0.0000     0.0000     0.0000     0.0000 </r>
        <r>     4.6399     0.0000     0.0000     0.0000     0.0000     0.0000     0.0000     0.0000     0.0000     0.0000 </r>
        <r>     4.7409     0.0000     0.0000     0.0000     0.0000     0.0000     0.0000     0.0000     0.0000     0.0000 </r>
        <r>     4.8419     0.0000     0.0000     0.0000     0.0000     0.0000     0.0000     0.0000     0.0000     0.0000 </r>
        <r>     4.9429     0.0000     0.0000     0.0000     0.0000     0.0000     0.0000     0.0000     0.0000     0.0000 </r>
        <r>     5.0439     0.0000     0.0000     0.0000     0.0000     0.0000     0.0000     0.0000     0.0000     0.0000 </r>
        <r>     5.1449     0.0000     0.0000     0.0000     0.0000     0.0000     0.0000     0.0000     0.0000     0.0000 </r>
        <r>     5.2459     0.0000     0.0000     0.0000     0.0000     0.0000     0.0000     0.0000     0.0000     0.0000 </r>
        <r>     5.3469     0.0000     0.0000     0.0000     0.0000     0.0000     0.0000     0.0000     0.0000     0.0000 </r>
        <r>     5.4479     0.0000     0.1588     0.1588     0.1588     0.0000     0.0000     0.0000     0.0000     0.0000 </r>
        <r>     5.5489     0.0000     0.0000     0.0000     0.0000     0.0000     0.0000     0.0000     0.0000     0.0000 </r>
        <r>     5.6499     0.0000     0.0000     0.0000     0.0000     0.0000     0.0000     0.0000     0.0000     0.0000 </r>
        <r>     5.7509     0.0000     0.0000     0.0000     0.0000     0.0000     0.0000     0.0000     0.0000     0.0000 </r>
        <r>     5.8519     0.0000     0.0000     0.0000     0.0000     0.0000     0.0000     0.0000     0.0000     0.0000 </r>
        <r>     5.9530     0.0000     0.0000     0.0000     0.0000     0.0000     0.0000     0.0000     0.0000     0.0000 </r>
        <r>     6.0540     0.0000     0.0000     0.0000     0.0000     0.0000     0.0000     0.0000     0.0000     0.0000 </r>
        <r>     6.1550     0.0000     0.0000     0.0000     0.0000     0.0000     0.0000     0.0000     0.0000     0.0000 </r>
        <r>     6.2560     0.0000     0.0000     0.0000     0.0000     0.0000     0.0000     0.0000     0.0000     0.0000 </r>
        <r>     6.3570     0.0000     0.0000     0.0000     0.0000     0.0000     0.0000     0.0000     0.0000     0.0000 </r>
        <r>     6.4580     0.0000     0.0000     0.0000     0.0000     0.0000     0.0000     0.0000     0.0000     0.0000 </r>
        <r>     6.5590     0.0000     0.0000     0.0000     0.0000     0.0000     0.0000     0.0000     0.0000     0.0000 </r>
        <r>     6.6600     0.0000     0.0000     0.0000     0.0000     0.0000     0.0000     0.0000     0.0000     0.0000 </r>
        <r>     6.7610     0.0000     0.0000     0.0000     0.0000     0.0000     0.0000     0.0000     0.0000     0.0000 </r>
        <r>     6.8620     0.0000     0.0000     0.0000     0.0000     0.0000     0.0000     0.0000     0.0000     0.0000 </r>
        <r>     6.9630     0.0000     0.0000     0.0000     0.0000     0.0000     0.0000     0.0000     0.0000     0.0000 </r>
        <r>     7.0640     0.0000     0.0000     0.0000     0.0000     0.0000     0.0000     0.0000     0.0000     0.0000 </r>
        <r>     7.1650     0.0005     0.0001     0.0001     0.0001     0.0000     0.0000     0.0000     0.0000     0.0000 </r>
        <r>     7.2660     0.0000     0.0000     0.0000     0.0000     0.0000     0.0000     0.0000     0.0000     0.0000 </r>
        <r>     7.3671     0.0000     0.0000     0.0000     0.0000     0.0000     0.0000     0.0000     0.0000     0.0000 </r>
        <r>     7.4681     0.0000     0.0000     0.0000     0.0000     0.0000     0.0000     0.0000     0.0000     0.0000 </r>
        <r>     7.5691     0.0000     0.0000     0.0000     0.0000     0.0000     0.0000     0.0000     0.0000     0.0000 </r>
        <r>     7.6701     0.0000     0.0000     0.0000     0.0000     0.0000     0.0000     0.0000     0.0000     0.0000 </r>
        <r>     7.7711     0.0000     0.0000     0.0000     0.0000     0.0000     0.0000     0.0000     0.0000     0.0000 </r>
        <r>     7.8721     0.0000     0.0000     0.0000     0.0000     0.0000     0.0000     0.0000     0.0000     0.0000 </r>
        <r>     7.9731     0.0000     0.0000     0.0000     0.0000     0.0000     0.0000     0.0000     0.0000     0.0000 </r>
        <r>     8.0741     0.0837     0.0161     0.0161     0.0161     0.0000     0.0000     0.0000     0.0000     0.0000 </r>
        <r>     8.1751     0.0000     0.0000     0.0000     0.0000     0.0000     0.0000     0.0000     0.0000     0.0000 </r>
        <r>     8.2761     0.0000     0.0000     0.0000     0.0000     0.0000     0.0000     0.0000     0.0000     0.0000 </r>
        <r>     8.3771     0.0000     0.0000     0.0000     0.0000     0.0000     0.0000     0.0000     0.0000     0.0000 </r>
        <r>     8.4781     0.0000     0.0000     0.0000     0.0000     0.0000     0.0000     0.0000     0.0000     0.0000 </r>
        <r>     8.5791     0.0000     0.0000     0.0000     0.0000     0.0000     0.0000     0.0000     0.0000     0.0000 </r>
        <r>     8.6801     0.0000     0.0000     0.0000     0.0000     0.0000     0.0000     0.0000     0.0000     0.0000 </r>
        <r>     8.7812     0.0000     0.0000     0.0000     0.0000     0.0000     0.0000     0.0000     0.0000     0.0000 </r>
        <r>     8.8822     0.0000     0.0000     0.0000     0.0000     0.0000     0.0000     0.0000     0.0000     0.0000 </r>
        <r>     8.9832     0.0000     0.0000     0.0000     0.0000     0.0000     0.0000     0.0000     0.0000     0.0000 </r>
[...]
        <r>    17.3668     0.0000     0.0000     0.0000     0.0000     0.0000     0.0000     0.0000     0.0000     0.0000 </r>
        <r>    17.4678     0.0000     0.0000     0.0000     0.0000     0.0000     0.0000     0.0000     0.0000     0.0000 </r>
        <r>    17.5688     0.0000     0.0000     0.0000     0.0000     0.0000     0.0000     0.0000     0.0000     0.0000 </r>
        <r>    17.6698     0.0000     0.0000     0.0000     0.0000     0.0000     0.0000     0.0000     0.0000     0.0000 </r>
        <r>    17.7708     0.0000     0.0000     0.0000     0.0000     0.0000     0.0000     0.0000     0.0000     0.0000 </r>
        <r>    17.8718     0.6485     0.2612     0.2612     0.2612     0.0000     0.0000     0.0000     0.0000     0.0000 </r>
        <r>    17.9728     0.0000     0.0671     0.0671     0.0671     0.0000     0.0000     0.0000     0.0000     0.0000 </r>
        <r>    18.0738     0.0000     0.0000     0.0000     0.0000     0.0000     0.0000     0.0000     0.0000     0.0000 </r>
        <r>    18.1748     0.0000     0.0000     0.0000     0.0000     0.0000     0.0000     0.0000     0.0000     0.0000 </r>
        <r>    18.2758     0.0000     0.0000     0.0000     0.0000     0.0000     0.0000     0.0000     0.0000     0.0000 </r>
        <r>    18.3768     0.0000     0.0000     0.0000     0.0000     0.0000     0.0000     0.0000     0.0000     0.0000 </r>
        <r>    18.4779     0.0000     0.0000     0.0000     0.0000     0.0000     0.0000     0.0000     0.0000     0.0000 </r>
        <r>    18.5789     0.0000     0.0000     0.0000     0.0000     0.0000     0.0000     0.0000     0.0000     0.0000 </r>
        <r>    18.6799     0.0000     0.0000     0.0000     0.0000     0.0000     0.0000     0.0000     0.0000     0.0000 </r>
        <r>    18.7809     0.0000     0.0000     0.0000     0.0000     0.0000     0.0000     0.0000     0.0000     0.0000 </r>
        <r>    18.8819     0.0000     0.0000     0.0000     0.0000     0.0000     0.0000     0.0000     0.0000     0.0000 </r>
        <r>    18.9829     0.0000     0.0000     0.0000     0.0000     0.0000     0.0000     0.0000     0.0000     0.0000 </r>
        <r>    19.0839     0.0000     0.0000     0.0000     0.0000     0.0000     0.0000     0.0000     0.0000     0.0000 </r>
        <r>    19.1849     0.0000     0.0000     0.0000     0.0000     0.0000     0.0000     0.0000     0.0000     0.0000 </r>
        <r>    19.2859     0.0000     0.0000     0.0000     0.0000     0.0000     0.0000     0.0000     0.0000     0.0000 </r>
        <r>    19.3869     0.0000     0.0000     0.0000     0.0000     0.0000     0.0000     0.0000     0.0000     0.0000 </r>
        <r>    19.4879     0.0000     0.0000     0.0000     0.0000     0.0000     0.0000     0.0000     0.0000     0.0000 </r>
        <r>    19.5889     0.0000     0.0000     0.0000     0.0000     0.0000     0.0000     0.0000     0.0000     0.0000 </r>
        <r>    19.6899     0.0000     0.0000     0.0000     0.0000     0.0000     0.0000     0.0000     0.0000     0.0000 </r>
        <r>    19.7910     0.0000     0.0000     0.0000     0.0000     0.0000     0.0000     0.0000     0.0000     0.0000 </r>
        <r>    19.8920     0.0000     0.0000     0.0000     0.0000     0.0000     0.0000     0.0000     0.0000     0.0000 </r>
        <r>    19.9930     0.0000     0.0000     0.0000     0.0000     0.0000     0.0000     0.0000     0.0000     0.0000 </r>
        <r>    20.0940     0.0000     0.0000     0.0000     0.0000     0.0000     0.0000     0.0000     0.0000     0.0000 </r>
        <r>    20.1950     0.0000     0.0000     0.0000     0.0000     0.0000     0.0000     0.0000     0.0000     0.0000 </r>
        <r>    20.2960     0.0000     0.2260     0.2260     0.2260     0.0000     0.0000     0.0000     0.0000     0.0000 </r>
        <r>    20.3970     0.0000     0.0000     0.0000     0.0000     0.0000     0.0000     0.0000     0.0000     0.0000 </r>
        <r>    20.4980     0.0000     0.0000     0.0000     0.0000     0.0000     0.0000     0.0000     0.0000     0.0000 </r>
        <r>    20.5990     0.0000     0.0000     0.0000     0.0000     0.0000     0.0000     0.0000     0.0000     0.0000 </r>
        <r>    20.7000     0.0000     0.0000     0.0000     0.0000     0.0000     0.0000     0.0000     0.0000     0.0000 </r>
        <r>    20.8010     0.0000     0.0000     0.0000     0.0000     0.0000     0.0000     0.0000     0.0000     0.0000 </r>
        <r>    20.9020     0.0000     0.0000     0.0000     0.0000     0.0000     0.0000     0.0000     0.0000     0.0000 </r>
        <r>    21.0030     0.0000     0.0000     0.0000     0.0000     0.0000     0.0000     0.0000     0.0000     0.0000 </r>
        <r>    21.1040     0.0000     0.0000     0.0000     0.0000     0.0000     0.0000     0.0000     0.0000     0.0000 </r>
        <r>    21.2051     0.0000     0.0000     0.0000     0.0000     0.0000     0.0000     0.0000     0.0000     0.0000 </r>
        <r>    21.3061     0.0000     0.0000     0.0000     0.0000     0.0000     0.0000     0.0000     0.0000     0.0000 </r>
        <r>    21.4071     0.0000     0.0000     0.0000     0.0000     0.0000     0.0000     0.0000     0.0000     0.0000 </r>
        <r>    21.5081     0.0000     0.0000     0.0000     0.0000     0.0000     0.0000     0.0000     0.0000     0.0000 </r>
        <r>    21.6091     0.0000     0.0000     0.0000     0.0000     0.0000     0.0000     0.0000     0.0000     0.0000 </r>
       </set>
      </set>
     </set>
    </array>
   </partial>
  </dos>
  <projected>
   <eigenvalues>
    <array>
     <dimension dim="1">band</dimension>
     <dimension dim="2">kpoint</dimension>
     <dimension dim="3">spin</dimension>
     <field>eigene</field>
     <field>occ</field>
     <set>
      <set comment="spin 1">
       <set comment="kpoint 1">
        <r>   -7.3157    1.0000 </r>
        <r>    5.4552    1.0000 </r>
        <r>    5.4552    1.0000 </r>
        <r>    5.4552    1.0000 </r>
        <r>    9.3207    0.0000 </r>
        <r>    9.3207    0.0000 </r>
        <r>    9.3207    0.0000 </r>
        <r>   10.5032    0.0000 </r>
        <r>   14.5659    0.0000 </r>
        <r>   14.6075    0.0000 </r>
        <r>   14.6075    0.0000 </r>
        <r>   17.9100    0.0000 </r>
       </set>
       <set comment="kpoint 2">
        <r>   -4.6478    1.0000 </r>
        <r>   -0.3598    1.0000 </r>
        <r>    2.8729    1.0000 </r>
        <r>    2.8729    1.0000 </r>
        <r>    7.1858    0.0000 </r>
        <r>    8.0759    0.0000 </r>
        <r>   14.9461    0.0000 </r>
        <r>   14.9461    0.0000 </r>
        <r>   17.4067    0.0000 </r>
        <r>   17.8340    0.0000 </r>
        <r>   20.2313    0.0000 </r>
        <r>   20.2314    0.0000 </r>
       </set>
      </set>
      <set comment="spin 2">
       <set comment="kpoint 1">
        <r>   -7.3155    1.0000 </r>
        <r>    5.4555    1.0000 </r>
        <r>    5.4555    1.0000 </r>
        <r>    5.4555    1.0000 </r>
        <r>    9.3210    0.0000 </r>
        <r>    9.3210    0.0000 </r>
        <r>    9.3210    0.0000 </r>
        <r>   10.5034    0.0000 </r>
        <r>   14.5656    0.0000 </r>
        <r>   14.6078    0.0000 </r>
        <r>   14.6078    0.0000 </r>
        <r>   17.9106    0.0000 </r>
       </set>
       <set comment="kpoint 2">
        <r>   -4.6475    1.0000 </r>
        <r>   -0.3596    1.0000 </r>
        <r>    2.8732    1.0000 </r>
        <r>    2.8732    1.0000 </r>
        <r>    7.1860    0.0000 </r>
        <r>    8.0761    0.0000 </r>
        <r>   14.9464    0.0000 </r>
        <r>   14.9464    0.0000 </r>
        <r>   17.4070    0.0000 </r>
        <r>   17.8342    0.0000 </r>
        <r>   20.2317    0.0000 </r>
        <r>   20.2317    0.0000 </r>
       </set>
      </set>
     </set>
    </array>
   </eigenvalues>
   <array>
    <dimension dim="1">ion</dimension>
    <dimension dim="2">band</dimension>
    <dimension dim="3">kpoint</dimension>
    <dimension dim="4">spin</dimension>
    <field>    s</field>
    <field>   py</field>
    <field>   pz</field>
    <field>   px</field>
    <field>  dxy</field>
    <field>  dyz</field>
    <field>  dz2</field>
    <field>  dxz</field>
    <field>x2-y2</field>
    <set>
     <set comment="spin1">
      <set comment="kpoint 1">
       <set comment="band 1">
        <r>  0.2149  0.0000  0.0000  0.0000  0.0000  0.0000  0.0000  0.0000  0.0000 </r>
        <r>  0.2149  0.0000  0.0000  0.0000  0.0000  0.0000  0.0000  0.0000  0.0000 </r>
       </set>
       <set comment="band 2">
        <r>  0.0000  0.0044  0.0296  0.1795  0.0000  0.0000  0.0000  0.0000  0.0000 </r>
        <r>  0.0000  0.0044  0.0296  0.1795  0.0000  0.0000  0.0000  0.0000  0.0000 </r>
       </set>
       <set comment="band 3">
        <r>  0.0000  0.1933  0.0105  0.0098  0.0000  0.0000  0.0000  0.0000  0.0000 </r>
        <r>  0.0000  0.1933  0.0105  0.0098  0.0000  0.0000  0.0000  0.0000  0.0000 </r>
       </set>
       <set comment="band 4">
        <r>  0.0000  0.0159  0.1734  0.0243  0.0000  0.0000  0.0000  0.0000  0.0000 </r>
        <r>  0.0000  0.0159  0.1734  0.0243  0.0000  0.0000  0.0000  0.0000  0.0000 </r>
       </set>
       <set comment="band 5">
        <r>  0.0000  0.1450  0.0000  0.0017  0.0000  0.0000  0.0000  0.0000  0.0000 </r>
        <r>  0.0000  0.1450  0.0000  0.0017  0.0000  0.0000  0.0000  0.0000  0.0000 </r>
       </set>
       <set comment="band 6">
        <r>  0.0000  0.0016  0.0047  0.1404  0.0000  0.0000  0.0000  0.0000  0.0000 </r>
        <r>  0.0000  0.0016  0.0047  0.1404  0.0000  0.0000  0.0000  0.0000  0.0000 </r>
       </set>
       <set comment="band 7">
        <r>  0.0000  0.0001  0.1420  0.0046  0.0000  0.0000  0.0000  0.0000  0.0000 </r>
        <r>  0.0000  0.0001  0.1420  0.0046  0.0000  0.0000  0.0000  0.0000  0.0000 </r>
       </set>
       <set comment="band 8">
        <r>  0.3612  0.0000  0.0000  0.0000  0.0000  0.0000  0.0000  0.0000  0.0000 </r>
        <r>  0.3612  0.0000  0.0000  0.0000  0.0000  0.0000  0.0000  0.0000  0.0000 </r>
       </set>
       <set comment="band 9">
        <r>  0.1054  0.0000  0.0000  0.0000  0.0000  0.0000  0.0000  0.0000  0.0000 </r>
        <r>  0.1054  0.0000  0.0000  0.0000  0.0000  0.0000  0.0000  0.0000  0.0000 </r>
       </set>
       <set comment="band 10">
        <r>  0.0000  0.0000  0.0000  0.0000  0.0000  0.0000  0.0000  0.0000  0.0000 </r>
        <r>  0.0000  0.0000  0.0000  0.0000  0.0000  0.0000  0.0000  0.0000  0.0000 </r>
       </set>
       <set comment="band 11">
        <r>  0.0000  0.0000  0.0000  0.0000  0.0000  0.0000  0.0000  0.0000  0.0000 </r>
        <r>  0.0000  0.0000  0.0000  0.0000  0.0000  0.0000  0.0000  0.0000  0.0000 </r>
       </set>
       <set comment="band 12">
        <r>  0.0000  0.0227  0.0107  0.0072  0.0000  0.0000  0.0000  0.0000  0.0000 </r>
        <r>  0.0000  0.0227  0.0107  0.0072  0.0000  0.0000  0.0000  0.0000  0.0000 </r>
       </set>
      </set>
      <set comment="kpoint 2">
       <set comment="band 1">
        <r>  0.2019  0.0089  0.0000  0.0178  0.0000  0.0000  0.0000  0.0000  0.0000 </r>
        <r>  0.2019  0.0089  0.0000  0.0178  0.0000  0.0000  0.0000  0.0000  0.0000 </r>
       </set>
       <set comment="band 2">
        <r>  0.1772  0.0243  0.0000  0.0486  0.0000  0.0000  0.0000  0.0000  0.0000 </r>
        <r>  0.1772  0.0243  0.0000  0.0486  0.0000  0.0000  0.0000  0.0000  0.0000 </r>
       </set>
       <set comment="band 3">
        <r>  0.0000  0.1302  0.0000  0.0651  0.0000  0.0000  0.0000  0.0000  0.0000 </r>
        <r>  0.0000  0.1302  0.0000  0.0651  0.0000  0.0000  0.0000  0.0000  0.0000 </r>
       </set>
       <set comment="band 4">
        <r>  0.0000  0.0000  0.1954  0.0000  0.0000  0.0000  0.0000  0.0000  0.0000 </r>
        <r>  0.0000  0.0000  0.1954  0.0000  0.0000  0.0000  0.0000  0.0000  0.0000 </r>
       </set>
       <set comment="band 5">
        <r>  0.0545  0.0149  0.0000  0.0299  0.0000  0.0000  0.0000  0.0000  0.0000 </r>
        <r>  0.0545  0.0149  0.0000  0.0299  0.0000  0.0000  0.0000  0.0000  0.0000 </r>
       </set>
       <set comment="band 6">
        <r>  0.0423  0.0082  0.0000  0.0163  0.0000  0.0000  0.0000  0.0000  0.0000 </r>
        <r>  0.0423  0.0082  0.0000  0.0163  0.0000  0.0000  0.0000  0.0000  0.0000 </r>
       </set>
       <set comment="band 7">
        <r>  0.0000  0.0786  0.0396  0.0393  0.0000  0.0000  0.0000  0.0000  0.0000 </r>
        <r>  0.0000  0.0786  0.0396  0.0393  0.0000  0.0000  0.0000  0.0000  0.0000 </r>
       </set>
       <set comment="band 8">
        <r>  0.0000  0.0264  0.1180  0.0132  0.0000  0.0000  0.0000  0.0000  0.0000 </r>
        <r>  0.0000  0.0264  0.1180  0.0132  0.0000  0.0000  0.0000  0.0000  0.0000 </r>
       </set>
       <set comment="band 9">
        <r>  0.0000  0.0000  0.0000  0.0000  0.0000  0.0000  0.0000  0.0000  0.0000 </r>
        <r>  0.0000  0.0000  0.0000  0.0000  0.0000  0.0000  0.0000  0.0000  0.0000 </r>
       </set>
       <set comment="band 10">
        <r>  0.1310  0.0528  0.0000  0.1055  0.0000  0.0000  0.0000  0.0000  0.0000 </r>
        <r>  0.1310  0.0528  0.0000  0.1055  0.0000  0.0000  0.0000  0.0000  0.0000 </r>
       </set>
       <set comment="band 11">
        <r>  0.0000  0.0004  0.0679  0.0002  0.0000  0.0000  0.0000  0.0000  0.0000 </r>
        <r>  0.0000  0.0004  0.0679  0.0002  0.0000  0.0000  0.0000  0.0000  0.0000 </r>
       </set>
       <set comment="band 12">
        <r>  0.0000  0.0454  0.0006  0.0225  0.0000  0.0000  0.0000  0.0000  0.0000 </r>
        <r>  0.0000  0.0454  0.0006  0.0226  0.0000  0.0000  0.0000  0.0000  0.0000 </r>
       </set>
      </set>
     </set>
     <set comment="spin2">
      <set comment="kpoint 1">
       <set comment="band 1">
        <r>  0.2149  0.0000  0.0000  0.0000  0.0000  0.0000  0.0000  0.0000  0.0000 </r>
        <r>  0.2149  0.0000  0.0000  0.0000  0.0000  0.0000  0.0000  0.0000  0.0000 </r>
       </set>
       <set comment="band 2">
        <r>  0.0000  0.0086  0.0309  0.1740  0.0000  0.0000  0.0000  0.0000  0.0000 </r>
        <r>  0.0000  0.0086  0.0309  0.1740  0.0000  0.0000  0.0000  0.0000  0.0000 </r>
       </set>
       <set comment="band 3">
        <r>  0.0000  0.1891  0.0072  0.0172  0.0000  0.0000  0.0000  0.0000  0.0000 </r>
        <r>  0.0000  0.1891  0.0072  0.0172  0.0000  0.0000  0.0000  0.0000  0.0000 </r>
       </set>
       <set comment="band 4">
        <r>  0.0000  0.0158  0.1754  0.0223  0.0000  0.0000  0.0000  0.0000  0.0000 </r>
        <r>  0.0000  0.0158  0.1754  0.0223  0.0000  0.0000  0.0000  0.0000  0.0000 </r>
       </set>
       <set comment="band 5">
        <r>  0.0000  0.1445  0.0000  0.0021  0.0000  0.0000  0.0000  0.0000  0.0000 </r>
        <r>  0.0000  0.1445  0.0000  0.0021  0.0000  0.0000  0.0000  0.0000  0.0000 </r>
       </set>
       <set comment="band 6">
        <r>  0.0000  0.0022  0.0003  0.1443  0.0000  0.0000  0.0000  0.0000  0.0000 </r>
        <r>  0.0000  0.0022  0.0003  0.1443  0.0000  0.0000  0.0000  0.0000  0.0000 </r>
       </set>
       <set comment="band 7">
        <r>  0.0000  0.0000  0.1464  0.0003  0.0000  0.0000  0.0000  0.0000  0.0000 </r>
        <r>  0.0000  0.0000  0.1464  0.0003  0.0000  0.0000  0.0000  0.0000  0.0000 </r>
       </set>
       <set comment="band 8">
        <r>  0.3612  0.0000  0.0000  0.0000  0.0000  0.0000  0.0000  0.0000  0.0000 </r>
        <r>  0.3612  0.0000  0.0000  0.0000  0.0000  0.0000  0.0000  0.0000  0.0000 </r>
       </set>
       <set comment="band 9">
        <r>  0.1054  0.0000  0.0000  0.0000  0.0000  0.0000  0.0000  0.0000  0.0000 </r>
        <r>  0.1054  0.0000  0.0000  0.0000  0.0000  0.0000  0.0000  0.0000  0.0000 </r>
       </set>
       <set comment="band 10">
        <r>  0.0000  0.0000  0.0000  0.0000  0.0000  0.0000  0.0000  0.0000  0.0000 </r>
        <r>  0.0000  0.0000  0.0000  0.0000  0.0000  0.0000  0.0000  0.0000  0.0000 </r>
       </set>
       <set comment="band 11">
        <r>  0.0000  0.0000  0.0000  0.0000  0.0000  0.0000  0.0000  0.0000  0.0000 </r>
        <r>  0.0000  0.0000  0.0000  0.0000  0.0000  0.0000  0.0000  0.0000  0.0000 </r>
       </set>
       <set comment="band 12">
        <r>  0.0000  0.0119  0.0274  0.0013  0.0000  0.0000  0.0000  0.0000  0.0000 </r>
        <r>  0.0000  0.0119  0.0274  0.0013  0.0000  0.0000  0.0000  0.0000  0.0000 </r>
       </set>
      </set>
      <set comment="kpoint 2">
       <set comment="band 1">
        <r>  0.2019  0.0089  0.0000  0.0178  0.0000  0.0000  0.0000  0.0000  0.0000 </r>
        <r>  0.2019  0.0089  0.0000  0.0178  0.0000  0.0000  0.0000  0.0000  0.0000 </r>
       </set>
       <set comment="band 2">
        <r>  0.1772  0.0243  0.0000  0.0486  0.0000  0.0000  0.0000  0.0000  0.0000 </r>
        <r>  0.1772  0.0243  0.0000  0.0486  0.0000  0.0000  0.0000  0.0000  0.0000 </r>
       </set>
       <set comment="band 3">
        <r>  0.0000  0.1303  0.0000  0.0651  0.0000  0.0000  0.0000  0.0000  0.0000 </r>
        <r>  0.0000  0.1303  0.0000  0.0651  0.0000  0.0000  0.0000  0.0000  0.0000 </r>
       </set>
       <set comment="band 4">
        <r>  0.0000  0.0000  0.1954  0.0000  0.0000  0.0000  0.0000  0.0000  0.0000 </r>
        <r>  0.0000  0.0000  0.1954  0.0000  0.0000  0.0000  0.0000  0.0000  0.0000 </r>
       </set>
       <set comment="band 5">
        <r>  0.0545  0.0149  0.0000  0.0299  0.0000  0.0000  0.0000  0.0000  0.0000 </r>
        <r>  0.0545  0.0149  0.0000  0.0299  0.0000  0.0000  0.0000  0.0000  0.0000 </r>
       </set>
       <set comment="band 6">
        <r>  0.0423  0.0082  0.0000  0.0163  0.0000  0.0000  0.0000  0.0000  0.0000 </r>
        <r>  0.0423  0.0082  0.0000  0.0163  0.0000  0.0000  0.0000  0.0000  0.0000 </r>
       </set>
       <set comment="band 7">
        <r>  0.0000  0.0007  0.1565  0.0004  0.0000  0.0000  0.0000  0.0000  0.0000 </r>
        <r>  0.0000  0.0007  0.1565  0.0004  0.0000  0.0000  0.0000  0.0000  0.0000 </r>
       </set>
       <set comment="band 8">
        <r>  0.0000  0.1043  0.0011  0.0522  0.0000  0.0000  0.0000  0.0000  0.0000 </r>
        <r>  0.0000  0.1043  0.0011  0.0522  0.0000  0.0000  0.0000  0.0000  0.0000 </r>
       </set>
       <set comment="band 9">
        <r>  0.0000  0.0000  0.0000  0.0000  0.0000  0.0000  0.0000  0.0000  0.0000 </r>
        <r>  0.0000  0.0000  0.0000  0.0000  0.0000  0.0000  0.0000  0.0000  0.0000 </r>
       </set>
       <set comment="band 10">
        <r>  0.1310  0.0528  0.0000  0.1055  0.0000  0.0000  0.0000  0.0000  0.0000 </r>
        <r>  0.1310  0.0528  0.0000  0.1055  0.0000  0.0000  0.0000  0.0000  0.0000 </r>
       </set>
       <set comment="band 11">
        <r>  0.0000  0.0002  0.0682  0.0001  0.0000  0.0000  0.0000  0.0000  0.0000 </r>
        <r>  0.0000  0.0002  0.0682  0.0001  0.0000  0.0000  0.0000  0.0000  0.0000 </r>
       </set>
       <set comment="band 12">
        <r>  0.0000  0.0454  0.0003  0.0228  0.0000  0.0000  0.0000  0.0000  0.0000 </r>
        <r>  0.0000  0.0455  0.0003  0.0227  0.0000  0.0000  0.0000  0.0000  0.0000 </r>
       </set>
      </set>
     </set>
    </set>
   </array>
  </projected>
 </calculation>
 <structure name="finalpos" >
  <crystal>
   <varray name="basis" >
    <v>       3.33357300       0.00000000       1.92463900 </v>
    <v>       1.11119100       3.14292400       1.92463900 </v>
    <v>       0.00000000       0.00000000       3.84927800 </v>
   </varray>
   <i name="volume">     40.32952680 </i>
   <varray name="rec_basis" >
    <v>       0.29997843      -0.10605835       0.00000000 </v>
    <v>       0.00000000       0.31817505       0.00000000 </v>
    <v>      -0.14998922      -0.10605835       0.25978898 </v>
   </varray>
  </crystal>
  <varray name="positions" >
   <v>       0.87500000       0.87500000       0.87500000 </v>
   <v>       0.12500000       0.12500000       0.12500000 </v>
  </varray>
 </structure>
</modeling>
