    2    2    1    1
  0.2016476E+02  0.3849278E-09  0.3849279E-09  0.3849278E-09  0.5000000E-15
  1.000000000000000E-004
  CAR 
 unknown system                          
      8     29     24
 
  0.0000000E+00  0.0000000E+00  0.0000000E+00  0.1953125E-02
      1         -6.220445   1.000000
      2          5.721439   1.000000
      3          5.721439   1.000000
      4          5.721442   1.000000
      5          8.234120   0.000000
      6          8.234127   0.000000
      7          8.234128   0.000000
      8          8.964057   0.000000
      9         13.401125   0.000000
     10         13.403925   0.000000
     11         13.403926   0.000000
     12         16.791610   0.000000
     13         16.791613   0.000000
     14         16.791615   0.000000
     15         20.759248   0.000000
     16         28.635090   0.000000
     17         28.635092   0.000000
     18         28.635096   0.000000
     19         29.795476   0.000000
     20         29.795496   0.000000
     21         31.285686   0.000000
     22         31.285705   0.000000
     23         31.285835   0.000000
     24         34.816400   0.000000
 
  0.1250000E+00  0.5459090E-17  0.0000000E+00  0.1562500E-01
      1         -6.016766   1.000000
      2          4.110574   1.000000
      3          5.430801   1.000000
      4          5.430803   1.000000
      5          8.145420   0.000000
      6          8.659344   0.000000
      7          8.659351   0.000000
      8         10.327304   0.000000
      9         12.901818   0.000000
     10         12.901820   0.000000
     11         14.204804   0.000000
     12         16.208151   0.000000
     13         17.975693   0.000000
     14         17.975697   0.000000
     15         22.020802   0.000000
     16         26.640091   0.000000
     17         26.640098   0.000000
     18         26.919991   0.000000
     19         29.430110   0.000000
     20         29.430123   0.000000
     21         31.824553   0.000000
     22         31.824569   0.000000
     23         32.708341   0.000000
     24         35.002123   0.000000
 
  0.2500000E+00  0.1091818E-16  0.0000000E+00  0.1562500E-01
      1         -5.422269   1.000000
      2          1.781857   1.000000
      3          4.960343   1.000000
      4          4.960345   1.000000
      5          7.657029   0.000000
      6          9.172240   0.000000
      7          9.172248   0.000000
      8         12.511019   0.000000
      9         12.847210   0.000000
     10         12.847213   0.000000
     11         14.479294   0.000000
     12         17.341359   0.000000
     13         20.229968   0.000000
     14         20.229970   0.000000
     15         23.426817   0.000000
     16         23.426825   0.000000
     17         23.514842   0.000000
     18         25.493696   0.000000
     19         29.602628   0.000000
     20         29.602641   0.000000
     21         32.186220   0.000000
     22         32.186240   0.000000
     23         33.398632   0.000000
     24         34.922376   0.000000
 
  0.3750000E+00  0.2499484E-17  0.0000000E+00  0.1562500E-01
      1         -4.528819   1.000000
      2         -0.236676   1.000000
      3          4.634906   1.000000
      4          4.634909   1.000000
      5          7.289426   0.000000
      6          9.109310   0.000000
      7          9.109319   0.000000
      8         13.391778   0.000000
      9         14.230834   0.000000
     10         14.230838   0.000000
     11         15.227228   0.000000
     12         19.383493   0.000000
     13         19.383498   0.000000
     14         19.592659   0.000000
     15         22.226899   0.000000
     16         24.085623   0.000000
     17         24.085625   0.000000
     18         28.371851   0.000000
     19         29.400551   0.000000
     20         29.430919   0.000000
     21         29.430929   0.000000
     22         32.358575   0.000000
     23         32.358749   0.000000
     24         33.876603   0.000000
 
  0.5000000E+00  0.2183636E-16  0.0000000E+00  0.7812500E-02
      1         -3.888477   1.000000
      2         -1.260923   1.000000
      3          4.523807   1.000000
      4          4.523810   1.000000
      5          7.160762   0.000000
      6          8.995536   0.000000
      7          8.995544   0.000000
      8         13.223421   0.000000
      9         16.211605   0.000000
     10         16.211610   0.000000
     11         16.882055   0.000000
     12         16.955673   0.000000
     13         16.955678   0.000000
     14         18.557595   0.000000
     15         24.908078   0.000000
     16         25.492915   0.000000
     17         27.162290   0.000000
     18         27.162291   0.000000
     19         27.391249   0.000000
     20         27.391254   0.000000
     21         31.111450   0.000000
     22         31.981831   0.000000
     23         31.981899   0.000000
     24         32.999072   0.000000
 
  0.1250000E+00  0.1250000E+00  0.0000000E+00  0.1171875E-01
      1         -5.948150   1.000000
      2          4.377866   1.000000
      3          4.909226   1.000000
      4          4.909227   1.000000
      5          7.661722   0.000000
      6          9.376925   0.000000
      7          9.376929   0.000000
      8         10.009542   0.000000
      9         12.145131   0.000000
     10         13.705170   0.000000
     11         14.505565   0.000000
     12         17.267446   0.000000
     13         17.267449   0.000000
     14         17.742952   0.000000
     15         22.628342   0.000000
     16         26.145933   0.000000
     17         26.145935   0.000000
     18         27.434206   0.000000
     19         28.234346   0.000000
     20         28.990356   0.000000
     21         32.058123   0.000000
     22         32.412430   0.000000
     23         32.412455   0.000000
     24         36.771786   0.000000
 
  0.2500000E+00  0.1250000E+00  0.0000000E+00  0.4687500E-01
      1         -5.480427   1.000000
      2          2.487707   1.000000
      3          4.397598   1.000000
      4          4.467946   1.000000
      5          7.793235   0.000000
      6          9.358591   0.000000
      7         10.136713   0.000000
      8         10.374730   0.000000
      9         13.125061   0.000000
     10         13.855456   0.000000
     11         15.515432   0.000000
     12         17.100141   0.000000
     13         18.708871   0.000000
     14         19.962193   0.000000
     15         23.168038   0.000000
     16         23.639792   0.000000
     17         24.724102   0.000000
     18         27.113122   0.000000
     19         27.152845   0.000000
     20         28.577315   0.000000
     21         31.804509   0.000000
     22         32.804977   0.000000
     23         33.795754   0.000000
     24         35.320347   0.000000
 
  0.3750000E+00  0.1250000E+00  0.0000000E+00  0.4687500E-01
      1         -4.666377   1.000000
      2          0.428162   1.000000
      3          3.873471   1.000000
      4          4.131198   1.000000
      5          7.882435   0.000000
      6          9.289556   0.000000
      7         10.125490   0.000000
      8         11.088395   0.000000
      9         14.899378   0.000000
     10         14.975709   0.000000
     11         15.510368   0.000000
     12         18.972669   0.000000
     13         19.031015   0.000000
     14         20.782189   0.000000
     15         22.216964   0.000000
     16         23.208244   0.000000
     17         24.150062   0.000000
     18         27.466044   0.000000
     19         28.094134   0.000000
     20         29.074230   0.000000
     21         30.278183   0.000000
     22         31.109416   0.000000
     23         33.070205   0.000000
     24         34.566385   0.000000
 
  0.5000000E+00  0.1250000E+00  0.0000000E+00  0.4687500E-01
      1         -3.803125   1.000000
      2         -1.036620   1.000000
      3          3.427173   1.000000
      4          4.157563   1.000000
      5          7.826156   0.000000
      6          9.154772   0.000000
      7          9.757359   0.000000
      8         12.976139   0.000000
      9         14.541052   0.000000
     10         16.134132   0.000000
     11         17.104520   0.000000
     12         17.280269   0.000000
     13         18.101802   0.000000
     14         20.618182   0.000000
     15         23.849814   0.000000
     16         25.202358   0.000000
     17         25.819431   0.000000
     18         26.638579   0.000000
     19         27.512941   0.000000
     20         27.855681   0.000000
     21         30.242131   0.000000
     22         31.431205   0.000000
     23         31.914067   0.000000
     24         33.104721   0.000000
 
 -0.3750000E+00  0.1250000E+00  0.0000000E+00  0.4687500E-01
      1         -4.048655   1.000000
      2         -0.665094   1.000000
      3          3.244493   1.000000
      4          4.455612   1.000000
      5          7.994695   0.000000
      6          9.260996   0.000000
      7          9.525133   0.000000
      8         13.492452   0.000000
      9         13.743040   0.000000
     10         14.779736   0.000000
     11         16.766464   0.000000
     12         18.048795   0.000000
     13         19.895539   0.000000
     14         20.246018   0.000000
     15         22.424992   0.000000
     16         24.174623   0.000000
     17         26.094377   0.000000
     18         27.691926   0.000000
     19         27.918494   0.000000
     20         28.125298   0.000000
     21         30.275922   0.000000
     22         30.543576   0.000000
     23         32.916886   0.000000
     24         33.045753   0.000000
 
 -0.2500000E+00  0.1250000E+00  0.0000000E+00  0.4687500E-01
      1         -4.972425   1.000000
      2          1.087270   1.000000
      3          3.393798   1.000000
      4          4.948372   1.000000
      5          8.358474   0.000000
      6          9.339593   0.000000
      7          9.500904   0.000000
      8         11.902333   0.000000
      9         12.120055   0.000000
     10         15.354217   0.000000
     11         15.706486   0.000000
     12         17.963634   0.000000
     13         19.574404   0.000000
     14         20.962541   0.000000
     15         22.003405   0.000000
     16         23.594811   0.000000
     17         24.394444   0.000000
     18         27.183817   0.000000
     19         27.549796   0.000000
     20         28.471950   0.000000
     21         31.593844   0.000000
     22         32.102414   0.000000
     23         32.876308   0.000000
     24         35.021951   0.000000
 
 -0.1250000E+00  0.1250000E+00  0.0000000E+00  0.2343750E-01
      1         -5.681239   1.000000
      2          3.028210   1.000000
      3          4.076864   1.000000
      4          5.430230   1.000000
      5          8.692982   0.000000
      6          8.792185   0.000000
      7          9.009186   0.000000
      8         11.166482   0.000000
      9         11.990999   0.000000
     10         13.677000   0.000000
     11         15.237570   0.000000
     12         16.719434   0.000000
     13         17.910550   0.000000
     14         20.055955   0.000000
     15         23.282483   0.000000
     16         23.571009   0.000000
     17         26.476228   0.000000
     18         26.717613   0.000000
     19         27.305910   0.000000
     20         28.634303   0.000000
     21         32.063287   0.000000
     22         32.298467   0.000000
     23         34.307004   0.000000
     24         35.935543   0.000000
 
  0.2500000E+00  0.2500000E+00  0.0000000E+00  0.1171875E-01
      1         -5.140909   1.000000
      2          2.200673   1.000000
      3          3.825735   1.000000
      4          3.825736   1.000000
      5          6.759994   0.000000
      6          8.745386   0.000000
      7         11.420596   0.000000
      8         11.420597   0.000000
      9         13.668233   0.000000
     10         14.607199   0.000000
     11         16.907363   0.000000
     12         18.578896   0.000000
     13         18.578900   0.000000
     14         19.231785   0.000000
     15         22.957491   0.000000
     16         22.957493   0.000000
     17         23.971895   0.000000
     18         25.921707   0.000000
     19         26.433783   0.000000
     20         30.400130   0.000000
     21         31.829522   0.000000
     22         32.867657   0.000000
     23         32.867914   0.000000
     24         35.016420   0.000000
 
  0.3750000E+00  0.2500000E+00  0.0000000E+00  0.4687500E-01
      1         -4.432138   1.000000
      2          0.781018   1.000000
      3          3.034333   1.000000
      4          3.508406   1.000000
      5          6.979087   0.000000
      6          8.511384   0.000000
      7         11.642717   0.000000
      8         11.925893   0.000000
      9         15.646080   0.000000
     10         15.782648   0.000000
     11         17.191270   0.000000
     12         18.838981   0.000000
     13         19.262333   0.000000
     14         20.404403   0.000000
     15         21.431920   0.000000
     16         22.619795   0.000000
     17         23.994943   0.000000
     18         25.449851   0.000000
     19         27.420920   0.000000
     20         29.670556   0.000000
     21         30.698590   0.000000
     22         31.861033   0.000000
     23         31.928587   0.000000
     24         32.900757   0.000000
 
  0.5000000E+00  0.2500000E+00  0.0000000E+00  0.4687500E-01
      1         -3.505898   1.000000
      2         -0.660766   1.000000
      3          2.164486   1.000000
      4          3.512623   1.000000
      5          7.140630   0.000000
      6         10.072261   0.000000
      7         11.380198   0.000000
      8         11.572938   0.000000
      9         15.790747   0.000000
     10         16.182108   0.000000
     11         17.804093   0.000000
     12         18.275416   0.000000
     13         18.560725   0.000000
     14         22.357844   0.000000
     15         23.320101   0.000000
     16         24.195267   0.000000
     17         24.908232   0.000000
     18         25.131388   0.000000
     19         25.462608   0.000000
     20         28.429552   0.000000
     21         29.282573   0.000000
     22         30.701911   0.000000
     23         31.069017   0.000000
     24         33.262262   0.000000
 
 -0.3750000E+00  0.2500000E+00  0.0000000E+00  0.4687500E-01
      1         -3.300250   1.000000
      2         -0.920402   1.000000
      3          1.703449   1.000000
      4          3.832181   1.000000
      5          7.466698   0.000000
      6         11.088589   0.000000
      7         11.133986   0.000000
      8         12.582158   0.000000
      9         13.620572   0.000000
     10         13.628990   0.000000
     11         18.095243   0.000000
     12         20.461256   0.000000
     13         20.665949   0.000000
     14         21.598486   0.000000
     15         22.021948   0.000000
     16         24.005585   0.000000
     17         25.006342   0.000000
     18         25.474442   0.000000
     19         27.363293   0.000000
     20         27.616270   0.000000
     21         30.213456   0.000000
     22         30.859806   0.000000
     23         31.350663   0.000000
     24         31.843688   0.000000
 
 -0.2500000E+00  0.2500000E+00  0.0000000E+00  0.2343750E-01
      1         -4.179674   1.000000
      2          0.241154   1.000000
      3          1.942259   1.000000
      4          4.392370   1.000000
      5          8.080764   0.000000
      6         10.449278   0.000000
      7         10.763554   0.000000
      8         11.749830   0.000000
      9         12.092699   0.000000
     10         15.236566   0.000000
     11         18.154773   0.000000
     12         18.816942   0.000000
     13         18.968994   0.000000
     14         22.184975   0.000000
     15         22.681411   0.000000
     16         23.005144   0.000000
     17         24.300114   0.000000
     18         26.827272   0.000000
     19         27.207548   0.000000
     20         29.438812   0.000000
     21         30.197722   0.000000
     22         30.831865   0.000000
     23         32.308440   0.000000
     24         32.583448   0.000000
 
  0.3750000E+00  0.3750000E+00  0.0000000E+00  0.1171875E-01
      1         -3.831254   1.000000
      2         -0.019271   1.000000
      3          3.110200   1.000000
      4          3.110202   1.000000
      5          6.234468   0.000000
      6          7.149015   0.000000
      7         13.686217   0.000000
      8         13.686218   0.000000
      9         16.104428   0.000000
     10         16.302800   0.000000
     11         18.644940   0.000000
     12         18.644942   0.000000
     13         19.139157   0.000000
     14         20.826139   0.000000
     15         21.463291   0.000000
     16         22.342829   0.000000
     17         22.342835   0.000000
     18         24.385250   0.000000
     19         28.923269   0.000000
     20         29.143997   0.000000
     21         29.597982   0.000000
     22         29.597992   0.000000
     23         30.898481   0.000000
     24         32.738338   0.000000
 
  0.5000000E+00  0.3750000E+00  0.0000000E+00  0.4687500E-01
      1         -2.935177   1.000000
      2         -1.100551   1.000000
      3          2.266529   1.000000
      4          3.034499   1.000000
      5          6.510010   0.000000
      6          7.590537   0.000000
      7         13.908669   0.000000
      8         13.980191   0.000000
      9         16.368764   0.000000
     10         16.449579   0.000000
     11         17.970503   0.000000
     12         18.445475   0.000000
     13         20.483398   0.000000
     14         20.582923   0.000000
     15         21.454704   0.000000
     16         24.207129   0.000000
     17         24.339806   0.000000
     18         24.908814   0.000000
     19         26.326815   0.000000
     20         27.816832   0.000000
     21         28.250301   0.000000
     22         29.032388   0.000000
     23         29.610070   0.000000
     24         31.387252   0.000000
 
 -0.3750000E+00  0.3750000E+00  0.0000000E+00  0.2343750E-01
      1         -2.493461   1.000000
      2         -1.497933   1.000000
      3          1.390358   1.000000
      4          3.292537   1.000000
      5          6.819692   0.000000
      6          9.755354   0.000000
      7         13.113547   0.000000
      8         13.637031   0.000000
      9         13.839254   0.000000
     10         14.159296   0.000000
     11         20.255956   0.000000
     12         20.542265   0.000000
     13         21.097174   0.000000
     14         21.256799   0.000000
     15         21.395502   0.000000
     16         22.646944   0.000000
     17         25.234531   0.000000
     18         25.431559   0.000000
     19         27.069340   0.000000
     20         27.098668   0.000000
     21         28.379500   0.000000
     22         28.543606   0.000000
     23         30.672448   0.000000
     24         31.415014   0.000000
 
  0.5000000E+00  0.5000000E+00  0.0000000E+00  0.5859375E-02
      1         -2.085285   1.000000
      2         -2.085279   1.000000
      3          2.865037   1.000000
      4          2.865040   1.000000
      5          6.322503   0.000000
      6          6.322506   0.000000
      7         15.723724   0.000000
      8         15.723727   0.000000
      9         16.631099   0.000000
     10         16.631100   0.000000
     11         18.185266   0.000000
     12         18.185268   0.000000
     13         18.591225   0.000000
     14         18.591229   0.000000
     15         24.360142   0.000000
     16         24.360149   0.000000
     17         25.210008   0.000000
     18         25.210014   0.000000
     19         25.769846   0.000000
     20         25.769854   0.000000
     21         27.005879   0.000000
     22         27.005886   0.000000
     23         31.039444   0.000000
     24         31.039451   0.000000
 
  0.3750000E+00  0.2500000E+00  0.1250000E+00  0.4687500E-01
      1         -4.893663   1.000000
      2          1.428918   1.000000
      3          2.988465   1.000000
      4          4.287630   1.000000
      5          8.091156   0.000000
      6          9.537311   0.000000
      7          9.824825   0.000000
      8         11.157964   0.000000
      9         13.424149   0.000000
     10         15.882920   0.000000
     11         16.603086   0.000000
     12         17.651501   0.000000
     13         19.445086   0.000000
     14         20.607675   0.000000
     15         21.448342   0.000000
     16         23.745657   0.000000
     17         24.923897   0.000000
     18         26.060471   0.000000
     19         27.287633   0.000000
     20         28.890704   0.000000
     21         30.825237   0.000000
     22         31.583176   0.000000
     23         33.383343   0.000000
     24         34.338674   0.000000
 
  0.5000000E+00  0.2500000E+00  0.1250000E+00  0.9375000E-01
      1         -4.005874   1.000000
      2         -0.122198   1.000000
      3          2.379376   1.000000
      4          3.782768   1.000000
      5          8.513111   0.000000
      6          9.192043   0.000000
      7         10.644974   0.000000
      8         11.585267   0.000000
      9         14.648825   0.000000
     10         15.325056   0.000000
     11         17.543372   0.000000
     12         18.548798   0.000000
     13         19.795553   0.000000
     14         20.686335   0.000000
     15         22.797032   0.000000
     16         23.815599   0.000000
     17         24.600398   0.000000
     18         26.512115   0.000000
     19         27.375024   0.000000
     20         28.338429   0.000000
     21         29.814071   0.000000
     22         31.173835   0.000000
     23         31.490920   0.000000
     24         32.761129   0.000000
 
 -0.3750000E+00  0.2500000E+00  0.1250000E+00  0.4687500E-01
      1         -3.351599   1.000000
      2         -1.069634   1.000000
      3          2.251225   1.000000
      4          3.551997   1.000000
      5          8.705876   0.000000
      6          8.761251   0.000000
      7         11.559445   0.000000
      8         12.738890   0.000000
      9         13.015500   0.000000
     10         16.180864   0.000000
     11         17.294123   0.000000
     12         17.952388   0.000000
     13         21.111883   0.000000
     14         21.165820   0.000000
     15         23.663966   0.000000
     16         23.992744   0.000000
     17         25.029971   0.000000
     18         26.353150   0.000000
     19         26.531609   0.000000
     20         27.564291   0.000000
     21         30.478131   0.000000
     22         30.898075   0.000000
     23         30.981909   0.000000
     24         31.799926   0.000000
 
  0.5000000E+00  0.3750000E+00  0.1250000E+00  0.4687500E-01
      1         -3.632185   1.000000
      2         -0.236880   1.000000
      3          2.339040   1.000000
      4          2.947514   1.000000
      5          7.580311   0.000000
      6          8.264517   0.000000
      7         11.394865   0.000000
      8         13.634513   0.000000
      9         15.810823   0.000000
     10         15.833209   0.000000
     11         18.491961   0.000000
     12         18.931030   0.000000
     13         19.744920   0.000000
     14         20.167755   0.000000
     15         22.213983   0.000000
     16         22.656080   0.000000
     17         25.071031   0.000000
     18         25.528705   0.000000
     19         27.372974   0.000000
     20         27.392160   0.000000
     21         28.968531   0.000000
     22         29.805604   0.000000
     23         31.765676   0.000000
     24         33.033949   0.000000
 
 -0.3750000E+00  0.3750000E+00  0.1250000E+00  0.9375000E-01
      1         -2.756656   1.000000
      2         -1.203205   1.000000
      3          1.634047   1.000000
      4          2.744383   1.000000
      5          8.015810   0.000000
      6          9.906285   0.000000
      7         10.914366   0.000000
      8         13.064273   0.000000
      9         14.042176   0.000000
     10         16.712930   0.000000
     11         17.837730   0.000000
     12         19.829135   0.000000
     13         20.967107   0.000000
     14         21.593141   0.000000
     15         23.048120   0.000000
     16         23.865217   0.000000
     17         24.313326   0.000000
     18         24.997502   0.000000
     19         26.570733   0.000000
     20         27.313561   0.000000
     21         28.287305   0.000000
     22         29.666913   0.000000
     23         30.501929   0.000000
     24         33.034210   0.000000
 
 -0.2500000E+00  0.3750000E+00  0.1250000E+00  0.4687500E-01
      1         -3.106703   1.000000
      2         -0.841256   1.000000
      3          1.465494   1.000000
      4          3.122357   1.000000
      5          8.498017   0.000000
      6         10.180603   0.000000
      7         10.840734   0.000000
      8         12.654011   0.000000
      9         13.510003   0.000000
     10         14.876154   0.000000
     11         19.676868   0.000000
     12         19.831610   0.000000
     13         20.125787   0.000000
     14         21.907905   0.000000
     15         22.132732   0.000000
     16         23.960340   0.000000
     17         24.665003   0.000000
     18         25.548506   0.000000
     19         26.686948   0.000000
     20         27.591223   0.000000
     21         28.847010   0.000000
     22         30.051055   0.000000
     23         31.390101   0.000000
     24         32.887600   0.000000
 
 -0.3750000E+00  0.5000000E+00  0.1250000E+00  0.2343750E-01
      1         -2.005959   1.000000
      2         -2.005953   1.000000
      3          2.285717   1.000000
      4          2.285718   1.000000
      5          7.595728   0.000000
      6          7.595732   0.000000
      7         13.474730   0.000000
      8         13.474735   0.000000
      9         16.208357   0.000000
     10         16.208358   0.000000
     11         18.490059   0.000000
     12         18.490061   0.000000
     13         21.166388   0.000000
     14         21.166393   0.000000
     15         22.908254   0.000000
     16         22.908258   0.000000
     17         24.569587   0.000000
     18         24.569590   0.000000
     19         27.255059   0.000000
     20         27.255071   0.000000
     21         28.560516   0.000000
     22         28.560524   0.000000
     23         29.590445   0.000000
     24         29.590450   0.000000
 
 -0.2500000E+00  0.5000000E+00  0.2500000E+00  0.1171875E-01
      1         -1.918394   1.000000
      2         -1.918387   1.000000
      3          1.842250   1.000000
      4          1.842252   1.000000
      5          9.892807   0.000000
      6          9.892809   0.000000
      7         10.640391   0.000000
      8         10.640396   0.000000
      9         16.211711   0.000000
     10         16.211712   0.000000
     11         18.648272   0.000000
     12         18.648276   0.000000
     13         21.952998   0.000000
     14         21.953000   0.000000
     15         24.073932   0.000000
     16         24.073933   0.000000
     17         24.504898   0.000000
     18         24.504906   0.000000
     19         25.421966   0.000000
     20         25.421966   0.000000
     21         29.179804   0.000000
     22         29.179810   0.000000
     23         33.024339   0.000000
     24         33.063419   0.000000
