 vasp.6.4.2 20Jul23 (build Mar 15 2024 16:31:38) complex                        
  
 executed on             LinuxIFC date 2025.03.24  15:46:56
 running  120 mpi-ranks, on    3 nodes
 distrk:  each k-point on  120 cores,    1 groups
 distr:  one band on NCORE=  10 cores,   12 groups


--------------------------------------------------------------------------------------------------------


 INCAR:
   ALGO = Normal
   CSHIFT = 1e-05
   EDIFF = 1e-05
   ENAUG = 1360
   ENCUT = 680
   GGA = Pe
   HFSCREEN = 0.2
   ISMEAR = -5
   ISPIN = 1
   LAECHG = True
   LASPH = True
   LCHARG = True
   LDAU = False
   LELF = False
   LHFCALC = True
   LMAXMIX = 4
   LMIXTAU = True
   LOPTICS = True
   LORBIT = 11
   LREAL = False
   LVTOT = True
   LWAVE = True
   NBANDS = 44
   NCORE = 10
   NEDOS = 1689
   NELM = 200
   NELMIN = 5
   NSW = 0
   PREC = Accurate
   PRECFOCK = Fast
   SIGMA = 0.05

 POTCAR:    PAW_PBE Cu 22Jun2005                  
 POTCAR:    PAW_PBE O 08Apr2002                   
 WARNING: For LVTOT=.TRUE., VASP.5.x writes the TOTAL local potential to the
     file LOCPOT. If you want only the Hartree contributions, use LVHAR=.TRUE.
     instead. 

 POTCAR:    PAW_PBE Cu 22Jun2005                  
   VRHFIN =Cu: d10 p1                                                                               
   LEXCH  = PE                                                                                      
   EATOM  =  1390.9808 eV,  102.2342 Ry                                                             
                                                                                                    
   TITEL  = PAW_PBE Cu 22Jun2005                                                                    
   LULTRA =        F    use ultrasoft PP ?                                                          
   IUNSCR =        1    unscreen: 0-lin 1-nonlin 2-no                                               
   RPACOR =    2.000    partial core radius                                                         
   POMASS =   63.546; ZVAL   =   11.000    mass and valenz                                          
   RCORE  =    2.300    outmost cutoff radius                                                       
   RWIGS  =    2.200; RWIGS  =    1.164    wigner-seitz radius (au A)                               
   ENMAX  =  295.446; ENMIN  =  221.585 eV                                                          
   ICORE  =        3    local potential                                                             
   LCOR   =        T    correct aug charges                                                         
   LPAW   =        T    paw PP                                                                      
   EAUG   =  586.980                                                                                
   DEXC   =    0.000                                                                                
   RMAX   =    2.344    core radius for proj-oper                                                   
   RAUG   =    1.300    factor for augmentation sphere                                              
   RDEP   =    2.302    radius for radial grids                                                     
   RDEPT  =    1.771    core radius for aug-charge                                                  
                                                                                                    
   Atomic configuration                                                                             
    9 entries                                                                                       
     n  l   j            E        occ.                                                              
     1  0  0.50     -8850.2468   2.0000                                                             
     2  0  0.50     -1062.3498   2.0000                                                             
     2  1  1.50      -916.8226   6.0000                                                             
     3  0  0.50      -114.6929   2.0000                                                             
     3  1  1.50       -72.1325   6.0000                                                             
     3  2  2.50        -5.0394  10.0000                                                             
     4  0  0.50        -4.6097   1.0000                                                             
     4  1  0.50        -4.0817   0.0000                                                             
     4  3  2.50        -1.3606   0.0000                                                             
   Description                                                                                      
     l       E           TYP  RCUT    TYP  RCUT                                                     
     2     -5.0393973     23  2.200                                                                 
     2     10.8846608     23  2.200                                                                 
     0     -4.6097109     23  2.200                                                                 
     0      8.2520465     23  2.200                                                                 
     1     -2.7211652     23  2.200                                                                 
     1     21.7055443     23  2.200                                                                 
     3      2.7211652     23  2.300                                                                 
  local pseudopotential read in
  partial core-charges read in
  partial kinetic energy density read in
  atomic valenz-charges read in
  non local Contribution for L=           2  read in
    real space projection operators read in
  non local Contribution for L=           2  read in
    real space projection operators read in
  non local Contribution for L=           0  read in
    real space projection operators read in
  non local Contribution for L=           0  read in
    real space projection operators read in
  non local Contribution for L=           1  read in
    real space projection operators read in
  non local Contribution for L=           1  read in
    real space projection operators read in
    PAW grid and wavefunctions read in
 
   number of l-projection  operators is LMAX  =           6
   number of lm-projection operators is LMMAX =          18
 
 POTCAR:    PAW_PBE O 08Apr2002                   
   VRHFIN =O: s2p4                                                                                  
   LEXCH  = PE                                                                                      
   EATOM  =   432.3788 eV,   31.7789 Ry                                                             
                                                                                                    
   TITEL  = PAW_PBE O 08Apr2002                                                                     
   LULTRA =        F    use ultrasoft PP ?                                                          
   IUNSCR =        1    unscreen: 0-lin 1-nonlin 2-no                                               
   RPACOR =    1.200    partial core radius                                                         
   POMASS =   16.000; ZVAL   =    6.000    mass and valenz                                          
   RCORE  =    1.520    outmost cutoff radius                                                       
   RWIGS  =    1.550; RWIGS  =    0.820    wigner-seitz radius (au A)                               
   ENMAX  =  400.000; ENMIN  =  300.000 eV                                                          
   ICORE  =        2    local potential                                                             
   LCOR   =        T    correct aug charges                                                         
   LPAW   =        T    paw PP                                                                      
   EAUG   =  605.392                                                                                
   DEXC   =    0.000                                                                                
   RMAX   =    1.553    core radius for proj-oper                                                   
   RAUG   =    1.300    factor for augmentation sphere                                              
   RDEP   =    1.550    radius for radial grids                                                     
   RDEPT  =    1.329    core radius for aug-charge                                                  
                                                                                                    
   Atomic configuration                                                                             
    4 entries                                                                                       
     n  l   j            E        occ.                                                              
     1  0  0.50      -514.6923   2.0000                                                             
     2  0  0.50       -23.9615   2.0000                                                             
     2  1  0.50        -9.0305   4.0000                                                             
     3  2  1.50        -9.5241   0.0000                                                             
   Description                                                                                      
     l       E           TYP  RCUT    TYP  RCUT                                                     
     0    -23.9615318     23  1.200                                                                 
     0     -9.5240782     23  1.200                                                                 
     1     -9.0304911     23  1.520                                                                 
     1      8.1634956     23  1.520                                                                 
     2     -9.5240782      7  1.500                                                                 
  local pseudopotential read in
  partial core-charges read in
  partial kinetic energy density read in
  kinetic energy density of atom read in
  atomic valenz-charges read in
  non local Contribution for L=           0  read in
    real space projection operators read in
  non local Contribution for L=           0  read in
    real space projection operators read in
  non local Contribution for L=           1  read in
    real space projection operators read in
  non local Contribution for L=           1  read in
    real space projection operators read in
    PAW grid and wavefunctions read in
 
   number of l-projection  operators is LMAX  =           4
   number of lm-projection operators is LMMAX =           8
 
  PAW_PBE Cu 22Jun2005                  :
 energy of atom  1       EATOM=-1390.9808
 kinetic energy error for atom=    0.0018 (will be added to EATOM!!)
  PAW_PBE O 08Apr2002                   :
 energy of atom  2       EATOM= -432.3788
 kinetic energy error for atom=    0.0105 (will be added to EATOM!!)
 
 
 POSCAR: Cu4 O2
  positions in direct lattice
  No initial velocities read in
 exchange correlation table for  LEXCH =        8
   RHO(1)=    0.500       N(1)  =     2000
   RHO(2)=  100.500       N(2)  =     4000
 


--------------------------------------------------------------------------------------------------------


 ion  position               nearest neighbor table
   1  0.500  0.500  0.000-   5 1.84   6 1.84
   2  0.000  0.500  0.500-   5 1.84   6 1.84
   3  0.500  0.000  0.500-   5 1.84   6 1.84
   4  0.000  0.000  0.000-   5 1.84   6 1.84
   5  0.750  0.750  0.750-   1 1.84   2 1.84   3 1.84   4 1.84
   6  0.250  0.250  0.250-   1 1.84   2 1.84   3 1.84   4 1.84
 
  LATTYP: Found a simple cubic cell.
 ALAT       =     4.2466993200
  
  Lattice vectors:
  
 A1 = (   4.2466993200,   0.0000000000,   0.0000000000)
 A2 = (  -0.0000000000,   4.2466993200,   0.0000000000)
 A3 = (   0.0000000000,   0.0000000000,   4.2466993200)


Analysis of symmetry for initial positions (statically):
=====================================================================
 Subroutine PRICEL returns:
 Original cell was already a primitive cell.
 

 Routine SETGRP: Setting up the symmetry group for a 
 simple cubic supercell.


 Subroutine GETGRP returns: Found 48 space group operations
 (whereof 12 operations were pure point group operations)
 out of a pool of 48 trial point group operations.


The static configuration has the point symmetry D_3d.
 The point group associated with its full space group is O_h .


Analysis of symmetry for dynamics (positions and initial velocities):
=====================================================================
 Subroutine PRICEL returns:
 Original cell was already a primitive cell.
 

 Routine SETGRP: Setting up the symmetry group for a 
 simple cubic supercell.


 Subroutine GETGRP returns: Found 48 space group operations
 (whereof 12 operations were pure point group operations)
 out of a pool of 48 trial point group operations.


The dynamic configuration has the point symmetry D_3d.
 The point group associated with its full space group is O_h .


 Subroutine INISYM returns: Found 48 space group operations
 (whereof 12 operations are pure point group operations),
 and found     1 'primitive' translations


----------------------------------------------------------------------------------------

                                     Primitive cell                                     

  volume of cell :      76.5869

  direct lattice vectors                    reciprocal lattice vectors
     4.246699320  0.000000000  0.000000000     0.235476996  0.000000000  0.000000000
    -0.000000000  4.246699320  0.000000000     0.000000000  0.235476996  0.000000000
     0.000000000  0.000000000  4.246699320    -0.000000000 -0.000000000  0.235476996

  length of vectors
     4.246699320  4.246699320  4.246699320     0.235476996  0.235476996  0.235476996

  position of ions in fractional coordinates (direct lattice)
     0.500000000  0.500000000  1.000000000
     0.000000000  0.500000000  0.500000000
     0.500000000  0.000000000  0.500000000
     0.000000000  0.000000000  0.000000000
     0.750000000  0.750000000  0.750000000
     0.250000000  0.250000000  0.250000000

  ion indices of the primitive-cell ions
   primitive index   ion index
                 1           1
                 2           2
                 3           3
                 4           4
                 5           5
                 6           6

----------------------------------------------------------------------------------------

 
 
 KPOINTS: pymatgen with grid density = 1244 / numb

Automatic generation of k-mesh.
 Grid dimensions read from file:
 generate k-points for:    5    5    5

 Generating k-lattice:

  Cartesian coordinates                     Fractional coordinates (reciprocal lattice)
     0.047095399  0.000000000  0.000000000     0.200000000 -0.000000000  0.000000000
     0.000000000  0.047095399  0.000000000     0.000000000  0.200000000  0.000000000
    -0.000000000 -0.000000000  0.047095399     0.000000000  0.000000000  0.200000000

  Length of vectors
     0.047095399  0.047095399  0.047095399

  Shift w.r.t. Gamma in fractional coordinates (k-lattice)
     0.000000000  0.000000000  0.000000000

 TETIRR: Found     57 inequivalent tetrahedra from      750
 
 Subroutine IBZKPT returns following result:
 ===========================================
 
 Found     10 irreducible k-points:
 
 Following reciprocal coordinates:
            Coordinates               Weight
  0.000000  0.000000  0.000000      1.000000
  0.200000  0.000000  0.000000      6.000000
  0.400000  0.000000  0.000000      6.000000
  0.200000  0.200000  0.000000     12.000000
  0.400000  0.200000  0.000000     24.000000
  0.400000  0.400000  0.000000     12.000000
  0.200000  0.200000  0.200000      8.000000
  0.400000  0.200000  0.200000     24.000000
  0.400000  0.400000  0.200000     24.000000
  0.400000  0.400000  0.400000      8.000000
 
 Following cartesian coordinates:
            Coordinates               Weight
  0.000000  0.000000  0.000000      1.000000
  0.047095  0.000000  0.000000      6.000000
  0.094191  0.000000  0.000000      6.000000
  0.047095  0.047095  0.000000     12.000000
  0.094191  0.047095  0.000000     24.000000
  0.094191  0.094191  0.000000     12.000000
  0.047095  0.047095  0.047095      8.000000
  0.094191  0.047095  0.047095     24.000000
  0.094191  0.094191  0.047095     24.000000
  0.094191  0.094191  0.094191      8.000000
 
 
 Subroutine IBZKPT_HF returns following result:
 ==============================================
 
 Found    125 k-points in 1st BZ
 the following    125 k-points will be used (e.g. in the exchange kernel)
 Following reciprocal coordinates:   # in IRBZ
  0.000000  0.000000  0.000000    0.00800000   1 t-inv F
  0.200000  0.000000  0.000000    0.00800000   2 t-inv F
  0.400000  0.000000  0.000000    0.00800000   3 t-inv F
  0.200000  0.200000  0.000000    0.00800000   4 t-inv F
  0.400000  0.200000  0.000000    0.00800000   5 t-inv F
  0.400000  0.400000  0.000000    0.00800000   6 t-inv F
  0.200000  0.200000  0.200000    0.00800000   7 t-inv F
  0.400000  0.200000  0.200000    0.00800000   8 t-inv F
  0.400000  0.400000  0.200000    0.00800000   9 t-inv F
  0.400000  0.400000  0.400000    0.00800000  10 t-inv F
 -0.200000 -0.000000  0.000000    0.00800000   2 t-inv F
  0.000000  0.200000  0.000000    0.00800000   2 t-inv F
  0.000000 -0.200000 -0.000000    0.00800000   2 t-inv F
  0.000000  0.000000  0.200000    0.00800000   2 t-inv F
 -0.000000  0.000000 -0.200000    0.00800000   2 t-inv F
 -0.400000 -0.000000  0.000000    0.00800000   3 t-inv F
  0.000000  0.400000  0.000000    0.00800000   3 t-inv F
  0.000000 -0.400000 -0.000000    0.00800000   3 t-inv F
  0.000000  0.000000  0.400000    0.00800000   3 t-inv F
 -0.000000  0.000000 -0.400000    0.00800000   3 t-inv F
 -0.200000 -0.200000  0.000000    0.00800000   4 t-inv F
  0.000000  0.200000  0.200000    0.00800000   4 t-inv F
  0.000000 -0.200000 -0.200000    0.00800000   4 t-inv F
  0.200000  0.000000  0.200000    0.00800000   4 t-inv F
 -0.200000  0.000000 -0.200000    0.00800000   4 t-inv F
 -0.200000  0.200000  0.000000    0.00800000   4 t-inv F
  0.200000 -0.200000  0.000000    0.00800000   4 t-inv F
 -0.200000  0.000000  0.200000    0.00800000   4 t-inv F
  0.200000  0.000000 -0.200000    0.00800000   4 t-inv F
  0.000000 -0.200000  0.200000    0.00800000   4 t-inv F
  0.000000  0.200000 -0.200000    0.00800000   4 t-inv F
 -0.400000 -0.200000  0.000000    0.00800000   5 t-inv F
  0.000000  0.400000  0.200000    0.00800000   5 t-inv F
  0.000000 -0.400000 -0.200000    0.00800000   5 t-inv F
  0.200000  0.000000  0.400000    0.00800000   5 t-inv F
 -0.200000  0.000000 -0.400000    0.00800000   5 t-inv F
 -0.400000  0.000000 -0.200000    0.00800000   5 t-inv F
  0.400000  0.000000  0.200000    0.00800000   5 t-inv F
 -0.200000 -0.400000  0.000000    0.00800000   5 t-inv F
  0.200000  0.400000  0.000000    0.00800000   5 t-inv F
  0.000000 -0.200000 -0.400000    0.00800000   5 t-inv F
  0.000000  0.200000  0.400000    0.00800000   5 t-inv F
 -0.200000  0.400000  0.000000    0.00800000   5 t-inv F
  0.200000 -0.400000  0.000000    0.00800000   5 t-inv F
 -0.400000  0.000000  0.200000    0.00800000   5 t-inv F
  0.400000  0.000000 -0.200000    0.00800000   5 t-inv F
  0.000000 -0.400000  0.200000    0.00800000   5 t-inv F
  0.000000  0.400000 -0.200000    0.00800000   5 t-inv F
 -0.200000  0.000000  0.400000    0.00800000   5 t-inv F
  0.200000  0.000000 -0.400000    0.00800000   5 t-inv F
  0.000000 -0.200000  0.400000    0.00800000   5 t-inv F
  0.000000  0.200000 -0.400000    0.00800000   5 t-inv F
  0.400000 -0.200000  0.000000    0.00800000   5 t-inv F
 -0.400000  0.200000  0.000000    0.00800000   5 t-inv F
 -0.400000 -0.400000  0.000000    0.00800000   6 t-inv F
  0.000000  0.400000  0.400000    0.00800000   6 t-inv F
  0.000000 -0.400000 -0.400000    0.00800000   6 t-inv F
  0.400000  0.000000  0.400000    0.00800000   6 t-inv F
 -0.400000  0.000000 -0.400000    0.00800000   6 t-inv F
 -0.400000  0.400000  0.000000    0.00800000   6 t-inv F
  0.400000 -0.400000  0.000000    0.00800000   6 t-inv F
 -0.400000  0.000000  0.400000    0.00800000   6 t-inv F
  0.400000  0.000000 -0.400000    0.00800000   6 t-inv F
  0.000000 -0.400000  0.400000    0.00800000   6 t-inv F
  0.000000  0.400000 -0.400000    0.00800000   6 t-inv F
 -0.200000 -0.200000 -0.200000    0.00800000   7 t-inv F
 -0.200000  0.200000  0.200000    0.00800000   7 t-inv F
  0.200000 -0.200000 -0.200000    0.00800000   7 t-inv F
 -0.200000 -0.200000  0.200000    0.00800000   7 t-inv F
  0.200000  0.200000 -0.200000    0.00800000   7 t-inv F
  0.200000 -0.200000  0.200000    0.00800000   7 t-inv F
 -0.200000  0.200000 -0.200000    0.00800000   7 t-inv F
 -0.400000 -0.200000 -0.200000    0.00800000   8 t-inv F
  0.200000  0.400000  0.200000    0.00800000   8 t-inv F
 -0.200000 -0.400000 -0.200000    0.00800000   8 t-inv F
  0.200000  0.200000  0.400000    0.00800000   8 t-inv F
 -0.200000 -0.200000 -0.400000    0.00800000   8 t-inv F
 -0.200000  0.400000  0.200000    0.00800000   8 t-inv F
  0.200000 -0.400000 -0.200000    0.00800000   8 t-inv F
 -0.400000  0.200000  0.200000    0.00800000   8 t-inv F
  0.400000 -0.200000 -0.200000    0.00800000   8 t-inv F
 -0.200000  0.200000  0.400000    0.00800000   8 t-inv F
  0.200000 -0.200000 -0.400000    0.00800000   8 t-inv F
 -0.400000 -0.200000  0.200000    0.00800000   8 t-inv F
  0.400000  0.200000 -0.200000    0.00800000   8 t-inv F
 -0.200000 -0.400000  0.200000    0.00800000   8 t-inv F
  0.200000  0.400000 -0.200000    0.00800000   8 t-inv F
 -0.200000 -0.200000  0.400000    0.00800000   8 t-inv F
  0.200000  0.200000 -0.400000    0.00800000   8 t-inv F
  0.200000 -0.400000  0.200000    0.00800000   8 t-inv F
 -0.200000  0.400000 -0.200000    0.00800000   8 t-inv F
  0.400000 -0.200000  0.200000    0.00800000   8 t-inv F
 -0.400000  0.200000 -0.200000    0.00800000   8 t-inv F
  0.200000 -0.200000  0.400000    0.00800000   8 t-inv F
 -0.200000  0.200000 -0.400000    0.00800000   8 t-inv F
 -0.400000 -0.400000 -0.200000    0.00800000   9 t-inv F
  0.200000  0.400000  0.400000    0.00800000   9 t-inv F
 -0.200000 -0.400000 -0.400000    0.00800000   9 t-inv F
  0.400000  0.200000  0.400000    0.00800000   9 t-inv F
 -0.400000 -0.200000 -0.400000    0.00800000   9 t-inv F
 -0.400000  0.400000  0.200000    0.00800000   9 t-inv F
  0.400000 -0.400000 -0.200000    0.00800000   9 t-inv F
 -0.400000  0.200000  0.400000    0.00800000   9 t-inv F
  0.400000 -0.200000 -0.400000    0.00800000   9 t-inv F
 -0.200000  0.400000  0.400000    0.00800000   9 t-inv F
  0.200000 -0.400000 -0.400000    0.00800000   9 t-inv F
 -0.400000 -0.400000  0.200000    0.00800000   9 t-inv F
  0.400000  0.400000 -0.200000    0.00800000   9 t-inv F
 -0.200000 -0.400000  0.400000    0.00800000   9 t-inv F
  0.200000  0.400000 -0.400000    0.00800000   9 t-inv F
 -0.400000 -0.200000  0.400000    0.00800000   9 t-inv F
  0.400000  0.200000 -0.400000    0.00800000   9 t-inv F
  0.400000 -0.400000  0.200000    0.00800000   9 t-inv F
 -0.400000  0.400000 -0.200000    0.00800000   9 t-inv F
  0.400000 -0.200000  0.400000    0.00800000   9 t-inv F
 -0.400000  0.200000 -0.400000    0.00800000   9 t-inv F
  0.200000 -0.400000  0.400000    0.00800000   9 t-inv F
 -0.200000  0.400000 -0.400000    0.00800000   9 t-inv F
 -0.400000 -0.400000 -0.400000    0.00800000  10 t-inv F
 -0.400000  0.400000  0.400000    0.00800000  10 t-inv F
  0.400000 -0.400000 -0.400000    0.00800000  10 t-inv F
 -0.400000 -0.400000  0.400000    0.00800000  10 t-inv F
  0.400000  0.400000 -0.400000    0.00800000  10 t-inv F
  0.400000 -0.400000  0.400000    0.00800000  10 t-inv F
 -0.400000  0.400000 -0.400000    0.00800000  10 t-inv F
 -----------------------------------------------------------------------------
|                                                                             |
|           W    W    AA    RRRRR   N    N  II  N    N   GGGG   !!!           |
|           W    W   A  A   R    R  NN   N  II  NN   N  G    G  !!!           |
|           W    W  A    A  R    R  N N  N  II  N N  N  G       !!!           |
|           W WW W  AAAAAA  RRRRR   N  N N  II  N  N N  G  GGG   !            |
|           WW  WW  A    A  R   R   N   NN  II  N   NN  G    G                |
|           W    W  A    A  R    R  N    N  II  N    N   GGGG   !!!           |
|                                                                             |
|     The number of bands has been changed from the values supplied in        |
|     the INCAR file. This is a result of running the parallel version.       |
|     The orbitals not found in the WAVECAR file will be initialized with     |
|     random numbers, which is usually adequate. For correlated               |
|     calculations, however, you should redo the groundstate calculation.     |
|     I found NBANDS = 44. Now, NBANDS = 48.                                  |
|                                                                             |
 -----------------------------------------------------------------------------



--------------------------------------------------------------------------------------------------------




 Dimension of arrays:
   k-points           NKPTS =     10   k-points in BZ     NKDIM =    125   number of bands    NBANDS=     48
   number of dos      NEDOS =   1689   number of ions     NIONS =      6
   non local maximal  LDIM  =      6   non local SUM 2l+1 LMDIM =     18
   total plane-waves  NPLWV =  46656
   max r-space proj   IRMAX =      1   max aug-charges    IRDMAX=  17843
   dimension x,y,z NGX =    36 NGY =   36 NGZ =   36
   dimension x,y,z NGXF=    72 NGYF=   72 NGZF=   72
   support grid    NGXF=    72 NGYF=   72 NGZF=   72
   ions per type =               4   2
   NGX,Y,Z   is equivalent  to a cutoff of  14.09, 14.09, 14.09 a.u.
   NGXF,Y,Z  is equivalent  to a cutoff of  28.19, 28.19, 28.19 a.u.

 SYSTEM =  unknown system                          
 POSCAR =  Cu4 O2                                  

 Startparameter for this run:
   NWRITE =      2    write-flag & timer
   PREC   = accura    normal or accurate (medium, high low for compatibility)
   ISTART =      1    job   : 0-new  1-cont  2-samecut
   ICHARG =      0    charge: 1-file 2-atom 10-const
   ISPIN  =      1    spin polarized calculation?
   LNONCOLLINEAR =      F non collinear calculations
   LSORBIT =      F    spin-orbit coupling
   INIWAV =      1    electr: 0-lowe 1-rand  2-diag
   LASPH  =      T    aspherical Exc in radial PAW
 Electronic Relaxation 1
   ENCUT  =  680.0 eV  49.98 Ry    7.07 a.u.   9.03  9.03  9.03*2*pi/ulx,y,z
   ENINI  =  680.0     initial cutoff
   ENAUG  = 1360.0 eV  augmentation charge cutoff
   NELM   =    200;   NELMIN=  5; NELMDL=  0     # of ELM steps 
   EDIFF  = 0.1E-04   stopping-criterion for ELM
   LREAL  =      F    real-space projection
   NLSPLINE    = F    spline interpolate recip. space projectors
   LCOMPAT=      F    compatible to vasp.4.4
   GGA_COMPAT  = T    GGA compatible to vasp.4.4-vasp.4.6
   LMAXPAW     = -100 max onsite density
   LMAXMIX     =    4 max onsite mixed and CHGCAR
   VOSKOWN=      0    Vosko Wilk Nusair interpolation
   ROPT   =    0.00000   0.00000
 Ionic relaxation
   EDIFFG = 0.1E-03   stopping-criterion for IOM
   NSW    =      0    number of steps for IOM
   NBLOCK =      1;   KBLOCK =      1    inner block; outer block 
   IBRION =     -1    ionic relax: 0-MD 1-quasi-New 2-CG
   NFREE  =      0    steps in history (QN), initial steepest desc. (CG)
   ISIF   =      0    stress and relaxation
   IWAVPR =     10    prediction:  0-non 1-charg 2-wave 3-comb
   ISYM   =      3    0-nonsym 1-usesym 2-fastsym
   LCORR  =      T    Harris-Foulkes like correction to forces

   POTIM  = 0.5000    time-step for ionic-motion
   TEIN   =    0.0    initial temperature
   TEBEG  =    0.0;   TEEND  =   0.0 temperature during run
   SMASS  =  -3.00    Nose mass-parameter (am)
   estimated Nose-frequenzy (Omega)   =  0.10E-29 period in steps = 0.13E+47 mass=  -0.412E-27a.u.
   SCALEE = 1.0000    scale energy and forces
   NPACO  =    256;   APACO  = 10.0  distance and # of slots for P.C.
   PSTRESS=    0.0 pullay stress

  Mass of Ions in am
   POMASS =  63.55 16.00
  Ionic Valenz
   ZVAL   =  11.00  6.00
  Atomic Wigner-Seitz radii
   RWIGS  =  -1.00 -1.00
  virtual crystal weights 
   VCA    =   1.00  1.00
   NELECT =      56.0000    total number of electrons
   NUPDOWN=      -1.0000    fix difference up-down

 DOS related values:
   EMIN   =  10.00;   EMAX   =-10.00  energy-range for DOS
   EFERMI =   0.00;   METHOD = LEGACY      
   ISMEAR =    -5;   SIGMA  =   0.05  broadening in eV -4-tet -1-fermi 0-gaus

 Electronic relaxation 2 (details)
   IALGO  =     38    algorithm
   LDIAG  =      T    sub-space diagonalisation (order eigenvalues)
   LSUBROT=      F    optimize rotation matrix (better conditioning)
   TURBO    =      0    0=normal 1=particle mesh
   IRESTART =      0    0=no restart 2=restart with 2 vectors
   NREBOOT  =      0    no. of reboots
   NMIN     =      0    reboot dimension
   EREF     =   0.00    reference energy to select bands
   IMIX   =      1    mixing-type and parameters
     AMIX     =   0.40;   BMIX     =  1.00
     AMIX_MAG =   1.60;   BMIX_MAG =  1.00
     AMIN     =   0.10
     WC   =   100.;   INIMIX=   1;  MIXPRE=   1;  MAXMIX= -45

 Intra band minimization:
   WEIMIN = 0.0000     energy-eigenvalue tresh-hold
   EBREAK =  0.52E-07  absolut break condition
   DEPER  =   0.30     relativ break condition  

   TIME   =   0.40     timestep for ELM

  volume/ion in A,a.u.               =      12.76        86.14
  Fermi-wavevector in a.u.,A,eV,Ry     =   1.474866  2.787093 29.595810  2.175231
  Thomas-Fermi vector in A             =   2.589585
 
 Write flags
   LWAVE        =      T    write WAVECAR
   LDOWNSAMPLE  =      F    k-point downsampling of WAVECAR
   LCHARG       =      T    write CHGCAR
   LVTOT        =      T    write LOCPOT, total local potential
   LVHAR        =      F    write LOCPOT, Hartree potential only
   LELF         =      F    write electronic localiz. function (ELF)
   LORBIT       =     11    0 simple, 1 ext, 2 COOP (PROOUT), +10 PAW based schemes


 Dipole corrections
   LMONO  =      F    monopole corrections only (constant potential shift)
   LDIPOL =      F    correct potential (dipole corrections)
   IDIPOL =      0    1-x, 2-y, 3-z, 4-all directions 
   EPSILON=  1.0000000 bulk dielectric constant

 Exchange correlation treatment:
   GGA     =    PE    GGA type
   LEXCH   =     8    internal setting for exchange type
   LIBXC   =     F    Libxc                    
   VOSKOWN =     0    Vosko Wilk Nusair interpolation
   EXXOEP  =     0    0=HF, 1=EXX-LHF (local Hartree Fock) 2=EXX OEP
   LHFCALC =     T    Hartree Fock is set to
   LSYMGRAD=     F    symmetrize gradient (conserves proper symmetry)
   PRECFOCK=fast      Normal, Fast or Accurate (Low or Medium for compatibility)
   LRHFCALC=     F    long range Hartree Fock
   LRSCOR  =     F    long range correlation only (use DFT for short range part)
   LTHOMAS =     F    Thomas Fermi screening in HF
   LMODELHF=     F    short range full HF, long range fraction AEXX
   FOCKCORR=     1    mode to apply convergence corrections
   LFOCKACE=     T    use Adeptively-Compressed-Exchange operator
   ENCUT4O =  -1.0   cutoff for four orbital integrals eV
   LMAXFOCK=     4    L truncation for augmentation on plane wave grid
   LMAXFOCKAE=  -1    L truncation for all-electron charge restoration on plane wave grid
   NMAXFOCKAE=   1    number of basis functions for all-electron charge restoration
   LFOCKAEDFT=     F  apply the AE augmentation even for DFT
   NKREDX  =     1    reduce k-point grid by
   NKREDY  =     1    reduce k-point grid by
   NKREDZ  =     1    reduce k-point grid by
   SHIFTRED=     F    shift reduced grid of Gamma
   HFKIDENT=     F    idential grid for each k-point
   ODDONLY =     F    use only odd q-grid points
   EVENONLY=     F    use only even q-grid points
   HFALPHA =   -1.0000 decay constant for conv. correction
   MCALPHA =    0.0000 extent of test-charge in conv. correction in multipole expansion
   AEXX    =    0.2500 exact exchange contribution
   HFSCREEN=    0.2000 screening length (either q_TF or 0.3 A-1)
   HFSCREENC=   0.2000 screening length for correlation (either q_TF or 0.3 A-1)
   HFRCUT  =    0.0000 spherical cutoff for potential kernel
   ALDAX   =    0.7500 LDA exchange part
   AGGAX   =    0.7500 GGA exchange part
   ALDAC   =    1.0000 LDA correlation
   AGGAC   =    1.0000 GGA correlation
   ENCUTFOCK=  -1.0 apply spherical cutoff to Coloumb kernel
   NBANDSGWLOW=     1    first orbital included in HF term
   NBLOCK_FOCK=    64    blocking factor in FOCK_ACC

 Linear response parameters
   LEPSILON=     F    determine dielectric tensor
   LRPA    =     F    only Hartree local field effects (RPA)
   LNABLA  =     F    use nabla operator in PAW spheres
   LVEL    =     F    velocity operator in full k-point grid
   CSHIFT  =0.0000    complex shift for real part using Kramers Kronig
   OMEGAMAX=  -1.0    maximum frequency
   DEG_THRESHOLD= 0.2000000E-02 threshold for treating states as degnerate
   RTIME   =   -0.100 relaxation time in fs
  (WPLASMAI=    0.000 imaginary part of plasma frequency in eV, 0.658/RTIME)
   DFIELD  = 0.0000000 0.0000000 0.0000000 field for delta impulse in time
 
  Optional k-point grid parameters
   LKPOINTS_OPT  =     F    use optional k-point grid
   KPOINTS_OPT_MODE=     1    mode for optional k-point grid
 
 Orbital magnetization related:
   ORBITALMAG=     F  switch on orbital magnetization
   LCHIMAG   =     F  perturbation theory with respect to B field
   DQ        =  0.001000  dq finite difference perturbation B field
   LLRAUG    =     F  two centre corrections for induced B field
   LBONE     =     F  B-component reconstruction in AE one-centre
   LVGVCALC  =     T  calculate vGv susceptibility
   LVGVAPPL  =     F  apply vGv susceptibility instead of pGv for G=0

 Random number generation:
   RANDOM_GENERATOR = DEFAULT
   PCG_SEED         = not used


--------------------------------------------------------------------------------------------------------


 Static calculation
 charge density and potential will be updated during run
 non-spin polarized calculation
 Variant of blocked Davidson
 Davidson routine will perform the subspace rotation
 perform sub-space diagonalisation
    after iterative eigenvector-optimisation
 Kerker-like  mixing scheme
 using additional bands           20
 reciprocal scheme for non local part
 use partial core corrections
 calculate Harris-corrections to forces 
   (improved forces if not selfconsistent)
 use gradient corrections 
 use of overlap-Matrix (Vanderbilt PP)
 Fermi weights with tetrahedron method with Bloechl corrections


--------------------------------------------------------------------------------------------------------


  energy-cutoff  :      680.00
  volume of cell :       76.59
      direct lattice vectors                 reciprocal lattice vectors
     4.246699320  0.000000000  0.000000000     0.235476996  0.000000000  0.000000000
    -0.000000000  4.246699320  0.000000000     0.000000000  0.235476996  0.000000000
     0.000000000  0.000000000  4.246699320    -0.000000000 -0.000000000  0.235476996

  length of vectors
     4.246699320  4.246699320  4.246699320     0.235476996  0.235476996  0.235476996


 
 old parameters found on file WAVECAR:
  energy-cutoff  :      680.00
  volume of cell :       76.59
      direct lattice vectors                 reciprocal lattice vectors
     4.246699320  0.000000000  0.000000000     0.235476996  0.000000000  0.000000000
    -0.000000000  4.246699320  0.000000000     0.000000000  0.235476996  0.000000000
     0.000000000  0.000000000  4.246699320    -0.000000000 -0.000000000  0.235476996

  length of vectors

 
 k-points in units of 2pi/SCALE and weight: pymatgen with grid density = 1244 / numb
   0.00000000  0.00000000  0.00000000       0.008
   0.04709540  0.00000000  0.00000000       0.048
   0.09419080  0.00000000  0.00000000       0.048
   0.04709540  0.04709540  0.00000000       0.096
   0.09419080  0.04709540  0.00000000       0.192
   0.09419080  0.09419080  0.00000000       0.096
   0.04709540  0.04709540  0.04709540       0.064
   0.09419080  0.04709540  0.04709540       0.192
   0.09419080  0.09419080  0.04709540       0.192
   0.09419080  0.09419080  0.09419080       0.064
 
 k-points in reciprocal lattice and weights: pymatgen with grid density = 1244 / numb
   0.00000000  0.00000000  0.00000000       0.008
   0.20000000  0.00000000  0.00000000       0.048
   0.40000000  0.00000000  0.00000000       0.048
   0.20000000  0.20000000  0.00000000       0.096
   0.40000000  0.20000000  0.00000000       0.192
   0.40000000  0.40000000  0.00000000       0.096
   0.20000000  0.20000000  0.20000000       0.064
   0.40000000  0.20000000  0.20000000       0.192
   0.40000000  0.40000000  0.20000000       0.192
   0.40000000  0.40000000  0.40000000       0.064
 
 position of ions in fractional coordinates (direct lattice) 
   0.50000000  0.50000000  0.00000000
   0.00000000  0.50000000  0.50000000
   0.50000000  0.00000000  0.50000000
   0.00000000  0.00000000  0.00000000
   0.75000000  0.75000000  0.75000000
   0.25000000  0.25000000  0.25000000
 
 position of ions in cartesian coordinates  (Angst):
   2.12334966  2.12334966  0.00000000
  -0.00000000  2.12334966  2.12334966
   2.12334966  0.00000000  2.12334966
   0.00000000  0.00000000  0.00000000
   3.18502449  3.18502449  3.18502449
   1.06167483  1.06167483  1.06167483
 


--------------------------------------------------------------------------------------------------------


 k-point   1 :   0.0000 0.0000 0.0000  plane waves:    3071
 k-point   2 :   0.2000 0.0000 0.0000  plane waves:    3070
 k-point   3 :   0.4000 0.0000 0.0000  plane waves:    3086
 k-point   4 :   0.2000 0.2000 0.0000  plane waves:    3067
 k-point   5 :   0.4000 0.2000 0.0000  plane waves:    3073
 k-point   6 :   0.4000 0.4000 0.0000  plane waves:    3098
 k-point   7 :   0.2000 0.2000 0.2000  plane waves:    3083
 k-point   8 :   0.4000 0.2000 0.2000  plane waves:    3083
 k-point   9 :   0.4000 0.4000 0.2000  plane waves:    3100
 k-point  10 :   0.4000 0.4000 0.4000  plane waves:    3082

 maximum and minimum number of plane-waves per node :       328      288

 maximum number of plane-waves:      3100
 maximum index in each direction: 
   IXMAX=    9   IYMAX=    9   IZMAX=    9
   IXMIN=   -9   IYMIN=   -9   IZMIN=   -9


 parallel 3D FFT for wavefunctions:
    minimum data exchange during FFTs selected (reduces bandwidth)
 parallel 3D FFT for charge:
    minimum data exchange during FFTs selected (reduces bandwidth)


 FFT grid for exact exchange (Hartree Fock) 
  NGX = 20; NGY = 20; NGZ = 20

 
 Radii for the augmentation spheres in the non-local exchange
 for species   1 augmentation radius   1.273 (default was   0.943)
       energy cutoff for augmentation   2720.0
 for species   2 augmentation radius   0.974 (default was   0.722)
       energy cutoff for augmentation   2720.0

 real space projection operators:
  total allocation   :        760.67 KBytes
  max/ min on nodes  :         88.11         57.36

 Maximum index for augmentation-charges in exchange          109
  SETUP_FOCK is finished

 total amount of memory used by VASP MPI-rank0    32452. kBytes
=======================================================================

   base      :      30000. kBytes
   nonl-proj :       1035. kBytes
   fftplans  :        397. kBytes
   grid      :        505. kBytes
   one-center:         15. kBytes
   HF        :         64. kBytes
   nonlr-proj:        198. kBytes
   wavefun   :        238. kBytes
 
     INWAV:  cpu time      0.2297: real time      0.2321
 charge density for first step will be calculated from the start-wavefunctions


--------------------------------------------------------------------------------------------------------


 Maximum index for augmentation-charges          793 (set IRDMAX)


--------------------------------------------------------------------------------------------------------


 initial charge from wavefunction
 First call to EWALD:  gamma=   0.417
 Maximum number of real-space cells 3x 3x 3
 Maximum number of reciprocal cells 3x 3x 3

    FEWALD:  cpu time      0.0021: real time      0.0021


--------------------------------------- Ionic step        1  -------------------------------------------




--------------------------------------- Iteration      1(   1)  ---------------------------------------


    POTLOK:  cpu time      0.0190: real time      0.0960
    SETDIJ:  cpu time      0.3282: real time      0.3294
     EDDAV:  cpu time     16.7330: real time     18.0906
 BZINTS: Fermi energy:    3.889852;   56.000000 electrons
         Band energy:-0.536646E+02;  BLOECHL correction:    0.000000
       DOS:  cpu time      0.0078: real time      0.0083
    CHARGE:  cpu time      0.0384: real time      0.0385
    MIXING:  cpu time      0.0010: real time      0.0010
    --------------------------------------------
      LOOP:  cpu time     17.1273: real time     18.5637

 eigenvalue-minimisations  :   816
 total energy-change (2. order) :-0.3171456E+02  (-0.8578207E-06)
 number of electron      55.9999990 magnetization 
 augmentation part       29.7524334 magnetization 

 Free energy of the ion-electron system (eV)
  ---------------------------------------------------
  alpha Z        PSCENC =       228.31989324
  Ewald energy   TEWEN  =     -4565.41384850
  -Hartree energ DENC   =     -1986.06832291
  -exchange      EXHF   =       154.37187946
  -V(xc)+E(xc)   XCENC  =       179.55368616
  PAW double counting   =      6487.11994866    -6888.93283580
  entropy T*S    EENTRO =         0.00000000
  eigenvalues    EBANDS =       -53.66462906
  atomic energy  EATOM  =      6412.99966844
  Solvation  Ediel_sol  =         0.00000000
  ---------------------------------------------------
  free energy    TOTEN  =       -31.71456032 eV

  energy without entropy =      -31.71456032  energy(sigma->0) =      -31.71456032
  exchange ACFDT corr.  =         0.00000000  see jH, gK, PRB 81, 115126


--------------------------------------------------------------------------------------------------------




--------------------------------------- Iteration      1(   2)  ---------------------------------------


    POTLOK:  cpu time      0.0133: real time      0.0272
    SETDIJ:  cpu time      0.3259: real time      0.3267
     EDDAV:  cpu time     17.2781: real time     17.3190
 BZINTS: Fermi energy:    3.889190;   56.000000 electrons
         Band energy:-0.536627E+02;  BLOECHL correction:    0.000000
       DOS:  cpu time      0.0042: real time      0.0043
    CHARGE:  cpu time      0.0443: real time      0.0444
    MIXING:  cpu time      0.0002: real time      0.0002
    --------------------------------------------
      LOOP:  cpu time     17.6661: real time     17.7219

 eigenvalue-minimisations  :   696
 total energy-change (2. order) :-0.2093066E-06  (-0.1522103E-06)
 number of electron      55.9999990 magnetization 
 augmentation part       29.7524069 magnetization 

 Free energy of the ion-electron system (eV)
  ---------------------------------------------------
  alpha Z        PSCENC =       228.31989324
  Ewald energy   TEWEN  =     -4565.41384850
  -Hartree energ DENC   =     -1986.07074156
  -exchange      EXHF   =       154.37189375
  -V(xc)+E(xc)   XCENC  =       179.55373921
  PAW double counting   =      6487.12971693    -6888.94214627
  entropy T*S    EENTRO =         0.00000000
  eigenvalues    EBANDS =       -53.66273576
  atomic energy  EATOM  =      6412.99966844
  Solvation  Ediel_sol  =         0.00000000
  ---------------------------------------------------
  free energy    TOTEN  =       -31.71456053 eV

  energy without entropy =      -31.71456053  energy(sigma->0) =      -31.71456053
  exchange ACFDT corr.  =         0.00000000  see jH, gK, PRB 81, 115126


--------------------------------------------------------------------------------------------------------




--------------------------------------- Iteration      1(   3)  ---------------------------------------


    POTLOK:  cpu time      0.0129: real time      0.0300
    SETDIJ:  cpu time      0.3265: real time      0.3273
     EDDAV:  cpu time     16.3037: real time     16.3423
 BZINTS: Fermi energy:    3.889286;   56.000000 electrons
         Band energy:-0.536624E+02;  BLOECHL correction:    0.000000
       DOS:  cpu time      0.0044: real time      0.0045
    CHARGE:  cpu time      0.0373: real time      0.0374
    MIXING:  cpu time      0.0001: real time      0.0001
    --------------------------------------------
      LOOP:  cpu time     16.6850: real time     16.7417

 eigenvalue-minimisations  :   660
 total energy-change (2. order) :-0.2441902E-07  (-0.3606802E-07)
 number of electron      55.9999990 magnetization 
 augmentation part       29.7523986 magnetization 

 Free energy of the ion-electron system (eV)
  ---------------------------------------------------
  alpha Z        PSCENC =       228.31989324
  Ewald energy   TEWEN  =     -4565.41384850
  -Hartree energ DENC   =     -1986.07179899
  -exchange      EXHF   =       154.37188849
  -V(xc)+E(xc)   XCENC  =       179.55374873
  PAW double counting   =      6487.13918796    -6888.95086751
  entropy T*S    EENTRO =         0.00000000
  eigenvalues    EBANDS =       -53.66243240
  atomic energy  EATOM  =      6412.99966844
  Solvation  Ediel_sol  =         0.00000000
  ---------------------------------------------------
  free energy    TOTEN  =       -31.71456055 eV

  energy without entropy =      -31.71456055  energy(sigma->0) =      -31.71456055
  exchange ACFDT corr.  =         0.00000000  see jH, gK, PRB 81, 115126


--------------------------------------------------------------------------------------------------------




--------------------------------------- Iteration      1(   4)  ---------------------------------------


    POTLOK:  cpu time      0.0107: real time      0.0258
    SETDIJ:  cpu time      0.3263: real time      0.3270
     EDDAV:  cpu time     17.2665: real time     17.3073
 BZINTS: Fermi energy:    3.888368;   56.000000 electrons
         Band energy:-0.536625E+02;  BLOECHL correction:    0.000000
       DOS:  cpu time      0.0041: real time      0.0043
    CHARGE:  cpu time      0.0373: real time      0.0375
    MIXING:  cpu time      0.0001: real time      0.0001
    --------------------------------------------
      LOOP:  cpu time     17.6450: real time     17.7020

 eigenvalue-minimisations  :   624
 total energy-change (2. order) :-0.4082722E-07  (-0.8613590E-08)
 number of electron      55.9999990 magnetization 
 augmentation part       29.7524224 magnetization 

 Free energy of the ion-electron system (eV)
  ---------------------------------------------------
  alpha Z        PSCENC =       228.31989324
  Ewald energy   TEWEN  =     -4565.41384850
  -Hartree energ DENC   =     -1986.07250944
  -exchange      EXHF   =       154.37194491
  -V(xc)+E(xc)   XCENC  =       179.55376298
  PAW double counting   =      6487.14463831    -6888.95558865
  entropy T*S    EENTRO =         0.00000000
  eigenvalues    EBANDS =       -53.66252188
  atomic energy  EATOM  =      6412.99966844
  Solvation  Ediel_sol  =         0.00000000
  ---------------------------------------------------
  free energy    TOTEN  =       -31.71456060 eV

  energy without entropy =      -31.71456060  energy(sigma->0) =      -31.71456060
  exchange ACFDT corr.  =         0.00000000  see jH, gK, PRB 81, 115126


--------------------------------------------------------------------------------------------------------




--------------------------------------- Iteration      1(   5)  ---------------------------------------


    POTLOK:  cpu time      0.0108: real time      0.0283
    SETDIJ:  cpu time      0.3249: real time      0.3256
     EDDAV:  cpu time     16.2961: real time     16.3346
 BZINTS: Fermi energy:    3.887334;   56.000000 electrons
         Band energy:-0.536615E+02;  BLOECHL correction:    0.000000
       DOS:  cpu time      0.0042: real time      0.0042
    --------------------------------------------
      LOOP:  cpu time     16.6361: real time     16.6928

 eigenvalue-minimisations  :   624
 total energy-change (2. order) : 0.6621121E-08  (-0.2545295E-08)
 number of electron      55.9999990 magnetization 
 augmentation part       29.7524224 magnetization 

 Free energy of the ion-electron system (eV)
  ---------------------------------------------------
  alpha Z        PSCENC =       228.31989324
  Ewald energy   TEWEN  =     -4565.41384850
  -Hartree energ DENC   =     -1986.07380324
  -exchange      EXHF   =       154.37201294
  -V(xc)+E(xc)   XCENC  =       179.55380468
  PAW double counting   =      6487.14874533    -6888.95957604
  entropy T*S    EENTRO =         0.00000000
  eigenvalues    EBANDS =       -53.66145743
  atomic energy  EATOM  =      6412.99966844
  Solvation  Ediel_sol  =         0.00000000
  ---------------------------------------------------
  free energy    TOTEN  =       -31.71456059 eV

  energy without entropy =      -31.71456059  energy(sigma->0) =      -31.71456059
  exchange ACFDT corr.  =         0.00000000  see jH, gK, PRB 81, 115126


--------------------------------------------------------------------------------------------------------




 average (electrostatic) potential at core
  the test charge radii are     0.9430  0.7215
  (the norm of the test charge is              1.0000)
       1 -58.2644       2 -58.2644       3 -58.2644       4 -58.2644       5 -65.6116
       6 -65.6116
 
 
 
 E-fermi :   3.8873     XC(G=0):  -9.0356     alpha+bet :-10.2360

 Fermi energy:         3.8873336053

 k-point     1 :       0.0000    0.0000    0.0000
  band No.  band energies     occupation 
      1     -17.9692      2.00000
      2     -17.1711      2.00000
      3      -3.9250      2.00000
      4      -3.9250      2.00000
      5      -3.9250      2.00000
      6      -1.2358      2.00000
      7      -1.1471      2.00000
      8      -1.1471      2.00000
      9      -1.1471      2.00000
     10      -0.0100      2.00000
     11      -0.0100      2.00000
     12       0.3095      2.00000
     13       0.3095      2.00000
     14       0.3095      2.00000
     15       1.0236      2.00000
     16       1.0236      2.00000
     17       1.2545      2.00000
     18       1.2545      2.00000
     19       1.2545      2.00000
     20       1.2625      2.00000
     21       1.2625      2.00000
     22       1.2625      2.00000
     23       1.5665      2.00000
     24       1.5665      2.00000
     25       1.5665      2.00000
     26       3.8647      2.00000
     27       3.8647      2.00000
     28       3.8647      2.00000
     29       5.9314      0.00000
     30       6.3457      0.00000
     31       6.3457      0.00000
     32      14.0350      0.00000
     33      14.0350      0.00000
     34      14.0350      0.00000
     35      15.0497      0.00000
     36      15.0497      0.00000
     37      15.0497      0.00000
     38      16.3249      0.00000
     39      18.3411      0.00000
     40      18.3411      0.00000
     41      18.5141      0.00000
     42      18.5141      0.00000
     43      18.5141      0.00000
     44      22.0680      0.00000
     45      22.0680      0.00000
     46      22.0680      0.00000
     47      22.6493      0.00000
     48      22.6493      0.00000

 k-point     2 :       0.2000    0.0000    0.0000
  band No.  band energies     occupation 
      1     -17.8923      2.00000
      2     -17.2462      2.00000
      3      -3.7897      2.00000
      4      -3.7595      2.00000
      5      -3.7595      2.00000
      6      -1.9008      2.00000
      7      -1.6211      2.00000
      8      -1.6211      2.00000
      9      -0.7651      2.00000
     10       0.0750      2.00000
     11       0.2826      2.00000
     12       0.3330      2.00000
     13       0.5673      2.00000
     14       0.5673      2.00000
     15       1.0217      2.00000
     16       1.0541      2.00000
     17       1.1529      2.00000
     18       1.1872      2.00000
     19       1.2382      2.00000
     20       1.2382      2.00000
     21       1.3956      2.00000
     22       1.4959      2.00000
     23       1.4959      2.00000
     24       1.5454      2.00000
     25       1.5454      2.00000
     26       2.7420      2.00000
     27       3.7762      2.00000
     28       3.7762      2.00000
     29       6.3058      0.00000
     30       6.9591      0.00000
     31       7.5162      0.00000
     32      13.1656      0.00000
     33      13.2767      0.00000
     34      13.7921      0.00000
     35      13.7921      0.00000
     36      14.2479      0.00000
     37      14.2479      0.00000
     38      17.8886      0.00000
     39      18.1124      0.00000
     40      18.7070      0.00000
     41      19.6566      0.00000
     42      19.6566      0.00000
     43      20.7022      0.00000
     44      21.2179      0.00000
     45      21.7048      0.00000
     46      22.3103      0.00000
     47      22.3103      0.00000
     48      23.0055      0.00000

 k-point     3 :       0.4000    0.0000    0.0000
  band No.  band energies     occupation 
      1     -17.6912      2.00000
      2     -17.4442      2.00000
      3      -3.3854      2.00000
      4      -3.3324      2.00000
      5      -3.3324      2.00000
      6      -2.7271      2.00000
      7      -2.3708      2.00000
      8      -2.3708      2.00000
      9      -0.1802      2.00000
     10       0.3026      2.00000
     11       0.3312      2.00000
     12       0.6366      2.00000
     13       0.7403      2.00000
     14       0.8626      2.00000
     15       0.8626      2.00000
     16       0.9869      2.00000
     17       1.0573      2.00000
     18       1.1353      2.00000
     19       1.1374      2.00000
     20       1.1374      2.00000
     21       1.2439      2.00000
     22       1.4434      2.00000
     23       1.4434      2.00000
     24       1.4435      2.00000
     25       2.0144      2.00000
     26       2.0144      2.00000
     27       3.5809      2.00000
     28       3.5809      2.00000
     29       7.2362      0.00000
     30       8.0838      0.00000
     31       8.5143      0.00000
     32      10.6558      0.00000
     33      13.2993      0.00000
     34      13.2993      0.00000
     35      13.5583      0.00000
     36      13.5583      0.00000
     37      13.9122      0.00000
     38      16.3385      0.00000
     39      19.1891      0.00000
     40      20.1921      0.00000
     41      20.2195      0.00000
     42      20.8178      0.00000
     43      20.9706      0.00000
     44      20.9706      0.00000
     45      21.8166      0.00000
     46      21.8166      0.00000
     47      24.6552      0.00000
     48      25.4952      0.00000

 k-point     4 :       0.2000    0.2000    0.0000
  band No.  band energies     occupation 
      1     -17.8275      2.00000
      2     -17.3042      2.00000
      3      -3.9070      2.00000
      4      -3.6282      2.00000
      5      -3.3941      2.00000
      6      -2.4526      2.00000
      7      -1.8968      2.00000
      8      -1.6232      2.00000
      9      -0.5809      2.00000
     10       0.1609      2.00000
     11       0.3769      2.00000
     12       0.4283      2.00000
     13       0.5587      2.00000
     14       0.7271      2.00000
     15       0.9830      2.00000
     16       1.0437      2.00000
     17       1.1207      2.00000
     18       1.1229      2.00000
     19       1.1940      2.00000
     20       1.3287      2.00000
     21       1.3820      2.00000
     22       1.4121      2.00000
     23       1.4917      2.00000
     24       1.5621      2.00000
     25       1.6804      2.00000
     26       2.5862      2.00000
     27       3.3246      2.00000
     28       3.6934      2.00000
     29       6.6204      0.00000
     30       7.5555      0.00000
     31       8.0560      0.00000
     32      11.7463      0.00000
     33      12.1486      0.00000
     34      13.5482      0.00000
     35      13.7365      0.00000
     36      14.4860      0.00000
     37      14.9790      0.00000
     38      18.4134      0.00000
     39      18.5032      0.00000
     40      18.6931      0.00000
     41      19.4862      0.00000
     42      20.3574      0.00000
     43      20.5458      0.00000
     44      21.1753      0.00000
     45      21.5336      0.00000
     46      22.0830      0.00000
     47      23.4548      0.00000
     48      23.5775      0.00000

 k-point     5 :       0.4000    0.2000    0.0000
  band No.  band energies     occupation 
      1     -17.6605      2.00000
      2     -17.4603      2.00000
      3      -3.7484      2.00000
      4      -3.4310      2.00000
      5      -2.9560      2.00000
      6      -2.8880      2.00000
      7      -2.4141      2.00000
      8      -2.1270      2.00000
      9      -0.0423      2.00000
     10       0.3576      2.00000
     11       0.4055      2.00000
     12       0.6312      2.00000
     13       0.6810      2.00000
     14       0.7710      2.00000
     15       0.8493      2.00000
     16       0.8833      2.00000
     17       0.9551      2.00000
     18       1.0957      2.00000
     19       1.1615      2.00000
     20       1.2317      2.00000
     21       1.2940      2.00000
     22       1.3027      2.00000
     23       1.5247      2.00000
     24       1.7834      2.00000
     25       1.9520      2.00000
     26       2.0403      2.00000
     27       3.3292      2.00000
     28       3.4899      2.00000
     29       7.3516      0.00000
     30       7.9734      0.00000
     31       8.8336      0.00000
     32      10.0619      0.00000
     33      12.4083      0.00000
     34      13.1120      0.00000
     35      13.1540      0.00000
     36      13.6567      0.00000
     37      15.9358      0.00000
     38      17.7413      0.00000
     39      18.6793      0.00000
     40      18.7628      0.00000
     41      19.4694      0.00000
     42      19.9268      0.00000
     43      20.9224      0.00000
     44      22.0841      0.00000
     45      22.7388      0.00000
     46      23.2321      0.00000
     47      23.7012      0.00000
     48      25.3911      0.00000

 k-point     6 :       0.4000    0.4000    0.0000
  band No.  band energies     occupation 
      1     -17.5870      2.00000
      2     -17.5102      2.00000
      3      -3.9001      2.00000
      4      -3.7537      2.00000
      5      -2.8873      2.00000
      6      -2.7160      2.00000
      7      -2.3219      2.00000
      8      -2.0942      2.00000
      9       0.2796      2.00000
     10       0.4237      2.00000
     11       0.5151      2.00000
     12       0.5480      2.00000
     13       0.7234      2.00000
     14       0.7381      2.00000
     15       0.8129      2.00000
     16       0.8444      2.00000
     17       0.8643      2.00000
     18       0.9316      2.00000
     19       1.2035      2.00000
     20       1.2330      2.00000
     21       1.2566      2.00000
     22       1.3024      2.00000
     23       1.7016      2.00000
     24       1.8747      2.00000
     25       2.0037      2.00000
     26       2.0751      2.00000
     27       3.1355      2.00000
     28       3.2871      2.00000
     29       7.3468      0.00000
     30       7.4865      0.00000
     31       9.2913      0.00000
     32       9.4963      0.00000
     33      12.6864      0.00000
     34      12.6983      0.00000
     35      13.0678      0.00000
     36      14.0318      0.00000
     37      17.0672      0.00000
     38      17.8382      0.00000
     39      18.2093      0.00000
     40      18.5758      0.00000
     41      18.7902      0.00000
     42      19.6837      0.00000
     43      21.7035      0.00000
     44      22.1673      0.00000
     45      24.0329      0.00000
     46      24.0331      0.00000
     47      25.0815      0.00000
     48      25.6130      0.00000

 k-point     7 :       0.2000    0.2000    0.2000
  band No.  band energies     occupation 
      1     -17.7792      2.00000
      2     -17.3424      2.00000
      3      -3.7720      2.00000
      4      -3.7720      2.00000
      5      -3.0883      2.00000
      6      -2.8102      2.00000
      7      -1.8726      2.00000
      8      -1.8726      2.00000
      9      -0.4102      2.00000
     10       0.2557      2.00000
     11       0.2557      2.00000
     12       0.6860      2.00000
     13       0.6871      2.00000
     14       0.6871      2.00000
     15       0.9660      2.00000
     16       0.9660      2.00000
     17       1.0647      2.00000
     18       1.0647      2.00000
     19       1.1634      2.00000
     20       1.3558      2.00000
     21       1.3558      2.00000
     22       1.3722      2.00000
     23       1.5243      2.00000
     24       1.5243      2.00000
     25       1.7571      2.00000
     26       2.8594      2.00000
     27       2.8594      2.00000
     28       3.5636      2.00000
     29       6.9154      0.00000
     30       8.1914      0.00000
     31       8.1914      0.00000
     32      10.9701      0.00000
     33      11.7084      0.00000
     34      11.7084      0.00000
     35      14.9291      0.00000
     36      14.9291      0.00000
     37      16.3981      0.00000
     38      17.3533      0.00000
     39      18.6225      0.00000
     40      19.0243      0.00000
     41      19.0243      0.00000
     42      19.6338      0.00000
     43      20.9638      0.00000
     44      20.9638      0.00000
     45      22.6845      0.00000
     46      22.9860      0.00000
     47      22.9860      0.00000
     48      24.7167      0.00000

 k-point     8 :       0.4000    0.2000    0.2000
  band No.  band energies     occupation 
      1     -17.6702      2.00000
      2     -17.4349      2.00000
      3      -3.7747      2.00000
      4      -3.4704      2.00000
      5      -3.3299      2.00000
      6      -2.5845      2.00000
      7      -2.3266      2.00000
      8      -2.1226      2.00000
      9      -0.0151      2.00000
     10       0.3471      2.00000
     11       0.3894      2.00000
     12       0.6788      2.00000
     13       0.6840      2.00000
     14       0.7835      2.00000
     15       0.8108      2.00000
     16       0.8411      2.00000
     17       0.9764      2.00000
     18       1.0379      2.00000
     19       1.1549      2.00000
     20       1.3088      2.00000
     21       1.3315      2.00000
     22       1.3328      2.00000
     23       1.4729      2.00000
     24       1.7413      2.00000
     25       1.9783      2.00000
     26       2.2610      2.00000
     27       3.1993      2.00000
     28       3.3679      2.00000
     29       7.5293      0.00000
     30       8.3549      0.00000
     31       8.5180      0.00000
     32      10.2053      0.00000
     33      10.6888      0.00000
     34      11.7018      0.00000
     35      15.0633      0.00000
     36      15.8035      0.00000
     37      16.1167      0.00000
     38      16.6988      0.00000
     39      17.9389      0.00000
     40      18.5568      0.00000
     41      20.3125      0.00000
     42      20.6687      0.00000
     43      20.6815      0.00000
     44      21.8534      0.00000
     45      22.8171      0.00000
     46      22.9057      0.00000
     47      24.4134      0.00000
     48      25.6580      0.00000

 k-point     9 :       0.4000    0.4000    0.2000
  band No.  band energies     occupation 
      1     -17.6816      2.00000
      2     -17.3979      2.00000
      3      -3.8370      2.00000
      4      -3.7437      2.00000
      5      -3.3403      2.00000
      6      -2.3776      2.00000
      7      -2.2594      2.00000
      8      -2.1159      2.00000
      9       0.1095      2.00000
     10       0.2928      2.00000
     11       0.3161      2.00000
     12       0.6319      2.00000
     13       0.6378      2.00000
     14       0.7600      2.00000
     15       0.7822      2.00000
     16       0.9178      2.00000
     17       1.0264      2.00000
     18       1.0432      2.00000
     19       1.1948      2.00000
     20       1.2235      2.00000
     21       1.3587      2.00000
     22       1.3844      2.00000
     23       1.5492      2.00000
     24       1.5794      2.00000
     25       2.2596      2.00000
     26       2.4508      2.00000
     27       3.0882      2.00000
     28       3.1928      2.00000
     29       7.2440      0.00000
     30       8.3947      0.00000
     31       8.8870      0.00000
     32       9.2610      0.00000
     33      10.9784      0.00000
     34      11.2310      0.00000
     35      15.2608      0.00000
     36      15.8223      0.00000
     37      16.6176      0.00000
     38      16.6346      0.00000
     39      18.4132      0.00000
     40      19.4863      0.00000
     41      19.9311      0.00000
     42      20.2118      0.00000
     43      21.6799      0.00000
     44      22.0590      0.00000
     45      22.6021      0.00000
     46      24.7388      0.00000
     47      25.4410      0.00000
     48      25.7786      0.00000

 k-point    10 :       0.4000    0.4000    0.4000
  band No.  band energies     occupation 
      1     -17.7507      2.00000
      2     -17.3001      2.00000
      3      -3.7331      2.00000
      4      -3.7331      2.00000
      5      -3.7305      2.00000
      6      -2.1433      2.00000
      7      -2.1416      2.00000
      8      -2.1416      2.00000
      9       0.0467      2.00000
     10       0.1299      2.00000
     11       0.1299      2.00000
     12       0.5383      2.00000
     13       0.5383      2.00000
     14       0.7612      2.00000
     15       0.7612      2.00000
     16       0.8190      2.00000
     17       1.2087      2.00000
     18       1.2087      2.00000
     19       1.2201      2.00000
     20       1.2903      2.00000
     21       1.3285      2.00000
     22       1.3285      2.00000
     23       1.4709      2.00000
     24       1.4709      2.00000
     25       2.7013      2.00000
     26       2.9906      2.00000
     27       2.9906      2.00000
     28       3.0196      2.00000
     29       7.7666      0.00000
     30       7.9800      0.00000
     31       7.9800      0.00000
     32      10.0270      0.00000
     33      10.6544      0.00000
     34      10.6544      0.00000
     35      13.7553      0.00000
     36      14.7166      0.00000
     37      18.9883      0.00000
     38      18.9883      0.00000
     39      19.8064      0.00000
     40      20.3723      0.00000
     41      20.3723      0.00000
     42      20.9724      0.00000
     43      20.9724      0.00000
     44      21.6457      0.00000
     45      23.4440      0.00000
     46      23.4440      0.00000
     47      25.5903      0.00000
     48      26.2008      0.00000


--------------------------------------------------------------------------------------------------------


 soft charge-density along one line, spin component           1
         0         1         2         3         4         5         6         7         8         9
 total charge-density along one line
 
 pseudopotential strength for first ion, spin component:           1
 -1.462   0.043   0.021   0.043   0.000  -6.087  -0.028  -0.022
  0.043  -1.462   0.010  -0.043  -0.018  -0.028  -6.087  -0.011
  0.021   0.010  -1.437   0.010  -0.000  -0.022  -0.011  -6.097
  0.043  -0.043   0.010  -1.462   0.018  -0.028   0.028  -0.011
  0.000  -0.018  -0.000   0.018  -1.437  -0.000   0.019   0.000
 -6.087  -0.028  -0.022  -0.028  -0.000  11.409   0.017   0.018
 -0.028  -6.087  -0.011   0.028   0.019   0.017  11.409   0.009
 -0.022  -0.011  -6.097  -0.011   0.000   0.018   0.009  11.411
 -0.028   0.028  -0.011  -6.087  -0.019   0.017  -0.017   0.009
 -0.000   0.019   0.000  -0.019  -6.097   0.000  -0.015  -0.000
  0.034  -0.034  -0.000  -0.034  -0.000  -0.015   0.015  -0.000
  0.065  -0.065  -0.000  -0.065  -0.000  -0.026   0.026  -0.000
  0.000   0.000   0.000   0.000   0.000  -0.000  -0.000  -0.000
  0.000  -0.000   0.000   0.000   0.000   0.000   0.000  -0.000
 -0.000   0.000  -0.000   0.000   0.000   0.000   0.000   0.000
  0.000   0.000   0.000   0.000   0.000  -0.000  -0.000  -0.000
  0.000  -0.000   0.000   0.000  -0.000   0.000   0.000  -0.000
 -0.000   0.000  -0.000   0.000   0.000   0.000   0.000   0.000
 total augmentation occupancy for first ion, spin component:           1
  1.912   0.061  -0.006   0.061   0.000   0.003  -0.045   0.008  -0.045   0.000  -0.105  -0.060   0.000   0.000  -0.000  -0.000
  0.061   1.912  -0.003  -0.061   0.005  -0.045   0.003   0.004   0.045  -0.007   0.105   0.060   0.000  -0.000  -0.000  -0.000
 -0.006  -0.003   1.980  -0.003   0.000   0.008   0.004  -0.049   0.004  -0.000   0.000  -0.000   0.000   0.000  -0.000  -0.000
  0.061  -0.061  -0.003   1.912  -0.005  -0.045   0.045   0.004   0.003   0.007   0.105   0.060   0.000   0.000   0.000  -0.000
  0.000   0.005   0.000  -0.005   1.980   0.000  -0.007   0.000   0.007  -0.049  -0.000   0.000   0.000  -0.000   0.000  -0.000
  0.003  -0.045   0.008  -0.045   0.000   0.039  -0.026  -0.009  -0.026   0.000   0.209  -0.043   0.000  -0.000   0.000  -0.000
 -0.045   0.003   0.004   0.045  -0.007  -0.026   0.039  -0.004   0.026   0.008  -0.209   0.043  -0.000  -0.000   0.000   0.000
  0.008   0.004  -0.049   0.004   0.000  -0.009  -0.004   0.017  -0.004  -0.000   0.000   0.000  -0.000  -0.000   0.000   0.000
 -0.045   0.045   0.004   0.003   0.007  -0.026   0.026  -0.004   0.039  -0.008  -0.209   0.043   0.000  -0.000   0.000  -0.000
  0.000  -0.007  -0.000   0.007  -0.049   0.000   0.008  -0.000  -0.008   0.017   0.000  -0.000  -0.000   0.000  -0.000   0.000
 -0.105   0.105   0.000   0.105  -0.000   0.209  -0.209   0.000  -0.209   0.000   2.320  -0.420   0.000  -0.000   0.000  -0.000
 -0.060   0.060  -0.000   0.060   0.000  -0.043   0.043   0.000   0.043  -0.000  -0.420   0.094  -0.000   0.000  -0.000   0.000
  0.000   0.000   0.000   0.000   0.000   0.000  -0.000  -0.000   0.000  -0.000   0.000  -0.000   0.251  -0.153   0.153  -0.037
  0.000  -0.000   0.000   0.000  -0.000  -0.000  -0.000  -0.000  -0.000   0.000  -0.000   0.000  -0.153   0.251  -0.153   0.025
 -0.000  -0.000  -0.000   0.000   0.000   0.000   0.000   0.000   0.000  -0.000   0.000  -0.000   0.153  -0.153   0.251  -0.025
 -0.000  -0.000  -0.000  -0.000  -0.000  -0.000   0.000   0.000  -0.000   0.000  -0.000   0.000  -0.037   0.025  -0.025   0.006
 -0.000   0.000  -0.000  -0.000   0.000  -0.000  -0.000   0.000   0.000  -0.000   0.000   0.000   0.025  -0.037   0.025  -0.005
  0.000   0.000   0.000  -0.000  -0.000  -0.000  -0.000   0.000  -0.000   0.000  -0.000   0.000  -0.025   0.025  -0.037   0.005


------------------------ aborting loop because EDIFF is reached ----------------------------------------





 total charge

# of ion       s       p       d       tot
------------------------------------------
    1        0.421   0.325   9.312  10.058
    2        0.421   0.325   9.312  10.058
    3        0.421   0.325   9.312  10.058
    4        0.421   0.325   9.312  10.058
    5        1.541   3.531   0.000   5.071
    6        1.541   3.531   0.000   5.071
--------------------------------------------------
tot          4.767   8.360  37.247  50.375
 
    CHARGE:  cpu time      0.0373: real time      0.0374
    FORLOC:  cpu time      0.0006: real time      0.0008
    FORHF :  cpu time     13.0061: real time     13.0371
    FORNL :  cpu time      0.0115: real time      0.0122
    FORCOR:  cpu time      0.3350: real time      0.3358
    FORHAR:  cpu time      0.0048: real time      0.0055
    MIXING:  cpu time      0.0027: real time      0.0027
    OFIELD:  cpu time      0.0005: real time      0.0006

 VOLUME and BASIS-vectors are now :
 -----------------------------------------------------------------------------
  energy-cutoff  :      680.00
  volume of cell :       76.59
      direct lattice vectors                 reciprocal lattice vectors
     4.246699320  0.000000000  0.000000000     0.235476996  0.000000000  0.000000000
    -0.000000000  4.246699320  0.000000000     0.000000000  0.235476996  0.000000000
     0.000000000  0.000000000  4.246699320    -0.000000000 -0.000000000  0.235476996

  length of vectors
     4.246699320  4.246699320  4.246699320     0.235476996  0.235476996  0.235476996


 FORCES acting on ions
    electron-ion (+dipol)            ewald-force                    non-local-force                 convergence-correction
 -----------------------------------------------------------------------------------------------
   0.779E-05 -.511E-05 0.472E-05   -.711E-13 -.426E-13 -.142E-13   -.833E-22 -.631E-22 -.329E-22   0.863E-07 0.169E-07 0.325E-07
   0.137E-07 0.667E-07 0.150E-06   -.114E-12 -.284E-13 0.000E+00   -.131E-21 0.375E-22 -.473E-22   -.100E-06 0.245E-07 0.121E-07
   0.100E-04 0.328E-04 -.493E-05   -.853E-13 -.568E-13 0.000E+00   0.572E-22 -.142E-21 -.322E-22   -.829E-07 -.590E-07 -.102E-06
   -.890E-07 0.140E-07 0.137E-07   -.711E-13 -.142E-13 0.000E+00   0.415E-22 0.419E-22 -.112E-21   0.350E-08 -.527E-07 0.288E-07
   -.382E-06 -.171E-06 -.368E-06   0.255E-12 0.128E-12 -.704E-13   -.764E-17 -.938E-17 -.769E-17   -.345E-06 -.581E-06 -.566E-06
   0.413E-06 0.113E-06 0.244E-06   0.857E-13 -.461E-15 0.708E-13   -.440E-17 -.169E-16 -.180E-16   0.395E-06 0.478E-06 0.598E-06
 -----------------------------------------------------------------------------------------------
   0.177E-04 0.277E-04 -.179E-06   -.487E-16 -.146E-13 -.138E-13   -.120E-16 -.263E-16 -.256E-16   -.438E-07 -.173E-06 0.400E-08
 
 
 POSITION                                       TOTAL-FORCE (eV/Angst)
 -----------------------------------------------------------------------------------
      2.12335      2.12335      0.00000        -0.000000      0.000000      0.000000
     -0.00000      2.12335      2.12335         0.000000     -0.000000      0.000000
      2.12335      0.00000      2.12335         0.000000      0.000000      0.000000
      0.00000      0.00000      0.00000         0.000000     -0.000000      0.000000
      3.18502      3.18502      3.18502         0.000000     -0.000000     -0.000000
      1.06167      1.06167      1.06167        -0.000000     -0.000000     -0.000000
 -----------------------------------------------------------------------------------
    total drift:                                0.000018      0.000028     -0.000000


--------------------------------------------------------------------------------------------------------



  FREE ENERGIE OF THE ION-ELECTRON SYSTEM (eV)
  ---------------------------------------------------
  free  energy   TOTEN  =       -31.71456059 eV

  energy  without entropy=      -31.71456059  energy(sigma->0) =      -31.71456059
 


--------------------------------------------------------------------------------------------------------


    POTLOK:  cpu time      0.3425: real time      0.3436


--------------------------------------------------------------------------------------------------------


 writing wavefunctions
     LOOP+:  cpu time     99.9058: real time    101.7438


--------------------------------------------------------------------------------------------------------



 plasma frequency squared (from intraband transitions) (eV^2)
  --------------------------------------------------------------------------------------
       0.000       0.000       0.000
       0.000       0.000       0.000
       0.000       0.000       0.000

 electrical conductivity sigma (Mega S m-1) (frequency dependency in vasprun.xml)
  --------------------------------------------------------------------------------------
       0.000       0.000       0.000
       0.000       0.000       0.000
       0.000       0.000       0.000

 plasma frequency squared (from interband transitions, int dw w eps(2)(w)) (eV^2)
  --------------------------------------------------------------------------------------
     307.689       0.000      -0.000       0.000       0.000       0.000
      -0.000       0.000     307.689       0.000       0.000       0.000
       0.000       0.000       0.000       0.000     307.689       0.000
  --------------------------------------------------------------------------------------
 sumrule: sum of plasma frequencies squared should yield (valence only):    1008.223

 Anomalous Hall contribution (eV) 2/pi Imag((f_n-f_m)<u_m| d/dk_a u_n> <u_m| d/dk_b u_n>^*) 
  --------------------------------------------------------------------------------------
       0.000       0.000       0.000
       0.000       0.000       0.000
       0.000       0.000       0.000

  frequency dependent IMAGINARY DIELECTRIC FUNCTION (independent particle, no local field effects) density-density
     E(ev)      X         Y         Z        XY        YZ        ZX
  --------------------------------------------------------------------------------------------------------------
    0.000000    0.000000    0.000000    0.000000    0.000000    0.000000    0.000000
    0.031400    0.000000    0.000000    0.000000    0.000000    0.000000    0.000000
    0.062801    0.000000    0.000000    0.000000    0.000000    0.000000    0.000000
    0.094201    0.000000    0.000000    0.000000    0.000000    0.000000    0.000000
    0.125602    0.000000    0.000000    0.000000    0.000000    0.000000    0.000000
    0.157002    0.000000    0.000000    0.000000    0.000000    0.000000    0.000000
    0.188403    0.000000    0.000000    0.000000    0.000000    0.000000    0.000000
    0.219803    0.000000    0.000000    0.000000    0.000000    0.000000    0.000000
    0.251204    0.000000    0.000000    0.000000    0.000000    0.000000    0.000000
    0.282604    0.000000    0.000000    0.000000    0.000000    0.000000    0.000000
    0.314005    0.000000    0.000000    0.000000    0.000000    0.000000    0.000000
    0.345405    0.000000    0.000000    0.000000    0.000000    0.000000    0.000000
    0.376806    0.000000    0.000000    0.000000    0.000000    0.000000    0.000000
    0.408206    0.000000    0.000000    0.000000    0.000000    0.000000    0.000000
    0.439607    0.000000    0.000000    0.000000    0.000000    0.000000    0.000000
    0.471007    0.000000    0.000000    0.000000    0.000000    0.000000    0.000000
    0.502408    0.000000    0.000000    0.000000    0.000000    0.000000    0.000000
    0.533808    0.000000    0.000000    0.000000    0.000000    0.000000    0.000000
    0.565209    0.000000    0.000000    0.000000    0.000000    0.000000    0.000000
    0.596609    0.000000    0.000000    0.000000    0.000000    0.000000    0.000000
    0.628010    0.000000    0.000000    0.000000    0.000000    0.000000    0.000000
    0.659410    0.000000    0.000000    0.000000    0.000000    0.000000    0.000000
    0.690811    0.000000    0.000000    0.000000    0.000000    0.000000    0.000000
    0.722211    0.000000    0.000000    0.000000    0.000000    0.000000    0.000000
    0.753612    0.000000    0.000000    0.000000    0.000000    0.000000    0.000000
    0.785012    0.000000    0.000000    0.000000    0.000000    0.000000    0.000000
    0.816413    0.000000    0.000000    0.000000    0.000000    0.000000    0.000000
[...]
   46.378521    0.838614    0.838614    0.838614    0.000000   -0.000000   -0.000000
   46.409921    0.838879    0.838879    0.838879    0.000000   -0.000000   -0.000000
   46.441322    0.839144    0.839144    0.839144    0.000000   -0.000000   -0.000000
   46.472722    0.839407    0.839407    0.839407    0.000000   -0.000000   -0.000000
   46.504123    0.839670    0.839670    0.839670    0.000000   -0.000000   -0.000000
   46.535523    0.839932    0.839932    0.839932    0.000000   -0.000000   -0.000000
   46.566924    0.840193    0.840193    0.840193    0.000000   -0.000000   -0.000000
   46.598324    0.840453    0.840453    0.840453    0.000000   -0.000000   -0.000000
   46.629725    0.840713    0.840713    0.840713    0.000000   -0.000000   -0.000000
   46.661125    0.840971    0.840971    0.840971    0.000000   -0.000000   -0.000000
   46.692526    0.841229    0.841229    0.841229    0.000000   -0.000000   -0.000000
   46.723926    0.841486    0.841486    0.841486    0.000000   -0.000000   -0.000000
   46.755327    0.841742    0.841742    0.841742    0.000000   -0.000000   -0.000000
   46.786727    0.841998    0.841998    0.841998    0.000000   -0.000000   -0.000000
   46.818127    0.842253    0.842253    0.842253    0.000000   -0.000000   -0.000000
   46.849528    0.842506    0.842506    0.842506    0.000000   -0.000000   -0.000000
   46.880928    0.842760    0.842760    0.842760    0.000000   -0.000000   -0.000000
   46.912329    0.843012    0.843012    0.843012    0.000000   -0.000000   -0.000000
   46.943729    0.843264    0.843264    0.843264    0.000000   -0.000000   -0.000000
   46.975130    0.843514    0.843514    0.843514    0.000000   -0.000000   -0.000000
   47.006530    0.843764    0.843764    0.843764    0.000000   -0.000000   -0.000000
   47.037931    0.844014    0.844014    0.844014    0.000000   -0.000000   -0.000000
   47.069331    0.844262    0.844262    0.844262    0.000000   -0.000000   -0.000000
   47.100732    0.844510    0.844510    0.844510    0.000000   -0.000000   -0.000000
   47.132132    0.844757    0.844757    0.844757    0.000000   -0.000000   -0.000000
   47.163533    0.845004    0.845004    0.845004    0.000000   -0.000000   -0.000000
   47.194933    0.845250    0.845250    0.845250    0.000000   -0.000000   -0.000000
   47.226334    0.845495    0.845495    0.845495    0.000000   -0.000000   -0.000000
   47.257734    0.845739    0.845739    0.845739    0.000000   -0.000000   -0.000000
   47.289135    0.845983    0.845983    0.845983    0.000000   -0.000000   -0.000000
   47.320535    0.846225    0.846225    0.846225    0.000000   -0.000000   -0.000000
   47.351936    0.846468    0.846468    0.846468    0.000000   -0.000000   -0.000000
   47.383336    0.846709    0.846709    0.846709    0.000000   -0.000000   -0.000000
   47.414737    0.846950    0.846950    0.846950    0.000000   -0.000000   -0.000000
   47.446137    0.847190    0.847190    0.847190    0.000000   -0.000000   -0.000000
   47.477538    0.847430    0.847430    0.847430    0.000000   -0.000000   -0.000000
   47.508938    0.847668    0.847668    0.847668    0.000000   -0.000000   -0.000000
   47.540339    0.847906    0.847906    0.847906    0.000000   -0.000000   -0.000000
   47.571739    0.848144    0.848144    0.848144    0.000000   -0.000000   -0.000000
   47.603140    0.848381    0.848381    0.848381    0.000000   -0.000000   -0.000000
   47.634540    0.848617    0.848617    0.848617    0.000000   -0.000000   -0.000000
   47.665941    0.848852    0.848852    0.848852    0.000000   -0.000000   -0.000000
   47.697341    0.849087    0.849087    0.849087    0.000000   -0.000000   -0.000000
   47.728742    0.849321    0.849321    0.849321    0.000000   -0.000000   -0.000000
   47.760142    0.849555    0.849555    0.849555    0.000000   -0.000000   -0.000000
   47.791543    0.849788    0.849788    0.849788    0.000000   -0.000000   -0.000000
   47.822943    0.850020    0.850020    0.850020    0.000000   -0.000000   -0.000000
   47.854344    0.850252    0.850252    0.850252    0.000000   -0.000000   -0.000000
   47.885744    0.850483    0.850483    0.850483    0.000000   -0.000000   -0.000000
   47.917145    0.850713    0.850713    0.850713    0.000000   -0.000000   -0.000000
   47.948545    0.850943    0.850943    0.850943    0.000000   -0.000000   -0.000000
   47.979946    0.851172    0.851172    0.851172    0.000000   -0.000000   -0.000000
   48.011346    0.851400    0.851400    0.851400    0.000000   -0.000000   -0.000000
   48.042747    0.851628    0.851628    0.851628    0.000000   -0.000000   -0.000000
   48.074147    0.851856    0.851856    0.851856    0.000000   -0.000000   -0.000000
   48.105547    0.852082    0.852082    0.852082    0.000000   -0.000000   -0.000000
   48.136948    0.852308    0.852308    0.852308    0.000000   -0.000000   -0.000000
   48.168348    0.852534    0.852534    0.852534    0.000000   -0.000000   -0.000000
   48.199749    0.852759    0.852759    0.852759    0.000000   -0.000000   -0.000000
   48.231149    0.852983    0.852983    0.852983    0.000000   -0.000000   -0.000000
   48.262550    0.853207    0.853207    0.853207    0.000000   -0.000000   -0.000000
   48.293950    0.853430    0.853430    0.853430    0.000000   -0.000000   -0.000000
   48.325351    0.853653    0.853653    0.853653    0.000000   -0.000000   -0.000000
   48.356751    0.853874    0.853874    0.853874    0.000000   -0.000000   -0.000000
   48.388152    0.854096    0.854096    0.854096    0.000000   -0.000000   -0.000000
   48.419552    0.854317    0.854317    0.854317    0.000000   -0.000000   -0.000000
   48.450953    0.854537    0.854537    0.854537    0.000000   -0.000000   -0.000000
   48.482353    0.854756    0.854756    0.854756    0.000000   -0.000000   -0.000000
   48.513754    0.854976    0.854976    0.854976    0.000000   -0.000000   -0.000000
   48.545154    0.855194    0.855194    0.855194    0.000000   -0.000000   -0.000000
   48.576555    0.855412    0.855412    0.855412    0.000000   -0.000000   -0.000000
   48.607955    0.855629    0.855629    0.855629    0.000000   -0.000000   -0.000000
   48.639356    0.855846    0.855846    0.855846    0.000000   -0.000000   -0.000000
   48.670756    0.856063    0.856063    0.856063    0.000000   -0.000000   -0.000000
   48.702157    0.856278    0.856278    0.856278    0.000000   -0.000000   -0.000000
   48.733557    0.856493    0.856493    0.856493    0.000000   -0.000000   -0.000000
   48.764958    0.856708    0.856708    0.856708    0.000000   -0.000000   -0.000000
   48.796358    0.856922    0.856922    0.856922    0.000000   -0.000000   -0.000000
   48.827759    0.857136    0.857136    0.857136    0.000000   -0.000000   -0.000000
   48.859159    0.857349    0.857349    0.857349    0.000000   -0.000000   -0.000000
   48.890560    0.857561    0.857561    0.857561    0.000000   -0.000000   -0.000000
   48.921960    0.857773    0.857773    0.857773    0.000000   -0.000000   -0.000000
   48.953361    0.857984    0.857984    0.857984    0.000000   -0.000000   -0.000000
   48.984761    0.858195    0.858195    0.858195    0.000000   -0.000000   -0.000000
   49.016162    0.858406    0.858406    0.858406    0.000000   -0.000000   -0.000000
   49.047562    0.858615    0.858615    0.858615    0.000000   -0.000000   -0.000000
   49.078963    0.858825    0.858825    0.858825    0.000000   -0.000000   -0.000000
   49.110363    0.859033    0.859033    0.859033    0.000000   -0.000000   -0.000000
   49.141764    0.859242    0.859242    0.859242    0.000000   -0.000000   -0.000000
   49.173164    0.859449    0.859449    0.859449    0.000000   -0.000000   -0.000000
   49.204565    0.859657    0.859657    0.859657    0.000000   -0.000000   -0.000000
   49.235965    0.859863    0.859863    0.859863    0.000000   -0.000000   -0.000000
   49.267366    0.860070    0.860070    0.860070    0.000000   -0.000000   -0.000000
   49.298766    0.860275    0.860275    0.860275    0.000000   -0.000000   -0.000000
   49.330167    0.860480    0.860480    0.860480    0.000000   -0.000000   -0.000000
   49.361567    0.860685    0.860685    0.860685    0.000000   -0.000000   -0.000000
   49.392967    0.860889    0.860889    0.860889    0.000000   -0.000000   -0.000000
   49.424368    0.861093    0.861093    0.861093    0.000000   -0.000000   -0.000000
   49.455768    0.861296    0.861296    0.861296    0.000000   -0.000000   -0.000000
   49.487169    0.861499    0.861499    0.861499    0.000000   -0.000000   -0.000000
   49.518569    0.861701    0.861701    0.861701    0.000000   -0.000000   -0.000000
   49.549970    0.861903    0.861903    0.861903    0.000000   -0.000000   -0.000000
   49.581370    0.862104    0.862104    0.862104    0.000000   -0.000000   -0.000000
   49.612771    0.862304    0.862304    0.862304    0.000000   -0.000000   -0.000000
   49.644171    0.862505    0.862505    0.862505    0.000000   -0.000000   -0.000000
   49.675572    0.862704    0.862704    0.862704    0.000000   -0.000000   -0.000000
   49.706972    0.862904    0.862904    0.862904    0.000000   -0.000000   -0.000000
   49.738373    0.863102    0.863102    0.863102    0.000000   -0.000000   -0.000000
   49.769773    0.863301    0.863301    0.863301    0.000000   -0.000000   -0.000000
   49.801174    0.863499    0.863499    0.863499    0.000000   -0.000000   -0.000000
   49.832574    0.863696    0.863696    0.863696    0.000000   -0.000000   -0.000000
   49.863975    0.863893    0.863893    0.863893    0.000000   -0.000000   -0.000000
   49.895375    0.864089    0.864089    0.864089    0.000000   -0.000000   -0.000000
   49.926776    0.864285    0.864285    0.864285    0.000000   -0.000000   -0.000000
   49.958176    0.864481    0.864481    0.864481    0.000000   -0.000000   -0.000000
   49.989577    0.864676    0.864676    0.864676    0.000000   -0.000000   -0.000000
   50.020977    0.864870    0.864870    0.864870    0.000000   -0.000000   -0.000000
   50.052378    0.865064    0.865064    0.865064    0.000000   -0.000000   -0.000000
   50.083778    0.865258    0.865258    0.865258    0.000000   -0.000000   -0.000000
   50.115179    0.865451    0.865451    0.865451    0.000000   -0.000000   -0.000000
   50.146579    0.865644    0.865644    0.865644    0.000000   -0.000000   -0.000000
   50.177980    0.865836    0.865836    0.865836    0.000000   -0.000000   -0.000000
   50.209380    0.866028    0.866028    0.866028    0.000000   -0.000000   -0.000000
   50.240781    0.866219    0.866219    0.866219    0.000000   -0.000000   -0.000000
   50.272181    0.866410    0.866410    0.866410    0.000000   -0.000000   -0.000000
   50.303582    0.866600    0.866600    0.866600    0.000000   -0.000000   -0.000000
   50.334982    0.866790    0.866790    0.866790    0.000000   -0.000000   -0.000000
   50.366383    0.866980    0.866980    0.866980    0.000000   -0.000000   -0.000000
   50.397783    0.867169    0.867169    0.867169    0.000000   -0.000000   -0.000000
   50.429184    0.867358    0.867358    0.867358    0.000000   -0.000000   -0.000000
   50.460584    0.867546    0.867546    0.867546    0.000000   -0.000000   -0.000000
   50.491985    0.867734    0.867734    0.867734    0.000000   -0.000000   -0.000000
   50.523385    0.867921    0.867921    0.867921    0.000000   -0.000000   -0.000000
   50.554786    0.868108    0.868108    0.868108    0.000000   -0.000000   -0.000000
   50.586186    0.868294    0.868294    0.868294    0.000000   -0.000000   -0.000000
   50.617587    0.868480    0.868480    0.868480    0.000000   -0.000000   -0.000000
   50.648987    0.868666    0.868666    0.868666    0.000000   -0.000000   -0.000000
   50.680387    0.868851    0.868851    0.868851    0.000000   -0.000000   -0.000000
   50.711788    0.869036    0.869036    0.869036    0.000000   -0.000000   -0.000000
   50.743188    0.869220    0.869220    0.869220    0.000000   -0.000000   -0.000000
   50.774589    0.869404    0.869404    0.869404    0.000000   -0.000000   -0.000000
   50.805989    0.869588    0.869588    0.869588    0.000000   -0.000000   -0.000000
   50.837390    0.869771    0.869771    0.869771    0.000000   -0.000000   -0.000000
   50.868790    0.869953    0.869953    0.869953    0.000000   -0.000000   -0.000000
   50.900191    0.870136    0.870136    0.870136    0.000000   -0.000000   -0.000000
   50.931591    0.870318    0.870318    0.870318    0.000000   -0.000000   -0.000000
   50.962992    0.870499    0.870499    0.870499    0.000000   -0.000000   -0.000000
   50.994392    0.870680    0.870680    0.870680    0.000000   -0.000000   -0.000000
   51.025793    0.870861    0.870861    0.870861    0.000000   -0.000000   -0.000000
   51.057193    0.871041    0.871041    0.871041    0.000000   -0.000000   -0.000000
   51.088594    0.871220    0.871220    0.871220    0.000000   -0.000000   -0.000000
   51.119994    0.871400    0.871400    0.871400    0.000000   -0.000000   -0.000000
   51.151395    0.871579    0.871579    0.871579    0.000000   -0.000000   -0.000000
   51.182795    0.871757    0.871757    0.871757    0.000000   -0.000000   -0.000000
   51.214196    0.871935    0.871935    0.871935    0.000000   -0.000000   -0.000000
   51.245596    0.872113    0.872113    0.872113    0.000000   -0.000000   -0.000000
   51.276997    0.872291    0.872291    0.872291    0.000000   -0.000000   -0.000000
   51.308397    0.872467    0.872467    0.872467    0.000000   -0.000000   -0.000000
   51.339798    0.872644    0.872644    0.872644    0.000000   -0.000000   -0.000000
   51.371198    0.872820    0.872820    0.872820    0.000000   -0.000000   -0.000000
   51.402599    0.872996    0.872996    0.872996    0.000000   -0.000000   -0.000000
   51.433999    0.873171    0.873171    0.873171    0.000000   -0.000000   -0.000000
   51.465400    0.873346    0.873346    0.873346    0.000000   -0.000000   -0.000000
   51.496800    0.873521    0.873521    0.873521    0.000000   -0.000000   -0.000000
   51.528201    0.873695    0.873695    0.873695    0.000000   -0.000000   -0.000000
   51.559601    0.873869    0.873869    0.873869    0.000000   -0.000000   -0.000000
   51.591002    0.874042    0.874042    0.874042    0.000000   -0.000000   -0.000000
   51.622402    0.874215    0.874215    0.874215    0.000000   -0.000000   -0.000000
   51.653803    0.874388    0.874388    0.874388    0.000000   -0.000000   -0.000000
   51.685203    0.874560    0.874560    0.874560    0.000000   -0.000000   -0.000000
   51.716604    0.874732    0.874732    0.874732    0.000000   -0.000000   -0.000000
   51.748004    0.874904    0.874904    0.874904    0.000000   -0.000000   -0.000000
   51.779405    0.875075    0.875075    0.875075    0.000000   -0.000000   -0.000000
   51.810805    0.875245    0.875245    0.875245    0.000000   -0.000000   -0.000000
   51.842206    0.875416    0.875416    0.875416    0.000000   -0.000000   -0.000000
   51.873606    0.875586    0.875586    0.875586    0.000000   -0.000000   -0.000000
   51.905007    0.875755    0.875755    0.875755    0.000000   -0.000000   -0.000000
   51.936407    0.875925    0.875925    0.875925    0.000000   -0.000000   -0.000000
   51.967807    0.876093    0.876093    0.876093    0.000000   -0.000000   -0.000000
   51.999208    0.876262    0.876262    0.876262    0.000000   -0.000000   -0.000000
   52.030608    0.876430    0.876430    0.876430    0.000000   -0.000000   -0.000000
   52.062009    0.876598    0.876598    0.876598    0.000000   -0.000000   -0.000000
   52.093409    0.876765    0.876765    0.876765    0.000000   -0.000000   -0.000000
   52.124810    0.876932    0.876932    0.876932    0.000000   -0.000000   -0.000000
   52.156210    0.877099    0.877099    0.877099    0.000000   -0.000000   -0.000000
   52.187611    0.877265    0.877265    0.877265    0.000000   -0.000000   -0.000000
   52.219011    0.877431    0.877431    0.877431    0.000000   -0.000000   -0.000000
   52.250412    0.877597    0.877597    0.877597    0.000000   -0.000000   -0.000000
   52.281812    0.877762    0.877762    0.877762    0.000000   -0.000000   -0.000000
   52.313213    0.877927    0.877927    0.877927    0.000000   -0.000000   -0.000000
   52.344613    0.878091    0.878091    0.878091    0.000000   -0.000000   -0.000000
   52.376014    0.878255    0.878255    0.878255    0.000000   -0.000000   -0.000000
   52.407414    0.878419    0.878419    0.878419    0.000000   -0.000000   -0.000000
   52.438815    0.878583    0.878583    0.878583    0.000000   -0.000000   -0.000000
   52.470215    0.878746    0.878746    0.878746    0.000000   -0.000000   -0.000000
   52.501616    0.878909    0.878909    0.878909    0.000000   -0.000000   -0.000000
   52.533016    0.879071    0.879071    0.879071    0.000000   -0.000000   -0.000000
   52.564417    0.879233    0.879233    0.879233    0.000000   -0.000000   -0.000000
   52.595817    0.879395    0.879395    0.879395    0.000000   -0.000000   -0.000000
   52.627218    0.879556    0.879556    0.879556    0.000000   -0.000000   -0.000000
   52.658618    0.879717    0.879717    0.879717    0.000000   -0.000000   -0.000000
   52.690019    0.879878    0.879878    0.879878    0.000000   -0.000000   -0.000000
   52.721419    0.880038    0.880038    0.880038    0.000000   -0.000000   -0.000000
   52.752820    0.880198    0.880198    0.880198    0.000000   -0.000000   -0.000000
   52.784220    0.880358    0.880358    0.880358    0.000000   -0.000000   -0.000000
   52.815621    0.880517    0.880517    0.880517    0.000000   -0.000000   -0.000000
   52.847021    0.880676    0.880676    0.880676    0.000000   -0.000000   -0.000000
   52.878422    0.880834    0.880834    0.880834    0.000000   -0.000000   -0.000000
   52.909822    0.880993    0.880993    0.880993    0.000000   -0.000000   -0.000000
   52.941223    0.881151    0.881151    0.881151    0.000000   -0.000000   -0.000000
   52.972623    0.881308    0.881308    0.881308    0.000000   -0.000000   -0.000000
   53.004024    0.881465    0.881465    0.881465    0.000000   -0.000000   -0.000000
 
 The outermost node in the dielectric function lies at epsilon=  23.2


--------------------------------------------------------------------------------------------------------


    OPTICS:  cpu time      2.9151: real time      2.9258
    4ORBIT:  cpu time      0.0000: real time      0.0000



 total charge

# of ion       s       p       d       tot
------------------------------------------
    1        0.421   0.325   9.312  10.058
    2        0.421   0.325   9.312  10.058
    3        0.421   0.325   9.312  10.058
    4        0.421   0.325   9.312  10.058
    5        1.541   3.531   0.000   5.071
    6        1.541   3.531   0.000   5.071
--------------------------------------------------
tot          4.767   8.360  37.247  50.375
 
 BZINTS: Fermi energy:    3.887334;   56.000000 electrons
         Band energy:-0.536615E+02;  BLOECHL correction:    0.000000

 total amount of memory used by VASP MPI-rank0    34534. kBytes
=======================================================================

   base      :      30000. kBytes
   nonl-proj :       1035. kBytes
   fftplans  :        397. kBytes
   grid      :        505. kBytes
   one-center:         15. kBytes
   HF        :         64. kBytes
   nonlr-proj:        480. kBytes
   wavefun   :        238. kBytes
   fock_wrk  :       1800. kBytes
 
  
  
 General timing and accounting informations for this job:
 ========================================================
  
                  Total CPU time used (sec):      212.456
                            User time (sec):      210.464
                          System time (sec):        1.992
                         Elapsed time (sec):      222.174
  
                   Maximum memory used (kb):      283804.
                   Average memory used (kb):          N/A
  
                          Minor page faults:        43077
                          Major page faults:            0
                 Voluntary context switches:        10506
