 vasp.6.4.2 20Jul23 (build Mar 15 2024 16:31:38) complex                        
  
 executed on             LinuxIFC date 2025.03.24  15:58:21
 running  120 mpi-ranks, on    3 nodes
 distrk:  each k-point on  120 cores,    1 groups
 distr:  one band on NCORE=  10 cores,   12 groups


--------------------------------------------------------------------------------------------------------


 INCAR:
   ALGO = Normal
   CSHIFT = 1e-05
   EDIFF = 1e-05
   ENAUG = 1360
   ENCUT = 680
   GGA = Pe
   HFSCREEN = 0.2
   ISMEAR = -5
   ISPIN = 1
   LAECHG = True
   LASPH = True
   LCHARG = True
   LDAU = False
   LELF = False
   LHFCALC = True
   LMAXMIX = 6
   LMIXTAU = True
   LOPTICS = True
   LORBIT = 11
   LREAL = False
   LVTOT = True
   LWAVE = True
   NBANDS = 173
   NCORE = 10
   NEDOS = 1524
   NELM = 200
   NELMIN = 5
   NSW = 0
   PREC = Accurate
   PRECFOCK = Fast
   SIGMA = 0.05

 POTCAR:    PAW_PBE H 15Jun2001                   
 POTCAR:    PAW_PBE Pb_d 06Sep2000                
 POTCAR:    PAW_PBE C 08Apr2002                   
 POTCAR:    PAW_PBE I 08Apr2002                   
 POTCAR:    PAW_PBE N 08Apr2002                   
 WARNING: For LVTOT=.TRUE., VASP.5.x writes the TOTAL local potential to the
     file LOCPOT. If you want only the Hartree contributions, use LVHAR=.TRUE.
     instead. 

 POTCAR:    PAW_PBE H 15Jun2001                   
   VRHFIN =H: ultrasoft test                                                                        
   LEXCH  = PE                                                                                      
   EATOM  =    12.4884 eV,    0.9179 Ry                                                             
                                                                                                    
   TITEL  = PAW_PBE H 15Jun2001                                                                     
   LULTRA =        F    use ultrasoft PP ?                                                          
   IUNSCR =        0    unscreen: 0-lin 1-nonlin 2-no                                               
   RPACOR =    0.000    partial core radius                                                         
   POMASS =    1.000; ZVAL   =    1.000    mass and valenz                                          
   RCORE  =    1.100    outmost cutoff radius                                                       
   RWIGS  =    0.700; RWIGS  =    0.370    wigner-seitz radius (au A)                               
   ENMAX  =  250.000; ENMIN  =  200.000 eV                                                          
   RCLOC  =    0.701    cutoff for local pot                                                        
   LCOR   =        T    correct aug charges                                                         
   LPAW   =        T    paw PP                                                                      
   EAUG   =  400.000                                                                                
   RMAX   =    1.123    core radius for proj-oper                                                   
   RAUG   =    1.200    factor for augmentation sphere                                              
   RDEP   =    1.112    radius for radial grids                                                     
   RDEPT  =    0.926    core radius for aug-charge                                                  
                                                                                                    
   Atomic configuration                                                                             
    2 entries                                                                                       
     n  l   j            E        occ.                                                              
     1  0  0.50        -6.4927   1.0000                                                             
     2  1  0.50        -3.4015   0.0000                                                             
   Description                                                                                      
     l       E           TYP  RCUT    TYP  RCUT                                                     
     0     -6.4927494     23  1.100                                                                 
     0      6.8029130     23  1.100                                                                 
     1     -4.0817478     23  1.100                                                                 
  local pseudopotential read in
  atomic valenz-charges read in
  non local Contribution for L=           0  read in
    real space projection operators read in
  non local Contribution for L=           0  read in
    real space projection operators read in
  non local Contribution for L=           1  read in
    real space projection operators read in
    PAW grid and wavefunctions read in
 
   number of l-projection  operators is LMAX  =           3
   number of lm-projection operators is LMMAX =           5
 
 POTCAR:    PAW_PBE Pb_d 06Sep2000                
   VRHFIN =Pb:                                                                                      
   LEXCH  = PE                                                                                      
   EATOM  =  1661.6185 eV,  122.1255 Ry                                                             
                                                                                                    
   TITEL  = PAW_PBE Pb_d 06Sep2000                                                                  
   LULTRA =        F    use ultrasoft PP ?                                                          
   IUNSCR =        1    unscreen: 0-lin 1-nonlin 2-no                                               
   RPACOR =    2.200    partial core radius                                                         
   POMASS =  207.200; ZVAL   =   14.000    mass and valenz                                          
   RCORE  =    2.500    outmost cutoff radius                                                       
   RWIGS  =    3.260; RWIGS  =    1.725    wigner-seitz radius (au A)                               
   ENMAX  =  237.835; ENMIN  =  178.376 eV                                                          
   ICORE  =        3    local potential                                                             
   LCOR   =        T    correct aug charges                                                         
   LPAW   =        T    paw PP                                                                      
   EAUG   =  391.914                                                                                
   DEXC   =    0.000                                                                                
   RMAX   =    2.565    core radius for proj-oper                                                   
   RAUG   =    1.300    factor for augmentation sphere                                              
   RDEP   =    2.643    radius for radial grids                                                     
   RDEPT  =    2.092    core radius for aug-charge                                                  
                                                                                                    
   Atomic configuration                                                                             
   16 entries                                                                                       
     n  l   j            E        occ.                                                              
     1  0  0.50    -88091.8466   2.0000                                                             
     2  0  0.50    -15753.4197   2.0000                                                             
     2  1  1.50    -13508.1797   6.0000                                                             
     3  0  0.50     -3781.7194   2.0000                                                             
     3  1  1.50     -3138.2529   6.0000                                                             
     3  2  2.50     -2483.2977  10.0000                                                             
     4  0  0.50      -856.2895   2.0000                                                             
     4  1  1.50      -645.4942   6.0000                                                             
     4  2  2.50      -401.8768  10.0000                                                             
     4  3  3.50      -132.9059  14.0000                                                             
     5  0  0.50      -144.0950   2.0000                                                             
     5  1  1.50       -85.7879   6.0000                                                             
     5  2  2.50       -21.1769  10.0000                                                             
     6  0  0.50       -12.0372   2.0000                                                             
     6  1  1.50        -3.4971   2.0000                                                             
     5  3  2.50        -2.7212   0.0000                                                             
   Description                                                                                      
     l       E           TYP  RCUT    TYP  RCUT                                                     
     2    -21.1768523     23  2.500                                                                 
     2      1.3605826     23  2.500                                                                 
     0    -12.0371562     23  2.500                                                                 
     0     13.6058260     23  2.500                                                                 
     1     -3.4971339     23  2.500                                                                 
     1     13.6058260     23  2.500                                                                 
     3     -1.3605826      7  2.500                                                                 
  local pseudopotential read in
  partial core-charges read in
  partial kinetic energy density read in
  atomic valenz-charges read in
  non local Contribution for L=           2  read in
    real space projection operators read in
  non local Contribution for L=           2  read in
    real space projection operators read in
  non local Contribution for L=           0  read in
    real space projection operators read in
  non local Contribution for L=           0  read in
    real space projection operators read in
  non local Contribution for L=           1  read in
    real space projection operators read in
  non local Contribution for L=           1  read in
    real space projection operators read in
    PAW grid and wavefunctions read in
 
   number of l-projection  operators is LMAX  =           6
   number of lm-projection operators is LMMAX =          18
 
 POTCAR:    PAW_PBE C 08Apr2002                   
   VRHFIN =C: s2p2                                                                                  
   LEXCH  = PE                                                                                      
   EATOM  =   147.1560 eV,   10.8157 Ry                                                             
                                                                                                    
   TITEL  = PAW_PBE C 08Apr2002                                                                     
   LULTRA =        F    use ultrasoft PP ?                                                          
   IUNSCR =        1    unscreen: 0-lin 1-nonlin 2-no                                               
   RPACOR =    1.200    partial core radius                                                         
   POMASS =   12.011; ZVAL   =    4.000    mass and valenz                                          
   RCORE  =    1.500    outmost cutoff radius                                                       
   RWIGS  =    1.630; RWIGS  =    0.863    wigner-seitz radius (au A)                               
   ENMAX  =  400.000; ENMIN  =  300.000 eV                                                          
   ICORE  =        2    local potential                                                             
   LCOR   =        T    correct aug charges                                                         
   LPAW   =        T    paw PP                                                                      
   EAUG   =  644.873                                                                                
   DEXC   =    0.000                                                                                
   RMAX   =    1.529    core radius for proj-oper                                                   
   RAUG   =    1.300    factor for augmentation sphere                                              
   RDEP   =    1.501    radius for radial grids                                                     
   RDEPT  =    1.300    core radius for aug-charge                                                  
                                                                                                    
   Atomic configuration                                                                             
    4 entries                                                                                       
     n  l   j            E        occ.                                                              
     1  0  0.50      -273.3789   2.0000                                                             
     2  0  0.50       -13.7508   2.0000                                                             
     2  1  0.50        -5.2854   2.0000                                                             
     3  2  1.50        -5.4423   0.0000                                                             
   Description                                                                                      
     l       E           TYP  RCUT    TYP  RCUT                                                     
     0    -13.7508458     23  1.200                                                                 
     0     -8.2022199     23  1.200                                                                 
     1     -5.2854383     23  1.500                                                                 
     1     34.0145650     23  1.500                                                                 
     2     -5.4423304      7  1.500                                                                 
  local pseudopotential read in
  partial core-charges read in
  partial kinetic energy density read in
  atomic valenz-charges read in
  non local Contribution for L=           0  read in
    real space projection operators read in
  non local Contribution for L=           0  read in
    real space projection operators read in
  non local Contribution for L=           1  read in
    real space projection operators read in
  non local Contribution for L=           1  read in
    real space projection operators read in
    PAW grid and wavefunctions read in
 
   number of l-projection  operators is LMAX  =           4
   number of lm-projection operators is LMMAX =           8
 
 POTCAR:    PAW_PBE I 08Apr2002                   
   VRHFIN =I : s2p5                                                                                 
   LEXCH  = PE                                                                                      
   EATOM  =   315.8678 eV,   23.2156 Ry                                                             
                                                                                                    
   TITEL  = PAW_PBE I 08Apr2002                                                                     
   LULTRA =        F    use ultrasoft PP ?                                                          
   IUNSCR =        1    unscreen: 0-lin 1-nonlin 2-no                                               
   RPACOR =    2.200    partial core radius                                                         
   POMASS =  126.904; ZVAL   =    7.000    mass and valenz                                          
   RCORE  =    2.300    outmost cutoff radius                                                       
   RWIGS  =    2.810; RWIGS  =    1.487    wigner-seitz radius (au A)                               
   ENMAX  =  175.647; ENMIN  =  131.735 eV                                                          
   ICORE  =        3    local potential                                                             
   LCOR   =        T    correct aug charges                                                         
   LPAW   =        T    paw PP                                                                      
   EAUG   =  370.139                                                                                
   DEXC   =    0.000                                                                                
   RMAX   =    2.359    core radius for proj-oper                                                   
   RAUG   =    1.300    factor for augmentation sphere                                              
   RDEP   =    2.392    radius for radial grids                                                     
   RDEPT  =    2.170    core radius for aug-charge                                                  
                                                                                                    
   Atomic configuration                                                                             
   13 entries                                                                                       
     n  l   j            E        occ.                                                              
     1  0  0.50    -32976.3739   2.0000                                                             
     2  0  0.50     -5094.5933   2.0000                                                             
     2  1  1.50     -4572.0131   6.0000                                                             
     3  0  0.50     -1028.2813   2.0000                                                             
     3  1  1.50      -859.0250   6.0000                                                             
     3  2  2.50      -605.7620  10.0000                                                             
     4  0  0.50      -180.5540   2.0000                                                             
     4  1  1.50      -127.5306   6.0000                                                             
     4  2  2.50       -50.2720  10.0000                                                             
     5  0  0.50       -17.4058   2.0000                                                             
     5  1  0.50        -7.0851   5.0000                                                             
     5  2  1.50        -7.0750   0.0000                                                             
     4  3  2.50        -7.0750   0.0000                                                             
   Description                                                                                      
     l       E           TYP  RCUT    TYP  RCUT                                                     
     0    -17.4058016     23  2.300                                                                 
     0    -18.7663842     23  2.300                                                                 
     1     -7.0850686     23  2.300                                                                 
     1     -4.2150896     23  2.300                                                                 
     2     -7.0750295     23  2.300                                                                 
     3     -1.3605826     23  2.300                                                                 
  local pseudopotential read in
  partial core-charges read in
  partial kinetic energy density read in
  atomic valenz-charges read in
  non local Contribution for L=           0  read in
    real space projection operators read in
  non local Contribution for L=           0  read in
    real space projection operators read in
  non local Contribution for L=           1  read in
    real space projection operators read in
  non local Contribution for L=           1  read in
    real space projection operators read in
  non local Contribution for L=           2  read in
    real space projection operators read in
    PAW grid and wavefunctions read in
 
   number of l-projection  operators is LMAX  =           5
   number of lm-projection operators is LMMAX =          13
 
 POTCAR:    PAW_PBE N 08Apr2002                   
   VRHFIN =N: s2p3                                                                                  
   LEXCH  = PE                                                                                      
   EATOM  =   264.5486 eV,   19.4438 Ry                                                             
                                                                                                    
   TITEL  = PAW_PBE N 08Apr2002                                                                     
   LULTRA =        F    use ultrasoft PP ?                                                          
   IUNSCR =        1    unscreen: 0-lin 1-nonlin 2-no                                               
   RPACOR =    1.200    partial core radius                                                         
   POMASS =   14.001; ZVAL   =    5.000    mass and valenz                                          
   RCORE  =    1.500    outmost cutoff radius                                                       
   RWIGS  =    1.400; RWIGS  =    0.741    wigner-seitz radius (au A)                               
   ENMAX  =  400.000; ENMIN  =  300.000 eV                                                          
   ICORE  =        2    local potential                                                             
   LCOR   =        T    correct aug charges                                                         
   LPAW   =        T    paw PP                                                                      
   EAUG   =  627.112                                                                                
   DEXC   =    0.000                                                                                
   RMAX   =    1.529    core radius for proj-oper                                                   
   RAUG   =    1.300    factor for augmentation sphere                                              
   RDEP   =    1.514    radius for radial grids                                                     
   RDEPT  =    1.338    core radius for aug-charge                                                  
                                                                                                    
   Atomic configuration                                                                             
    4 entries                                                                                       
     n  l   j            E        occ.                                                              
     1  0  0.50      -384.7179   2.0000                                                             
     2  0  0.50       -18.5828   2.0000                                                             
     2  1  0.50        -7.0898   3.0000                                                             
     3  2  1.50        -6.8029   0.0000                                                             
   Description                                                                                      
     l       E           TYP  RCUT    TYP  RCUT                                                     
     0    -18.5828119     23  1.200                                                                 
     0    -13.5018863     23  1.200                                                                 
     1     -7.0897853     23  1.500                                                                 
     1      9.5240782     23  1.500                                                                 
     2     -6.8029130      7  1.500                                                                 
  local pseudopotential read in
  partial core-charges read in
  partial kinetic energy density read in
  atomic valenz-charges read in
  non local Contribution for L=           0  read in
    real space projection operators read in
  non local Contribution for L=           0  read in
    real space projection operators read in
  non local Contribution for L=           1  read in
    real space projection operators read in
  non local Contribution for L=           1  read in
    real space projection operators read in
    PAW grid and wavefunctions read in
 
   number of l-projection  operators is LMAX  =           4
   number of lm-projection operators is LMMAX =           8
 
 -----------------------------------------------------------------------------
|                                                                             |
|               ----> ADVICE to this user running VASP <----                  |
|                                                                             |
|     You have a (more or less) 'large supercell' and for larger cells it     |
|     might be more efficient to use real-space projection operators.         |
|     Therefore, try LREAL= Auto in the INCAR file.                           |
|     Mind: For very accurate calculation, you might also keep the            |
|     reciprocal projection scheme (i.e. LREAL=.FALSE.).                      |
|                                                                             |
 -----------------------------------------------------------------------------

  PAW_PBE H 15Jun2001                   :
 energy of atom  1       EATOM=  -12.4884
 kinetic energy error for atom=    0.0002 (will be added to EATOM!!)
  PAW_PBE Pb_d 06Sep2000                :
 energy of atom  2       EATOM=-1661.6185
 kinetic energy error for atom=    0.0012 (will be added to EATOM!!)
  PAW_PBE C 08Apr2002                   :
 energy of atom  3       EATOM= -147.1560
 kinetic energy error for atom=    0.0037 (will be added to EATOM!!)
  PAW_PBE I 08Apr2002                   :
 energy of atom  4       EATOM= -315.8678
 kinetic energy error for atom=    0.0004 (will be added to EATOM!!)
  PAW_PBE N 08Apr2002                   :
 energy of atom  5       EATOM= -264.5486
 kinetic energy error for atom=    0.0069 (will be added to EATOM!!)
 
 
 POSCAR: H24 Pb4 C4 I12 N4
  positions in direct lattice
  No initial velocities read in
 exchange correlation table for  LEXCH =        8
   RHO(1)=    0.500       N(1)  =     2000
   RHO(2)=  100.500       N(2)  =     4000
 


--------------------------------------------------------------------------------------------------------


 ion  position               nearest neighbor table
   1  0.388  0.411  0.321-  32 1.09
   2  0.612  0.589  0.679-  31 1.09
   3  0.888  0.089  0.679-  30 1.09
   4  0.112  0.911  0.321-  29 1.09
   5  0.612  0.589  0.821-  31 1.09
   6  0.388  0.411  0.179-  32 1.09
   7  0.112  0.911  0.179-  29 1.09
   8  0.888  0.089  0.821-  30 1.09
   9  0.603  0.578  0.315-  47 1.03
  10  0.397  0.422  0.685-  48 1.03
  11  0.103  0.922  0.685-  45 1.03
  12  0.897  0.078  0.315-  46 1.03
  13  0.397  0.422  0.815-  48 1.03
  14  0.603  0.578  0.185-  47 1.03
  15  0.897  0.078  0.185-  46 1.03
  16  0.103  0.922  0.815-  45 1.03
  17  0.543  0.332  0.250-  32 1.09
  18  0.457  0.668  0.750-  31 1.09
  19  0.043  0.168  0.750-  30 1.09
  20  0.957  0.832  0.250-  29 1.09
  21  0.460  0.654  0.250-  47 1.03
  22  0.540  0.346  0.750-  48 1.03
  23  0.960  0.846  0.750-  45 1.03
  24  0.040  0.154  0.250-  46 1.03
  25  0.000  0.500  0.000-  41 3.23  42 3.23  33 3.24  34 3.24  35 3.25  36 3.25
  26  0.500  0.000  0.000-  43 3.23  44 3.23  35 3.24  36 3.24  33 3.25  34 3.25
  27  0.000  0.500  0.500-  41 3.23  42 3.23  37 3.24  38 3.24  39 3.25  40 3.25
  28  0.500  0.000  0.500-  43 3.23  44 3.23  39 3.24  40 3.24  37 3.25  38 3.25
  29  0.042  0.919  0.250-  20 1.09   7 1.09   4 1.09  46 1.50
  30  0.958  0.081  0.750-  19 1.09   8 1.09   3 1.09  45 1.50
  31  0.542  0.581  0.750-  18 1.09   5 1.09   2 1.09  48 1.50
  32  0.458  0.419  0.250-  17 1.09   6 1.09   1 1.09  47 1.50
  33  0.197  0.199  0.018-  25 3.24  26 3.25
  34  0.803  0.801  0.982-  25 3.24  26 3.25
  35  0.697  0.301  0.982-  26 3.24  25 3.25
  36  0.303  0.699  0.018-  26 3.24  25 3.25
  37  0.803  0.801  0.518-  27 3.24  28 3.25
  38  0.197  0.199  0.482-  27 3.24  28 3.25
  39  0.303  0.699  0.482-  28 3.24  27 3.25
  40  0.697  0.301  0.518-  28 3.24  27 3.25
  41  0.942  0.478  0.250-  25 3.23  27 3.23
  42  0.058  0.522  0.750-  25 3.23  27 3.23
  43  0.442  0.022  0.750-  26 3.23  28 3.23
  44  0.558  0.978  0.250-  26 3.23  28 3.23
  45  0.035  0.934  0.750-  11 1.03  16 1.03  23 1.03  30 1.50
  46  0.965  0.066  0.250-  12 1.03  15 1.03  24 1.03  29 1.50
  47  0.535  0.566  0.250-   9 1.03  14 1.03  21 1.03  32 1.50
  48  0.465  0.434  0.750-  10 1.03  13 1.03  22 1.03  31 1.50
 
  LATTYP: Found a simple orthorhombic cell.
 ALAT       =     8.9195190000
 B/A-ratio  =     1.0104386795
 C/A-ratio  =     1.4284127877
  
  Lattice vectors:
  
 A1 = (   8.9195190000,   0.0000000000,   0.0000000000)
 A2 = (  -0.0000000000,   9.0126270000,   0.0000000000)
 A3 = (   0.0000000000,   0.0000000000,  12.7407550000)


Analysis of symmetry for initial positions (statically):
=====================================================================
 Subroutine PRICEL returns:
 Original cell was already a primitive cell.
 

 Routine SETGRP: Setting up the symmetry group for a 
 simple orthorhombic supercell.


 Subroutine GETGRP returns: Found  8 space group operations
 (whereof  2 operations were pure point group operations)
 out of a pool of  8 trial point group operations.


The static configuration has the point symmetry S_2 .
 The point group associated with its full space group is D_2h.


Analysis of symmetry for dynamics (positions and initial velocities):
=====================================================================
 Subroutine PRICEL returns:
 Original cell was already a primitive cell.
 

 Routine SETGRP: Setting up the symmetry group for a 
 simple orthorhombic supercell.


 Subroutine GETGRP returns: Found  8 space group operations
 (whereof  2 operations were pure point group operations)
 out of a pool of  8 trial point group operations.


The dynamic configuration has the point symmetry S_2 .
 The point group associated with its full space group is D_2h.


 Subroutine INISYM returns: Found  8 space group operations
 (whereof  2 operations are pure point group operations),
 and found     1 'primitive' translations


----------------------------------------------------------------------------------------

                                     Primitive cell                                     

  volume of cell :    1024.2076

  direct lattice vectors                    reciprocal lattice vectors
     8.919519000  0.000000000  0.000000000     0.112113669  0.000000000  0.000000000
    -0.000000000  9.012627000  0.000000000     0.000000000  0.110955441  0.000000000
     0.000000000  0.000000000 12.740755000    -0.000000000 -0.000000000  0.078488284

  length of vectors
     8.919519000  9.012627000 12.740755000     0.112113669  0.110955441  0.078488284

  position of ions in fractional coordinates (direct lattice)
     0.388408000  0.410677000  0.320741000
     0.611592000  0.589323000  0.679259000
     0.888408000  0.089323000  0.679259000
     0.111592000  0.910677000  0.320741000
     0.611592000  0.589323000  0.820741000
     0.388408000  0.410677000  0.179259000
     0.111592000  0.910677000  0.179259000
     0.888408000  0.089323000  0.820741000
     0.602561000  0.577773000  0.315093000
     0.397439000  0.422227000  0.684907000
     0.102561000  0.922227000  0.684907000
     0.897439000  0.077773000  0.315093000
     0.397439000  0.422227000  0.815093000
     0.602561000  0.577773000  0.184907000
     0.897439000  0.077773000  0.184907000
     0.102561000  0.922227000  0.815093000
     0.543180000  0.331775000  0.250000000
     0.456820000  0.668225000  0.750000000
     0.043180000  0.168225000  0.750000000
     0.956820000  0.831775000  0.250000000
     0.460150000  0.653692000  0.250000000
     0.539850000  0.346308000  0.750000000
     0.960150000  0.846308000  0.750000000
     0.039850000  0.153692000  0.250000000
     0.000000000  0.500000000  1.000000000
     0.500000000  0.000000000  1.000000000
     0.000000000  0.500000000  0.500000000
     0.500000000  0.000000000  0.500000000
     0.042431000  0.918718000  0.250000000
     0.957569000  0.081282000  0.750000000
     0.542431000  0.581282000  0.750000000
     0.457569000  0.418718000  0.250000000
     0.197198000  0.198644000  0.018389000
     0.802802000  0.801356000  0.981611000
     0.697198000  0.301356000  0.981611000
     0.302802000  0.698644000  0.018389000
     0.802802000  0.801356000  0.518389000
     0.197198000  0.198644000  0.481611000
     0.302802000  0.698644000  0.481611000
     0.697198000  0.301356000  0.518389000
     0.942067000  0.478144000  0.250000000
     0.057933000  0.521856000  0.750000000
     0.442067000  0.021856000  0.750000000
     0.557933000  0.978144000  0.250000000
     0.034877000  0.934074000  0.750000000
     0.965123000  0.065926000  0.250000000
     0.534877000  0.565926000  0.250000000
     0.465123000  0.434074000  0.750000000

  ion indices of the primitive-cell ions
   primitive index   ion index
                 1           1
                 2           2
                 3           3
                 4           4
                 5           5
                 6           6
                 7           7
                 8           8
                 9           9
                10          10
                11          11
                12          12
                13          13
                14          14
                15          15
                16          16
                17          17
                18          18
                19          19
                20          20
                21          21
                22          22
                23          23
                24          24
                25          25
                26          26
                27          27
                28          28
                29          29
                30          30
                31          31
                32          32
                33          33
                34          34
                35          35
                36          36
                37          37
                38          38
                39          39
                40          40
                41          41
                42          42
                43          43
                44          44
                45          45
                46          46
                47          47
                48          48

----------------------------------------------------------------------------------------

 
 
 KPOINTS: pymatgen with grid density = 744 / numbe

Automatic generation of k-mesh.
 Grid dimensions read from file:
 generate k-points for:    2    2    1

 Generating k-lattice:

  Cartesian coordinates                     Fractional coordinates (reciprocal lattice)
     0.056056834  0.000000000  0.000000000     0.500000000  0.000000000  0.000000000
     0.000000000  0.055477720  0.000000000     0.000000000  0.500000000  0.000000000
    -0.000000000 -0.000000000  0.078488284    -0.000000000 -0.000000000  1.000000000

  Length of vectors
     0.056056834  0.055477720  0.078488284

  Shift w.r.t. Gamma in fractional coordinates (k-lattice)
     0.000000000  0.000000000  0.000000000

 TETIRR: Found     12 inequivalent tetrahedra from       24
 
 Subroutine IBZKPT returns following result:
 ===========================================
 
 Found      4 irreducible k-points:
 
 Following reciprocal coordinates:
            Coordinates               Weight
  0.000000  0.000000  0.000000      1.000000
  0.500000  0.000000  0.000000      1.000000
  0.000000  0.500000  0.000000      1.000000
  0.500000  0.500000  0.000000      1.000000
 
 Following cartesian coordinates:
            Coordinates               Weight
  0.000000  0.000000  0.000000      1.000000
  0.056057  0.000000  0.000000      1.000000
  0.000000  0.055478  0.000000      1.000000
  0.056057  0.055478  0.000000      1.000000
 
 
 Subroutine IBZKPT_HF returns following result:
 ==============================================
 
 Found      4 k-points in 1st BZ
 the following      4 k-points will be used (e.g. in the exchange kernel)
 Following reciprocal coordinates:   # in IRBZ
  0.000000  0.000000  0.000000    0.25000000   1 t-inv F
  0.500000  0.000000  0.000000    0.25000000   2 t-inv F
  0.000000  0.500000  0.000000    0.25000000   3 t-inv F
  0.500000  0.500000  0.000000    0.25000000   4 t-inv F
 -----------------------------------------------------------------------------
|                                                                             |
|           W    W    AA    RRRRR   N    N  II  N    N   GGGG   !!!           |
|           W    W   A  A   R    R  NN   N  II  NN   N  G    G  !!!           |
|           W    W  A    A  R    R  N N  N  II  N N  N  G       !!!           |
|           W WW W  AAAAAA  RRRRR   N  N N  II  N  N N  G  GGG   !            |
|           WW  WW  A    A  R   R   N   NN  II  N   NN  G    G                |
|           W    W  A    A  R    R  N    N  II  N    N   GGGG   !!!           |
|                                                                             |
|     The number of bands has been changed from the values supplied in        |
|     the INCAR file. This is a result of running the parallel version.       |
|     The orbitals not found in the WAVECAR file will be initialized with     |
|     random numbers, which is usually adequate. For correlated               |
|     calculations, however, you should redo the groundstate calculation.     |
|     I found NBANDS = 173. Now, NBANDS = 180.                                |
|                                                                             |
 -----------------------------------------------------------------------------



--------------------------------------------------------------------------------------------------------




 Dimension of arrays:
   k-points           NKPTS =      4   k-points in BZ     NKDIM =      4   number of bands    NBANDS=    180
   number of dos      NEDOS =   1524   number of ions     NIONS =     48
   non local maximal  LDIM  =      6   non local SUM 2l+1 LMDIM =     18
   total plane-waves  NPLWV = 691200
   max r-space proj   IRMAX =      1   max aug-charges    IRDMAX=  39233
   dimension x,y,z NGX =    80 NGY =   80 NGZ =  108
   dimension x,y,z NGXF=   160 NGYF=  160 NGZF=  216
   support grid    NGXF=   160 NGYF=  160 NGZF=  216
   ions per type =              24   4   4  12   4
   NGX,Y,Z   is equivalent  to a cutoff of  14.91, 14.76, 14.09 a.u.
   NGXF,Y,Z  is equivalent  to a cutoff of  29.82, 29.51, 28.18 a.u.

 SYSTEM =  unknown system                          
 POSCAR =  H24 Pb4 C4 I12 N4                       

 Startparameter for this run:
   NWRITE =      2    write-flag & timer
   PREC   = accura    normal or accurate (medium, high low for compatibility)
   ISTART =      0    job   : 0-new  1-cont  2-samecut
   ICHARG =      2    charge: 1-file 2-atom 10-const
   ISPIN  =      1    spin polarized calculation?
   LNONCOLLINEAR =      F non collinear calculations
   LSORBIT =      F    spin-orbit coupling
   INIWAV =      1    electr: 0-lowe 1-rand  2-diag
   LASPH  =      T    aspherical Exc in radial PAW
 Electronic Relaxation 1
   ENCUT  =  680.0 eV  49.98 Ry    7.07 a.u.  18.96 19.16 27.09*2*pi/ulx,y,z
   ENINI  =  680.0     initial cutoff
   ENAUG  = 1360.0 eV  augmentation charge cutoff
   NELM   =    200;   NELMIN=  5; NELMDL=  0     # of ELM steps 
   EDIFF  = 0.1E-04   stopping-criterion for ELM
   LREAL  =      F    real-space projection
   NLSPLINE    = F    spline interpolate recip. space projectors
   LCOMPAT=      F    compatible to vasp.4.4
   GGA_COMPAT  = T    GGA compatible to vasp.4.4-vasp.4.6
   LMAXPAW     = -100 max onsite density
   LMAXMIX     =    6 max onsite mixed and CHGCAR
   VOSKOWN=      0    Vosko Wilk Nusair interpolation
   ROPT   =    0.00000   0.00000   0.00000   0.00000
   ROPT   =    0.00000
 Ionic relaxation
   EDIFFG = 0.1E-03   stopping-criterion for IOM
   NSW    =      0    number of steps for IOM
   NBLOCK =      1;   KBLOCK =      1    inner block; outer block 
   IBRION =     -1    ionic relax: 0-MD 1-quasi-New 2-CG
   NFREE  =      0    steps in history (QN), initial steepest desc. (CG)
   ISIF   =      0    stress and relaxation
   IWAVPR =     10    prediction:  0-non 1-charg 2-wave 3-comb
   ISYM   =      3    0-nonsym 1-usesym 2-fastsym
   LCORR  =      T    Harris-Foulkes like correction to forces

   POTIM  = 0.5000    time-step for ionic-motion
   TEIN   =    0.0    initial temperature
   TEBEG  =    0.0;   TEEND  =   0.0 temperature during run
   SMASS  =  -3.00    Nose mass-parameter (am)
   estimated Nose-frequenzy (Omega)   =  0.10E-29 period in steps = 0.13E+47 mass=  -0.182E-26a.u.
   SCALEE = 1.0000    scale energy and forces
   NPACO  =    256;   APACO  = 10.0  distance and # of slots for P.C.
   PSTRESS=    0.0 pullay stress

  Mass of Ions in am
   POMASS =   1.00207.20 12.01126.90 14.00
  Ionic Valenz
   ZVAL   =   1.00 14.00  4.00  7.00  5.00
  Atomic Wigner-Seitz radii
   RWIGS  =  -1.00 -1.00 -1.00 -1.00 -1.00
  virtual crystal weights 
   VCA    =   1.00  1.00  1.00  1.00  1.00
   NELECT =     200.0000    total number of electrons
   NUPDOWN=      -1.0000    fix difference up-down

 DOS related values:
   EMIN   =  10.00;   EMAX   =-10.00  energy-range for DOS
   EFERMI =   0.00;   METHOD = LEGACY      
   ISMEAR =    -5;   SIGMA  =   0.05  broadening in eV -4-tet -1-fermi 0-gaus

 Electronic relaxation 2 (details)
   IALGO  =     38    algorithm
   LDIAG  =      T    sub-space diagonalisation (order eigenvalues)
   LSUBROT=      F    optimize rotation matrix (better conditioning)
   TURBO    =      0    0=normal 1=particle mesh
   IRESTART =      0    0=no restart 2=restart with 2 vectors
   NREBOOT  =      0    no. of reboots
   NMIN     =      0    reboot dimension
   EREF     =   0.00    reference energy to select bands
   IMIX   =      1    mixing-type and parameters
     AMIX     =   0.40;   BMIX     =  1.00
     AMIX_MAG =   1.60;   BMIX_MAG =  1.00
     AMIN     =   0.10
     WC   =   100.;   INIMIX=   1;  MIXPRE=   1;  MAXMIX= -45

 Intra band minimization:
   WEIMIN = 0.0000     energy-eigenvalue tresh-hold
   EBREAK =  0.14E-07  absolut break condition
   DEPER  =   0.30     relativ break condition  

   TIME   =   0.40     timestep for ELM

  volume/ion in A,a.u.               =      21.34       143.99
  Fermi-wavevector in a.u.,A,eV,Ry     =   0.949778  1.794820 12.273523  0.902078
  Thomas-Fermi vector in A             =   2.078093
 
 Write flags
   LWAVE        =      T    write WAVECAR
   LDOWNSAMPLE  =      F    k-point downsampling of WAVECAR
   LCHARG       =      T    write CHGCAR
   LVTOT        =      T    write LOCPOT, total local potential
   LVHAR        =      F    write LOCPOT, Hartree potential only
   LELF         =      F    write electronic localiz. function (ELF)
   LORBIT       =     11    0 simple, 1 ext, 2 COOP (PROOUT), +10 PAW based schemes


 Dipole corrections
   LMONO  =      F    monopole corrections only (constant potential shift)
   LDIPOL =      F    correct potential (dipole corrections)
   IDIPOL =      0    1-x, 2-y, 3-z, 4-all directions 
   EPSILON=  1.0000000 bulk dielectric constant

 Exchange correlation treatment:
   GGA     =    PE    GGA type
   LEXCH   =     8    internal setting for exchange type
   LIBXC   =     F    Libxc                    
   VOSKOWN =     0    Vosko Wilk Nusair interpolation
   EXXOEP  =     0    0=HF, 1=EXX-LHF (local Hartree Fock) 2=EXX OEP
   LHFCALC =     T    Hartree Fock is set to
   LSYMGRAD=     F    symmetrize gradient (conserves proper symmetry)
   PRECFOCK=fast      Normal, Fast or Accurate (Low or Medium for compatibility)
   LRHFCALC=     F    long range Hartree Fock
   LRSCOR  =     F    long range correlation only (use DFT for short range part)
   LTHOMAS =     F    Thomas Fermi screening in HF
   LMODELHF=     F    short range full HF, long range fraction AEXX
   FOCKCORR=     1    mode to apply convergence corrections
   LFOCKACE=     T    use Adeptively-Compressed-Exchange operator
   ENCUT4O =  -1.0   cutoff for four orbital integrals eV
   LMAXFOCK=     4    L truncation for augmentation on plane wave grid
   LMAXFOCKAE=  -1    L truncation for all-electron charge restoration on plane wave grid
   NMAXFOCKAE=   1    number of basis functions for all-electron charge restoration
   LFOCKAEDFT=     F  apply the AE augmentation even for DFT
   NKREDX  =     1    reduce k-point grid by
   NKREDY  =     1    reduce k-point grid by
   NKREDZ  =     1    reduce k-point grid by
   SHIFTRED=     F    shift reduced grid of Gamma
   HFKIDENT=     F    idential grid for each k-point
   ODDONLY =     F    use only odd q-grid points
   EVENONLY=     F    use only even q-grid points
   HFALPHA =   -1.0000 decay constant for conv. correction
   MCALPHA =    0.0000 extent of test-charge in conv. correction in multipole expansion
   AEXX    =    0.2500 exact exchange contribution
   HFSCREEN=    0.2000 screening length (either q_TF or 0.3 A-1)
   HFSCREENC=   0.2000 screening length for correlation (either q_TF or 0.3 A-1)
   HFRCUT  =    0.0000 spherical cutoff for potential kernel
   ALDAX   =    0.7500 LDA exchange part
   AGGAX   =    0.7500 GGA exchange part
   ALDAC   =    1.0000 LDA correlation
   AGGAC   =    1.0000 GGA correlation
   ENCUTFOCK=  -1.0 apply spherical cutoff to Coloumb kernel
   NBANDSGWLOW=     1    first orbital included in HF term
   NBLOCK_FOCK=    64    blocking factor in FOCK_ACC

 Linear response parameters
   LEPSILON=     F    determine dielectric tensor
   LRPA    =     F    only Hartree local field effects (RPA)
   LNABLA  =     F    use nabla operator in PAW spheres
   LVEL    =     F    velocity operator in full k-point grid
   CSHIFT  =0.0000    complex shift for real part using Kramers Kronig
   OMEGAMAX=  -1.0    maximum frequency
   DEG_THRESHOLD= 0.2000000E-02 threshold for treating states as degnerate
   RTIME   =   -0.100 relaxation time in fs
  (WPLASMAI=    0.000 imaginary part of plasma frequency in eV, 0.658/RTIME)
   DFIELD  = 0.0000000 0.0000000 0.0000000 field for delta impulse in time
 
  Optional k-point grid parameters
   LKPOINTS_OPT  =     F    use optional k-point grid
   KPOINTS_OPT_MODE=     1    mode for optional k-point grid
 
 Orbital magnetization related:
   ORBITALMAG=     F  switch on orbital magnetization
   LCHIMAG   =     F  perturbation theory with respect to B field
   DQ        =  0.001000  dq finite difference perturbation B field
   LLRAUG    =     F  two centre corrections for induced B field
   LBONE     =     F  B-component reconstruction in AE one-centre
   LVGVCALC  =     T  calculate vGv susceptibility
   LVGVAPPL  =     F  apply vGv susceptibility instead of pGv for G=0

 Random number generation:
   RANDOM_GENERATOR = DEFAULT
   PCG_SEED         = not used


--------------------------------------------------------------------------------------------------------


 Static calculation
 charge density and potential will be updated during run
 non-spin polarized calculation
 Variant of blocked Davidson
 Davidson routine will perform the subspace rotation
 perform sub-space diagonalisation
    after iterative eigenvector-optimisation
 Kerker-like  mixing scheme
 using additional bands           80
 reciprocal scheme for non local part
 use partial core corrections
 calculate Harris-corrections to forces 
   (improved forces if not selfconsistent)
 use gradient corrections 
 use of overlap-Matrix (Vanderbilt PP)
 Fermi weights with tetrahedron method with Bloechl corrections


--------------------------------------------------------------------------------------------------------


  energy-cutoff  :      680.00
  volume of cell :     1024.21
      direct lattice vectors                 reciprocal lattice vectors
     8.919519000  0.000000000  0.000000000     0.112113669  0.000000000  0.000000000
    -0.000000000  9.012627000  0.000000000     0.000000000  0.110955441  0.000000000
     0.000000000  0.000000000 12.740755000    -0.000000000 -0.000000000  0.078488284

  length of vectors
     8.919519000  9.012627000 12.740755000     0.112113669  0.110955441  0.078488284


 
 k-points in units of 2pi/SCALE and weight: pymatgen with grid density = 744 / numbe
   0.00000000  0.00000000  0.00000000       0.250
   0.05605683  0.00000000  0.00000000       0.250
   0.00000000  0.05547772  0.00000000       0.250
   0.05605683  0.05547772  0.00000000       0.250
 
 k-points in reciprocal lattice and weights: pymatgen with grid density = 744 / numbe
   0.00000000  0.00000000  0.00000000       0.250
   0.50000000  0.00000000  0.00000000       0.250
   0.00000000  0.50000000  0.00000000       0.250
   0.50000000  0.50000000  0.00000000       0.250
 
 position of ions in fractional coordinates (direct lattice) 
   0.38840800  0.41067700  0.32074100
   0.61159200  0.58932300  0.67925900
   0.88840800  0.08932300  0.67925900
   0.11159200  0.91067700  0.32074100
   0.61159200  0.58932300  0.82074100
   0.38840800  0.41067700  0.17925900
   0.11159200  0.91067700  0.17925900
   0.88840800  0.08932300  0.82074100
   0.60256100  0.57777300  0.31509300
   0.39743900  0.42222700  0.68490700
   0.10256100  0.92222700  0.68490700
   0.89743900  0.07777300  0.31509300
   0.39743900  0.42222700  0.81509300
   0.60256100  0.57777300  0.18490700
   0.89743900  0.07777300  0.18490700
   0.10256100  0.92222700  0.81509300
   0.54318000  0.33177500  0.25000000
   0.45682000  0.66822500  0.75000000
   0.04318000  0.16822500  0.75000000
   0.95682000  0.83177500  0.25000000
   0.46015000  0.65369200  0.25000000
   0.53985000  0.34630800  0.75000000
   0.96015000  0.84630800  0.75000000
   0.03985000  0.15369200  0.25000000
   0.00000000  0.50000000  0.00000000
   0.50000000  0.00000000  0.00000000
   0.00000000  0.50000000  0.50000000
   0.50000000  0.00000000  0.50000000
   0.04243100  0.91871800  0.25000000
   0.95756900  0.08128200  0.75000000
   0.54243100  0.58128200  0.75000000
   0.45756900  0.41871800  0.25000000
   0.19719800  0.19864400  0.01838900
   0.80280200  0.80135600  0.98161100
   0.69719800  0.30135600  0.98161100
   0.30280200  0.69864400  0.01838900
   0.80280200  0.80135600  0.51838900
   0.19719800  0.19864400  0.48161100
   0.30280200  0.69864400  0.48161100
   0.69719800  0.30135600  0.51838900
   0.94206700  0.47814400  0.25000000
   0.05793300  0.52185600  0.75000000
   0.44206700  0.02185600  0.75000000
   0.55793300  0.97814400  0.25000000
   0.03487700  0.93407400  0.75000000
   0.96512300  0.06592600  0.25000000
   0.53487700  0.56592600  0.25000000
   0.46512300  0.43407400  0.75000000
 
 position of ions in cartesian coordinates  (Angst):
   3.46441254  3.70127862  4.08648250
   5.45510646  5.31134838  8.65427250
   7.92417204  0.80503488  8.65427250
   0.99534696  8.20759212  4.08648250
   5.45510646  5.31134838 10.45686000
   3.46441254  3.70127862  2.28389500
   0.99534696  8.20759212  2.28389500
   7.92417204  0.80503488 10.45686000
   5.37455429  5.20725254  4.01452272
   3.54496471  3.80537446  8.72623228
   0.91479479  8.31168796  8.72623228
   8.00472421  0.70093904  4.01452272
   3.54496471  3.80537446 10.38490022
   5.37455429  5.20725254  2.35585478
   8.00472421  0.70093904  2.35585478
   0.91479479  8.31168796 10.38490022
   4.84490433  2.99016432  3.18518875
   4.07461467  6.02246268  9.55556625
   0.38514483  1.51614918  9.55556625
   8.53437417  7.49647782  3.18518875
   4.10431667  5.89148217  3.18518875
   4.81520233  3.12114483  9.55556625
   8.56407617  7.62745833  9.55556625
   0.35544283  1.38516867  3.18518875
  -0.00000000  4.50631350  0.00000000
   4.45975950  0.00000000  0.00000000
  -0.00000000  4.50631350  6.37037750
   4.45975950  0.00000000  6.37037750
   0.37846411  8.28006265  3.18518875
   8.54105489  0.73256435  9.55556625
   4.83822361  5.23887785  9.55556625
   4.08129539  3.77374915  3.18518875
   1.75891131  1.79030428  0.23428974
   7.16060769  7.22232272 12.50646526
   6.21867081  2.71600922 12.50646526
   2.70084819  6.29661778  0.23428974
   7.16060769  7.22232272  6.60466724
   1.75891131  1.79030428  6.13608776
   2.70084819  6.29661778  6.13608776
   6.21867081  2.71600922  6.60466724
   8.40278451  4.30933352  3.18518875
   0.51673449  4.70329348  9.55556625
   3.94302501  0.19697998  9.55556625
   4.97649399  8.81564702  3.18518875
   0.31108606  8.41846055  9.55556625
   8.60843294  0.59416645  3.18518875
   4.77084556  5.10047995  3.18518875
   4.14867344  3.91214705  9.55556625
 


--------------------------------------------------------------------------------------------------------


 k-point   1 :   0.0000 0.0000 0.0000  plane waves:   41225
 k-point   2 :   0.5000 0.0000 0.0000  plane waves:   41258
 k-point   3 :   0.0000 0.5000 0.0000  plane waves:   41190
 k-point   4 :   0.5000 0.5000 0.0000  plane waves:   41168

 maximum and minimum number of plane-waves per node :      4155     4094

 maximum number of plane-waves:     41258
 maximum index in each direction: 
   IXMAX=   18   IYMAX=   19   IZMAX=   27
   IXMIN=  -19   IYMIN=  -19   IZMIN=  -27


 parallel 3D FFT for wavefunctions:
    minimum data exchange during FFTs selected (reduces bandwidth)
 parallel 3D FFT for charge:
    minimum data exchange during FFTs selected (reduces bandwidth)


 FFT grid for exact exchange (Hartree Fock) 
  NGX = 40; NGY = 40; NGZ = 60

 
 Radii for the augmentation spheres in the non-local exchange
 for species   1 augmentation radius   0.702 (default was   0.520)
       energy cutoff for augmentation   2720.0
 for species   2 augmentation radius   1.558 (default was   1.154)
       energy cutoff for augmentation   2720.0
 for species   3 augmentation radius   0.944 (default was   0.699)
       energy cutoff for augmentation   2720.0
 for species   4 augmentation radius   1.603 (default was   1.188)
       energy cutoff for augmentation   2720.0
 for species   5 augmentation radius   0.957 (default was   0.709)
       energy cutoff for augmentation   2720.0

 real space projection operators:
  total allocation   :       5368.12 KBytes
  max/ min on nodes  :        552.64        510.69

 Maximum index for augmentation-charges in exchange          159
  SETUP_FOCK is finished

 total amount of memory used by VASP MPI-rank0    64566. kBytes
=======================================================================

   base      :      30000. kBytes
   nonl-proj :      15102. kBytes
   fftplans  :       4806. kBytes
   grid      :       8345. kBytes
   one-center:         77. kBytes
   HF        :        194. kBytes
   nonlr-proj:       2010. kBytes
   wavefun   :       4032. kBytes
 
     INWAV:  cpu time      0.0001: real time      0.0007
 initial charge density was supplied:
 charge density of overlapping atoms calculated
 number of electron     200.0000000 magnetization 
 keeping initial charge density in first step


--------------------------------------------------------------------------------------------------------


 Maximum index for augmentation-charges         1267 (set IRDMAX)


--------------------------------------------------------------------------------------------------------


 First call to EWALD:  gamma=   0.176
 Maximum number of real-space cells 3x 3x 2
 Maximum number of reciprocal cells 2x 3x 3

    FEWALD:  cpu time      0.0028: real time      0.0031


--------------------------------------- Ionic step        1  -------------------------------------------




--------------------------------------- Iteration      1(   1)  ---------------------------------------


    POTLOK:  cpu time      0.0606: real time      0.2011
    SETDIJ:  cpu time      0.1323: real time      0.1329
     EDDAV:  cpu time      1.8920: real time      3.2619
 BZINTS: Fermi energy:   10.969771;  200.000000 electrons
         Band energy: 0.975349E+02;  BLOECHL correction:    0.000000
       DOS:  cpu time      0.0049: real time      0.0049
    --------------------------------------------
      LOOP:  cpu time      2.0898: real time      3.6008

 eigenvalue-minimisations  :  1464
 total energy-change (2. order) :-0.2287224E+05  (-0.9292506E+04)
 number of electron     200.0000000 magnetization 
 augmentation part      200.0000000 magnetization 

 Free energy of the ion-electron system (eV)
  ---------------------------------------------------
  alpha Z        PSCENC =       180.38090441
  Ewald energy   TEWEN  =     -7816.47850740
  -Hartree energ DENC   =     -3969.61158142
  -exchange      EXHF   =         0.00000000
  -V(xc)+E(xc)   XCENC  =       180.68797192
  PAW double counting   =     10309.81379954   -34194.33479258
  entropy T*S    EENTRO =         0.00000000
  eigenvalues    EBANDS =        97.53493978
  atomic energy  EATOM  =     12339.77072949
  Solvation  Ediel_sol  =         0.00000000
  ---------------------------------------------------
  free energy    TOTEN  =    -22872.23653627 eV

  energy without entropy =   -22872.23653627  energy(sigma->0) =   -22872.23653627
  exchange ACFDT corr.  =         0.00000000  see jH, gK, PRB 81, 115126


--------------------------------------------------------------------------------------------------------




--------------------------------------- Iteration      1(   2)  ---------------------------------------


     EDDAV:  cpu time      1.6740: real time      1.6800
 BZINTS: Fermi energy:    1.853367;  200.000000 electrons
         Band energy:-0.155565E+04;  BLOECHL correction:    0.000000
       DOS:  cpu time      0.0032: real time      0.0033
    --------------------------------------------
      LOOP:  cpu time      1.6772: real time      1.6833

 eigenvalue-minimisations  :  1620
 total energy-change (2. order) :-0.1653182E+04  (-0.1534373E+04)
 number of electron     200.0000000 magnetization 
 augmentation part      200.0000000 magnetization 

 Free energy of the ion-electron system (eV)
  ---------------------------------------------------
  alpha Z        PSCENC =       180.38090441
  Ewald energy   TEWEN  =     -7816.47850740
  -Hartree energ DENC   =     -3969.61158142
  -exchange      EXHF   =         0.00000000
  -V(xc)+E(xc)   XCENC  =       180.68797192
  PAW double counting   =     10309.81379954   -34194.33479258
  entropy T*S    EENTRO =         0.00000000
  eigenvalues    EBANDS =     -1555.64699336
  atomic energy  EATOM  =     12339.77072949
  Solvation  Ediel_sol  =         0.00000000
  ---------------------------------------------------
  free energy    TOTEN  =    -24525.41846941 eV

  energy without entropy =   -24525.41846941  energy(sigma->0) =   -24525.41846941
  exchange ACFDT corr.  =         0.00000000  see jH, gK, PRB 81, 115126


--------------------------------------------------------------------------------------------------------




--------------------------------------- Iteration      1(   3)  ---------------------------------------


     EDDAV:  cpu time      1.9350: real time      1.9821
 BZINTS: Fermi energy:    0.115727;  200.000000 electrons
         Band energy:-0.180539E+04;  BLOECHL correction:    0.000000
       DOS:  cpu time      0.0042: real time      0.0044
    --------------------------------------------
      LOOP:  cpu time      1.9392: real time      1.9865

 eigenvalue-minimisations  :  1872
 total energy-change (2. order) :-0.2497425E+03  (-0.2454767E+03)
 number of electron     200.0000000 magnetization 
 augmentation part      200.0000000 magnetization 

 Free energy of the ion-electron system (eV)
  ---------------------------------------------------
  alpha Z        PSCENC =       180.38090441
  Ewald energy   TEWEN  =     -7816.47850740
  -Hartree energ DENC   =     -3969.61158142
  -exchange      EXHF   =         0.00000000
  -V(xc)+E(xc)   XCENC  =       180.68797192
  PAW double counting   =     10309.81379954   -34194.33479258
  entropy T*S    EENTRO =         0.00000000
  eigenvalues    EBANDS =     -1805.38951520
  atomic energy  EATOM  =     12339.77072949
  Solvation  Ediel_sol  =         0.00000000
  ---------------------------------------------------
  free energy    TOTEN  =    -24775.16099124 eV

  energy without entropy =   -24775.16099124  energy(sigma->0) =   -24775.16099124
  exchange ACFDT corr.  =         0.00000000  see jH, gK, PRB 81, 115126


--------------------------------------------------------------------------------------------------------




--------------------------------------- Iteration      1(   4)  ---------------------------------------


     EDDAV:  cpu time      2.0849: real time      2.1034
 BZINTS: Fermi energy:    0.024929;  200.000000 electrons
         Band energy:-0.182028E+04;  BLOECHL correction:    0.000000
       DOS:  cpu time      0.0041: real time      0.0041
    --------------------------------------------
      LOOP:  cpu time      2.0890: real time      2.1075

 eigenvalue-minimisations  :  2040
 total energy-change (2. order) :-0.1488705E+02  (-0.1483411E+02)
 number of electron     200.0000000 magnetization 
 augmentation part      200.0000000 magnetization 

 Free energy of the ion-electron system (eV)
  ---------------------------------------------------
  alpha Z        PSCENC =       180.38090441
  Ewald energy   TEWEN  =     -7816.47850740
  -Hartree energ DENC   =     -3969.61158142
  -exchange      EXHF   =         0.00000000
  -V(xc)+E(xc)   XCENC  =       180.68797192
  PAW double counting   =     10309.81379954   -34194.33479258
  entropy T*S    EENTRO =         0.00000000
  eigenvalues    EBANDS =     -1820.27656349
  atomic energy  EATOM  =     12339.77072949
  Solvation  Ediel_sol  =         0.00000000
  ---------------------------------------------------
  free energy    TOTEN  =    -24790.04803953 eV

  energy without entropy =   -24790.04803953  energy(sigma->0) =   -24790.04803953
  exchange ACFDT corr.  =         0.00000000  see jH, gK, PRB 81, 115126


--------------------------------------------------------------------------------------------------------




--------------------------------------- Iteration      1(   5)  ---------------------------------------


    POTLOK:  cpu time      0.1106: real time      0.1251
    SETDIJ:  cpu time      0.3531: real time      0.3541
     EDDAV:  cpu time     17.3858: real time     17.6005
 BZINTS: Fermi energy:    0.535178;  200.000000 electrons
         Band energy:-0.184734E+04;  BLOECHL correction:    0.000000
       DOS:  cpu time      0.0038: real time      0.0039
    CHARGE:  cpu time      0.0448: real time      0.0836
    MIXING:  cpu time      0.0004: real time      0.0004
    --------------------------------------------
      LOOP:  cpu time     17.8985: real time     18.1676

 eigenvalue-minimisations  :  1872
 total energy-change (2. order) : 0.2453617E+05  (-0.8279808E+01)
 number of electron     199.9999998 magnetization 
 augmentation part        4.0202278 magnetization 

 Free energy of the ion-electron system (eV)
  ---------------------------------------------------
  alpha Z        PSCENC =       180.38090441
  Ewald energy   TEWEN  =     -7816.47850740
  -Hartree energ DENC   =     -3969.61158142
  -exchange      EXHF   =       404.93602173
  -V(xc)+E(xc)   XCENC  =       126.38654513
  PAW double counting   =     10353.66149774   -10025.58857700
  entropy T*S    EENTRO =         0.00000000
  eigenvalues    EBANDS =     -1847.33756669
  atomic energy  EATOM  =     12339.77072949
  Solvation  Ediel_sol  =         0.00000000
  ---------------------------------------------------
  free energy    TOTEN  =      -253.88053400 eV

  energy without entropy =     -253.88053400  energy(sigma->0) =     -253.88053400
  exchange ACFDT corr.  =         0.00000000  see jH, gK, PRB 81, 115126


--------------------------------------------------------------------------------------------------------




--------------------------------------- Iteration      1(   6)  ---------------------------------------


    POTLOK:  cpu time      0.1051: real time      0.1211
    SETDIJ:  cpu time      0.3463: real time      0.3473
     EDDAV:  cpu time     17.5508: real time     17.6082
 BZINTS: Fermi energy:    0.688698;  200.000000 electrons
         Band energy:-0.173338E+04;  BLOECHL correction:    0.000000
       DOS:  cpu time      0.0040: real time      0.0040
    CHARGE:  cpu time      0.0468: real time      0.0469
    MIXING:  cpu time      0.0012: real time      0.0012
    --------------------------------------------
      LOOP:  cpu time     18.0543: real time     18.1289

 eigenvalue-minimisations  :  1884
 total energy-change (2. order) : 0.1303055E+02  (-0.1922999E+01)
 number of electron     199.9999997 magnetization 
 augmentation part        4.5594691 magnetization 

 Free energy of the ion-electron system (eV)
  ---------------------------------------------------
  alpha Z        PSCENC =       180.38090441
  Ewald energy   TEWEN  =     -7816.47850740
  -Hartree energ DENC   =     -4073.55000721
  -exchange      EXHF   =       398.33118434
  -V(xc)+E(xc)   XCENC  =       132.59571204
  PAW double counting   =     12316.88099003   -11985.40144220
  entropy T*S    EENTRO =         0.00000000
  eigenvalues    EBANDS =     -1733.37954341
  atomic energy  EATOM  =     12339.77072949
  Solvation  Ediel_sol  =         0.00000000
  ---------------------------------------------------
  free energy    TOTEN  =      -240.84997990 eV

  energy without entropy =     -240.84997990  energy(sigma->0) =     -240.84997990
  exchange ACFDT corr.  =         0.00000000  see jH, gK, PRB 81, 115126


--------------------------------------------------------------------------------------------------------




--------------------------------------- Iteration      1(   7)  ---------------------------------------


    POTLOK:  cpu time      0.1085: real time      0.1276
    SETDIJ:  cpu time      0.3538: real time      0.3546
     EDDAV:  cpu time     17.8983: real time     17.9570
 BZINTS: Fermi energy:    0.722995;  200.000000 electrons
         Band energy:-0.169650E+04;  BLOECHL correction:    0.000000
       DOS:  cpu time      0.0040: real time      0.0041
    CHARGE:  cpu time      0.0438: real time      0.0439
    MIXING:  cpu time      0.0004: real time      0.0004
    --------------------------------------------
      LOOP:  cpu time     18.4086: real time     18.4875

 eigenvalue-minimisations  :  1968
 total energy-change (2. order) : 0.9153174E+00  (-0.7031315E+00)
 number of electron     199.9999996 magnetization 
 augmentation part        4.7758300 magnetization 

 Free energy of the ion-electron system (eV)
  ---------------------------------------------------
  alpha Z        PSCENC =       180.38090441
  Ewald energy   TEWEN  =     -7816.47850740
  -Hartree energ DENC   =     -4106.32155789
  -exchange      EXHF   =       390.68486558
  -V(xc)+E(xc)   XCENC  =       135.49140727
  PAW double counting   =     13992.09405181   -13659.05187421
  entropy T*S    EENTRO =         0.00000000
  eigenvalues    EBANDS =     -1696.50468153
  atomic energy  EATOM  =     12339.77072949
  Solvation  Ediel_sol  =         0.00000000
  ---------------------------------------------------
  free energy    TOTEN  =      -239.93466247 eV

  energy without entropy =     -239.93466247  energy(sigma->0) =     -239.93466247
  exchange ACFDT corr.  =         0.00000000  see jH, gK, PRB 81, 115126


--------------------------------------------------------------------------------------------------------




--------------------------------------- Iteration      1(   8)  ---------------------------------------


    POTLOK:  cpu time      0.1049: real time      0.1251
    SETDIJ:  cpu time      0.3454: real time      0.3462
     EDDAV:  cpu time     17.8902: real time     17.9491
 BZINTS: Fermi energy:    0.750934;  200.000000 electrons
         Band energy:-0.168920E+04;  BLOECHL correction:    0.000000
       DOS:  cpu time      0.0048: real time      0.0048
    CHARGE:  cpu time      0.0539: real time      0.0541
    MIXING:  cpu time      0.0006: real time      0.0006
    --------------------------------------------
      LOOP:  cpu time     18.3999: real time     18.4799

 eigenvalue-minimisations  :  1980
 total energy-change (2. order) : 0.2583608E+00  (-0.5863583E-01)
 number of electron     199.9999995 magnetization 
 augmentation part        4.7998197 magnetization 

 Free energy of the ion-electron system (eV)
  ---------------------------------------------------
  alpha Z        PSCENC =       180.38090441
  Ewald energy   TEWEN  =     -7816.47850740
  -Hartree energ DENC   =     -4111.66389604
  -exchange      EXHF   =       387.28703850
  -V(xc)+E(xc)   XCENC  =       136.75341292
  PAW double counting   =     15380.68842233   -15047.21584791
  entropy T*S    EENTRO =         0.00000000
  eigenvalues    EBANDS =     -1689.19855798
  atomic energy  EATOM  =     12339.77072949
  Solvation  Ediel_sol  =         0.00000000
  ---------------------------------------------------
  free energy    TOTEN  =      -239.67630168 eV

  energy without entropy =     -239.67630168  energy(sigma->0) =     -239.67630168
  exchange ACFDT corr.  =         0.00000000  see jH, gK, PRB 81, 115126


--------------------------------------------------------------------------------------------------------




--------------------------------------- Iteration      1(   9)  ---------------------------------------


    POTLOK:  cpu time      0.1329: real time      0.1495
    SETDIJ:  cpu time      0.3481: real time      0.3489
     EDDAV:  cpu time     18.1478: real time     18.2155
 BZINTS: Fermi energy:    0.760551;  200.000000 electrons
         Band energy:-0.168737E+04;  BLOECHL correction:    0.000000
       DOS:  cpu time      0.0035: real time      0.0036
    CHARGE:  cpu time      0.0446: real time      0.0447
    MIXING:  cpu time      0.0006: real time      0.0006
    --------------------------------------------
      LOOP:  cpu time     18.6774: real time     18.7628

 eigenvalue-minimisations  :  1860
 total energy-change (2. order) : 0.1493291E+00  (-0.1441645E-01)
 number of electron     199.9999995 magnetization 
 augmentation part        4.7892932 magnetization 

 Free energy of the ion-electron system (eV)
  ---------------------------------------------------
  alpha Z        PSCENC =       180.38090441
  Ewald energy   TEWEN  =     -7816.47850740
  -Hartree energ DENC   =     -4113.42034966
  -exchange      EXHF   =       386.57766197
  -V(xc)+E(xc)   XCENC  =       137.46512910
  PAW double counting   =     16310.40800232   -15976.86002060
  entropy T*S    EENTRO =         0.00000000
  eigenvalues    EBANDS =     -1687.37052220
  atomic energy  EATOM  =     12339.77072949
  Solvation  Ediel_sol  =         0.00000000
  ---------------------------------------------------
  free energy    TOTEN  =      -239.52697257 eV

  energy without entropy =     -239.52697257  energy(sigma->0) =     -239.52697257
  exchange ACFDT corr.  =         0.00000000  see jH, gK, PRB 81, 115126


--------------------------------------------------------------------------------------------------------




--------------------------------------- Iteration      1(  10)  ---------------------------------------


    POTLOK:  cpu time      0.1065: real time      0.1215
    SETDIJ:  cpu time      0.3465: real time      0.3475
     EDDAV:  cpu time     17.5629: real time     17.6206
 BZINTS: Fermi energy:    0.750758;  200.000000 electrons
         Band energy:-0.168545E+04;  BLOECHL correction:    0.000000
       DOS:  cpu time      0.0034: real time      0.0034
    CHARGE:  cpu time      0.0429: real time      0.0430
    MIXING:  cpu time      0.0004: real time      0.0004
    --------------------------------------------
      LOOP:  cpu time     18.0626: real time     18.1364

 eigenvalue-minimisations  :  1788
 total energy-change (2. order) : 0.3916290E-01  (-0.4712688E-02)
 number of electron     199.9999994 magnetization 
 augmentation part        4.7686837 magnetization 

 Free energy of the ion-electron system (eV)
  ---------------------------------------------------
  alpha Z        PSCENC =       180.38090441
  Ewald energy   TEWEN  =     -7816.47850740
  -Hartree energ DENC   =     -4115.70980198
  -exchange      EXHF   =       386.54959553
  -V(xc)+E(xc)   XCENC  =       137.94153918
  PAW double counting   =     16865.76516253   -16532.25982023
  entropy T*S    EENTRO =         0.00000000
  eigenvalues    EBANDS =     -1685.44761121
  atomic energy  EATOM  =     12339.77072949
  Solvation  Ediel_sol  =         0.00000000
  ---------------------------------------------------
  free energy    TOTEN  =      -239.48780967 eV

  energy without entropy =     -239.48780967  energy(sigma->0) =     -239.48780967
  exchange ACFDT corr.  =         0.00000000  see jH, gK, PRB 81, 115126


--------------------------------------------------------------------------------------------------------




--------------------------------------- Iteration      1(  11)  ---------------------------------------


    POTLOK:  cpu time      0.1061: real time      0.1220
    SETDIJ:  cpu time      0.3480: real time      0.3490
     EDDAV:  cpu time     18.4245: real time     18.4881
 BZINTS: Fermi energy:    0.739962;  200.000000 electrons
         Band energy:-0.168358E+04;  BLOECHL correction:    0.000000
       DOS:  cpu time      0.0043: real time      0.0043
    CHARGE:  cpu time      0.0445: real time      0.0446
    MIXING:  cpu time      0.0010: real time      0.0010
    --------------------------------------------
      LOOP:  cpu time     18.9284: real time     19.0089

 eigenvalue-minimisations  :  1740
 total energy-change (2. order) : 0.9014978E-02  (-0.1214960E-02)
 number of electron     199.9999994 magnetization 
 augmentation part        4.7542123 magnetization 

 Free energy of the ion-electron system (eV)
  ---------------------------------------------------
  alpha Z        PSCENC =       180.38090441
  Ewald energy   TEWEN  =     -7816.47850740
  -Hartree energ DENC   =     -4117.82869825
  -exchange      EXHF   =       386.55729688
  -V(xc)+E(xc)   XCENC  =       138.25335801
  PAW double counting   =     17184.44765352   -16851.00231153
  entropy T*S    EENTRO =         0.00000000
  eigenvalues    EBANDS =     -1683.57921982
  atomic energy  EATOM  =     12339.77072949
  Solvation  Ediel_sol  =         0.00000000
  ---------------------------------------------------
  free energy    TOTEN  =      -239.47879470 eV

  energy without entropy =     -239.47879470  energy(sigma->0) =     -239.47879470
  exchange ACFDT corr.  =         0.00000000  see jH, gK, PRB 81, 115126


--------------------------------------------------------------------------------------------------------




--------------------------------------- Iteration      1(  12)  ---------------------------------------


    POTLOK:  cpu time      0.1037: real time      0.1210
    SETDIJ:  cpu time      0.3491: real time      0.3501
     EDDAV:  cpu time     17.5561: real time     17.6137
 BZINTS: Fermi energy:    0.745112;  200.000000 electrons
         Band energy:-0.168223E+04;  BLOECHL correction:    0.000000
       DOS:  cpu time      0.0041: real time      0.0041
    CHARGE:  cpu time      0.0441: real time      0.0442
    MIXING:  cpu time      0.0004: real time      0.0004
    --------------------------------------------
      LOOP:  cpu time     18.0575: real time     18.1335

 eigenvalue-minimisations  :  1788
 total energy-change (2. order) : 0.1755403E-02  (-0.3515005E-03)
 number of electron     199.9999994 magnetization 
 augmentation part        4.7456279 magnetization 

 Free energy of the ion-electron system (eV)
  ---------------------------------------------------
  alpha Z        PSCENC =       180.38090441
  Ewald energy   TEWEN  =     -7816.47850740
  -Hartree energ DENC   =     -4119.29164793
  -exchange      EXHF   =       386.53356249
  -V(xc)+E(xc)   XCENC  =       138.44657596
  PAW double counting   =     17360.01708913   -17026.62470095
  entropy T*S    EENTRO =         0.00000000
  eigenvalues    EBANDS =     -1682.23104449
  atomic energy  EATOM  =     12339.77072949
  Solvation  Ediel_sol  =         0.00000000
  ---------------------------------------------------
  free energy    TOTEN  =      -239.47703929 eV

  energy without entropy =     -239.47703929  energy(sigma->0) =     -239.47703929
  exchange ACFDT corr.  =         0.00000000  see jH, gK, PRB 81, 115126


--------------------------------------------------------------------------------------------------------




--------------------------------------- Iteration      1(  13)  ---------------------------------------


    POTLOK:  cpu time      0.1051: real time      0.1232
    SETDIJ:  cpu time      0.3478: real time      0.3486
     EDDAV:  cpu time     18.2205: real time     18.2799
 BZINTS: Fermi energy:    0.753088;  200.000000 electrons
         Band energy:-0.168140E+04;  BLOECHL correction:    0.000000
       DOS:  cpu time      0.0033: real time      0.0034
    CHARGE:  cpu time      0.0423: real time      0.0424
    MIXING:  cpu time      0.0007: real time      0.0007
    --------------------------------------------
      LOOP:  cpu time     18.7196: real time     18.7982

 eigenvalue-minimisations  :  1740
 total energy-change (2. order) :-0.2733786E-04  (-0.1221976E-03)
 number of electron     199.9999994 magnetization 
 augmentation part        4.7414159 magnetization 

 Free energy of the ion-electron system (eV)
  ---------------------------------------------------
  alpha Z        PSCENC =       180.38090441
  Ewald energy   TEWEN  =     -7816.47850740
  -Hartree energ DENC   =     -4120.16584471
  -exchange      EXHF   =       386.50294554
  -V(xc)+E(xc)   XCENC  =       138.56184062
  PAW double counting   =     17454.36176178   -17121.01033927
  entropy T*S    EENTRO =         0.00000000
  eigenvalues    EBANDS =     -1681.40055710
  atomic energy  EATOM  =     12339.77072949
  Solvation  Ediel_sol  =         0.00000000
  ---------------------------------------------------
  free energy    TOTEN  =      -239.47706663 eV

  energy without entropy =     -239.47706663  energy(sigma->0) =     -239.47706663
  exchange ACFDT corr.  =         0.00000000  see jH, gK, PRB 81, 115126


--------------------------------------------------------------------------------------------------------




--------------------------------------- Iteration      1(  14)  ---------------------------------------


    POTLOK:  cpu time      0.1038: real time      0.1184
    SETDIJ:  cpu time      0.3485: real time      0.3495
     EDDAV:  cpu time     17.5283: real time     17.5773
 BZINTS: Fermi energy:    0.742659;  200.000000 electrons
         Band energy:-0.168092E+04;  BLOECHL correction:    0.000000
[...]
   34.949997    0.841225    0.840263    0.830033    0.000000   -0.000000   -0.000000
   34.976197    0.841518    0.840551    0.830340    0.000000   -0.000000   -0.000000
   35.002396    0.841809    0.840839    0.830646    0.000000   -0.000000   -0.000000
   35.028596    0.842100    0.841126    0.830950    0.000000   -0.000000   -0.000000
   35.054795    0.842390    0.841412    0.831254    0.000000   -0.000000   -0.000000
   35.080994    0.842678    0.841696    0.831557    0.000000   -0.000000   -0.000000
   35.107194    0.842966    0.841980    0.831858    0.000000   -0.000000   -0.000000
   35.133393    0.843252    0.842263    0.832159    0.000000   -0.000000   -0.000000
   35.159593    0.843538    0.842545    0.832458    0.000000   -0.000000   -0.000000
   35.185792    0.843823    0.842827    0.832757    0.000000   -0.000000   -0.000000
   35.211991    0.844106    0.843107    0.833054    0.000000   -0.000000   -0.000000
   35.238191    0.844389    0.843386    0.833351    0.000000   -0.000000   -0.000000
   35.264390    0.844670    0.843665    0.833646    0.000000   -0.000000   -0.000000
   35.290590    0.844951    0.843942    0.833940    0.000000   -0.000000   -0.000000
   35.316789    0.845230    0.844219    0.834234    0.000000   -0.000000   -0.000000
   35.342988    0.845509    0.844495    0.834526    0.000000   -0.000000   -0.000000
   35.369188    0.845787    0.844770    0.834818    0.000000   -0.000000   -0.000000
   35.395387    0.846064    0.845044    0.835109    0.000000   -0.000000   -0.000000
   35.421587    0.846340    0.845317    0.835398    0.000000   -0.000000   -0.000000
   35.447786    0.846614    0.845589    0.835687    0.000000   -0.000000   -0.000000
   35.473985    0.846888    0.845861    0.835975    0.000000   -0.000000   -0.000000
   35.500185    0.847162    0.846132    0.836262    0.000000   -0.000000   -0.000000
   35.526384    0.847434    0.846401    0.836547    0.000000   -0.000000   -0.000000
   35.552584    0.847705    0.846670    0.836833    0.000000   -0.000000   -0.000000
   35.578783    0.847976    0.846939    0.837117    0.000000   -0.000000   -0.000000
   35.604982    0.848245    0.847206    0.837400    0.000000   -0.000000   -0.000000
   35.631182    0.848514    0.847472    0.837682    0.000000   -0.000000   -0.000000
   35.657381    0.848782    0.847738    0.837964    0.000000   -0.000000   -0.000000
   35.683581    0.849048    0.848003    0.838244    0.000000   -0.000000   -0.000000
   35.709780    0.849315    0.848267    0.838524    0.000000   -0.000000   -0.000000
   35.735979    0.849580    0.848530    0.838803    0.000000   -0.000000   -0.000000
   35.762179    0.849844    0.848793    0.839081    0.000000   -0.000000   -0.000000
   35.788378    0.850108    0.849055    0.839358    0.000000   -0.000000   -0.000000
   35.814578    0.850370    0.849316    0.839634    0.000000   -0.000000   -0.000000
   35.840777    0.850632    0.849576    0.839909    0.000000   -0.000000   -0.000000
   35.866976    0.850893    0.849835    0.840184    0.000000   -0.000000   -0.000000
   35.893176    0.851153    0.850094    0.840458    0.000000   -0.000000   -0.000000
   35.919375    0.851413    0.850352    0.840730    0.000000   -0.000000   -0.000000
   35.945574    0.851671    0.850609    0.841002    0.000000   -0.000000   -0.000000
   35.971774    0.851929    0.850865    0.841274    0.000000   -0.000000   -0.000000
   35.997973    0.852186    0.851121    0.841544    0.000000   -0.000000   -0.000000
   36.024173    0.852442    0.851375    0.841814    0.000000   -0.000000   -0.000000
   36.050372    0.852698    0.851629    0.842083    0.000000   -0.000000   -0.000000
   36.076571    0.852952    0.851883    0.842351    0.000000   -0.000000   -0.000000
   36.102771    0.853206    0.852135    0.842618    0.000000   -0.000000   -0.000000
   36.128970    0.853459    0.852387    0.842884    0.000000   -0.000000   -0.000000
   36.155170    0.853712    0.852638    0.843150    0.000000   -0.000000   -0.000000
   36.181369    0.853963    0.852889    0.843415    0.000000   -0.000000   -0.000000
   36.207568    0.854214    0.853138    0.843679    0.000000   -0.000000   -0.000000
   36.233768    0.854464    0.853387    0.843942    0.000000   -0.000000   -0.000000
   36.259967    0.854713    0.853635    0.844205    0.000000   -0.000000   -0.000000
   36.286167    0.854962    0.853883    0.844466    0.000000   -0.000000   -0.000000
   36.312366    0.855209    0.854130    0.844727    0.000000   -0.000000   -0.000000
   36.338565    0.855456    0.854376    0.844988    0.000000   -0.000000   -0.000000
   36.364765    0.855703    0.854621    0.845247    0.000000   -0.000000   -0.000000
   36.390964    0.855948    0.854866    0.845506    0.000000   -0.000000   -0.000000
   36.417164    0.856193    0.855110    0.845764    0.000000   -0.000000   -0.000000
   36.443363    0.856437    0.855353    0.846021    0.000000   -0.000000   -0.000000
   36.469562    0.856681    0.855596    0.846278    0.000000   -0.000000   -0.000000
   36.495762    0.856923    0.855837    0.846534    0.000000   -0.000000   -0.000000
   36.521961    0.857165    0.856079    0.846789    0.000000   -0.000000   -0.000000
   36.548161    0.857406    0.856319    0.847043    0.000000   -0.000000   -0.000000
   36.574360    0.857647    0.856559    0.847297    0.000000   -0.000000   -0.000000
   36.600559    0.857887    0.856798    0.847549    0.000000   -0.000000   -0.000000
   36.626759    0.858126    0.857037    0.847802    0.000000   -0.000000   -0.000000
   36.652958    0.858364    0.857275    0.848053    0.000000   -0.000000   -0.000000
   36.679158    0.858602    0.857512    0.848304    0.000000   -0.000000   -0.000000
   36.705357    0.858839    0.857748    0.848554    0.000000   -0.000000   -0.000000
   36.731556    0.859076    0.857984    0.848803    0.000000   -0.000000   -0.000000
   36.757756    0.859311    0.858219    0.849052    0.000000   -0.000000   -0.000000
   36.783955    0.859546    0.858454    0.849300    0.000000   -0.000000   -0.000000
   36.810155    0.859781    0.858688    0.849547    0.000000   -0.000000   -0.000000
   36.836354    0.860014    0.858921    0.849794    0.000000   -0.000000   -0.000000
   36.862553    0.860247    0.859154    0.850040    0.000000   -0.000000   -0.000000
   36.888753    0.860480    0.859386    0.850285    0.000000   -0.000000   -0.000000
   36.914952    0.860712    0.859617    0.850530    0.000000   -0.000000   -0.000000
   36.941152    0.860943    0.859848    0.850774    0.000000   -0.000000   -0.000000
   36.967351    0.861173    0.860078    0.851017    0.000000   -0.000000   -0.000000
   36.993550    0.861403    0.860307    0.851259    0.000000   -0.000000   -0.000000
   37.019750    0.861632    0.860536    0.851501    0.000000   -0.000000   -0.000000
   37.045949    0.861860    0.860764    0.851742    0.000000   -0.000000   -0.000000
   37.072149    0.862088    0.860992    0.851983    0.000000   -0.000000   -0.000000
   37.098348    0.862315    0.861219    0.852223    0.000000   -0.000000   -0.000000
   37.124547    0.862542    0.861445    0.852462    0.000000   -0.000000   -0.000000
   37.150747    0.862768    0.861671    0.852701    0.000000   -0.000000   -0.000000
   37.176946    0.862993    0.861896    0.852939    0.000000   -0.000000   -0.000000
   37.203146    0.863218    0.862120    0.853176    0.000000   -0.000000   -0.000000
   37.229345    0.863442    0.862344    0.853413    0.000000   -0.000000   -0.000000
   37.255544    0.863665    0.862568    0.853649    0.000000   -0.000000   -0.000000
   37.281744    0.863888    0.862790    0.853884    0.000000   -0.000000   -0.000000
   37.307943    0.864110    0.863012    0.854119    0.000000   -0.000000   -0.000000
   37.334143    0.864332    0.863234    0.854353    0.000000   -0.000000   -0.000000
   37.360342    0.864553    0.863455    0.854587    0.000000   -0.000000   -0.000000
   37.386541    0.864773    0.863675    0.854820    0.000000   -0.000000   -0.000000
   37.412741    0.864993    0.863895    0.855052    0.000000   -0.000000   -0.000000
   37.438940    0.865212    0.864114    0.855284    0.000000   -0.000000   -0.000000
   37.465140    0.865431    0.864333    0.855515    0.000000   -0.000000   -0.000000
   37.491339    0.865649    0.864551    0.855745    0.000000   -0.000000   -0.000000
   37.517538    0.865866    0.864768    0.855975    0.000000   -0.000000   -0.000000
   37.543738    0.866083    0.864985    0.856204    0.000000   -0.000000   -0.000000
   37.569937    0.866299    0.865201    0.856433    0.000000   -0.000000   -0.000000
   37.596137    0.866515    0.865417    0.856661    0.000000   -0.000000   -0.000000
   37.622336    0.866730    0.865632    0.856888    0.000000   -0.000000   -0.000000
   37.648535    0.866944    0.865846    0.857115    0.000000   -0.000000   -0.000000
   37.674735    0.867158    0.866060    0.857341    0.000000   -0.000000   -0.000000
   37.700934    0.867372    0.866274    0.857567    0.000000   -0.000000   -0.000000
   37.727134    0.867584    0.866487    0.857792    0.000000   -0.000000   -0.000000
   37.753333    0.867797    0.866699    0.858017    0.000000   -0.000000   -0.000000
   37.779532    0.868008    0.866911    0.858240    0.000000   -0.000000   -0.000000
   37.805732    0.868219    0.867122    0.858464    0.000000   -0.000000   -0.000000
   37.831931    0.868430    0.867333    0.858686    0.000000   -0.000000   -0.000000
   37.858131    0.868640    0.867543    0.858909    0.000000   -0.000000   -0.000000
   37.884330    0.868849    0.867752    0.859130    0.000000   -0.000000   -0.000000
   37.910529    0.869058    0.867961    0.859351    0.000000   -0.000000   -0.000000
   37.936729    0.869266    0.868170    0.859572    0.000000   -0.000000   -0.000000
   37.962928    0.869474    0.868378    0.859792    0.000000   -0.000000   -0.000000
   37.989128    0.869681    0.868585    0.860011    0.000000   -0.000000   -0.000000
   38.015327    0.869888    0.868792    0.860230    0.000000   -0.000000   -0.000000
   38.041526    0.870094    0.868999    0.860448    0.000000   -0.000000   -0.000000
   38.067726    0.870299    0.869204    0.860665    0.000000   -0.000000   -0.000000
   38.093925    0.870504    0.869410    0.860882    0.000000   -0.000000   -0.000000
   38.120125    0.870709    0.869614    0.861099    0.000000   -0.000000   -0.000000
   38.146324    0.870913    0.869819    0.861315    0.000000   -0.000000   -0.000000
   38.172523    0.871116    0.870022    0.861530    0.000000   -0.000000   -0.000000
   38.198723    0.871319    0.870226    0.861745    0.000000   -0.000000   -0.000000
   38.224922    0.871522    0.870428    0.861959    0.000000   -0.000000   -0.000000
   38.251122    0.871723    0.870630    0.862173    0.000000   -0.000000   -0.000000
   38.277321    0.871925    0.870832    0.862387    0.000000   -0.000000   -0.000000
   38.303520    0.872126    0.871033    0.862599    0.000000   -0.000000   -0.000000
   38.329720    0.872326    0.871234    0.862811    0.000000   -0.000000   -0.000000
   38.355919    0.872526    0.871434    0.863023    0.000000   -0.000000   -0.000000
   38.382119    0.872725    0.871634    0.863234    0.000000   -0.000000   -0.000000
   38.408318    0.872924    0.871833    0.863445    0.000000   -0.000000   -0.000000
   38.434517    0.873122    0.872031    0.863655    0.000000   -0.000000   -0.000000
   38.460717    0.873320    0.872230    0.863864    0.000000   -0.000000   -0.000000
   38.486916    0.873517    0.872427    0.864073    0.000000   -0.000000   -0.000000
   38.513116    0.873714    0.872624    0.864282    0.000000   -0.000000   -0.000000
   38.539315    0.873910    0.872821    0.864490    0.000000   -0.000000   -0.000000
   38.565514    0.874105    0.873017    0.864697    0.000000   -0.000000   -0.000000
   38.591714    0.874301    0.873213    0.864904    0.000000   -0.000000   -0.000000
   38.617913    0.874495    0.873408    0.865110    0.000000   -0.000000   -0.000000
   38.644113    0.874690    0.873603    0.865316    0.000000   -0.000000   -0.000000
   38.670312    0.874883    0.873797    0.865522    0.000000   -0.000000   -0.000000
   38.696511    0.875077    0.873990    0.865726    0.000000   -0.000000   -0.000000
   38.722711    0.875269    0.874184    0.865931    0.000000   -0.000000   -0.000000
   38.748910    0.875462    0.874376    0.866135    0.000000   -0.000000   -0.000000
   38.775110    0.875653    0.874569    0.866338    0.000000   -0.000000   -0.000000
   38.801309    0.875845    0.874760    0.866541    0.000000   -0.000000   -0.000000
   38.827508    0.876036    0.874952    0.866743    0.000000   -0.000000   -0.000000
   38.853708    0.876226    0.875143    0.866945    0.000000   -0.000000   -0.000000
   38.879907    0.876416    0.875333    0.867146    0.000000   -0.000000   -0.000000
   38.906107    0.876605    0.875523    0.867347    0.000000   -0.000000   -0.000000
   38.932306    0.876794    0.875712    0.867548    0.000000   -0.000000   -0.000000
   38.958505    0.876982    0.875901    0.867748    0.000000   -0.000000   -0.000000
   38.984705    0.877170    0.876090    0.867947    0.000000   -0.000000   -0.000000
   39.010904    0.877358    0.876278    0.868146    0.000000   -0.000000   -0.000000
   39.037104    0.877545    0.876465    0.868344    0.000000   -0.000000   -0.000000
   39.063303    0.877732    0.876653    0.868542    0.000000   -0.000000   -0.000000
   39.089502    0.877918    0.876839    0.868740    0.000000   -0.000000   -0.000000
   39.115702    0.878103    0.877025    0.868937    0.000000   -0.000000   -0.000000
   39.141901    0.878289    0.877211    0.869133    0.000000   -0.000000   -0.000000
   39.168100    0.878473    0.877397    0.869329    0.000000   -0.000000   -0.000000
   39.194300    0.878658    0.877581    0.869525    0.000000   -0.000000   -0.000000
   39.220499    0.878841    0.877766    0.869720    0.000000   -0.000000   -0.000000
   39.246699    0.879025    0.877950    0.869915    0.000000   -0.000000   -0.000000
   39.272898    0.879208    0.878133    0.870109    0.000000   -0.000000   -0.000000
   39.299097    0.879390    0.878316    0.870302    0.000000   -0.000000   -0.000000
   39.325297    0.879572    0.878499    0.870496    0.000000   -0.000000   -0.000000
   39.351496    0.879754    0.878681    0.870688    0.000000   -0.000000   -0.000000
   39.377696    0.879935    0.878863    0.870881    0.000000   -0.000000   -0.000000
   39.403895    0.880116    0.879044    0.871073    0.000000   -0.000000   -0.000000
   39.430094    0.880296    0.879225    0.871264    0.000000   -0.000000   -0.000000
   39.456294    0.880476    0.879406    0.871455    0.000000   -0.000000   -0.000000
   39.482493    0.880655    0.879586    0.871645    0.000000   -0.000000   -0.000000
   39.508693    0.880834    0.879765    0.871835    0.000000   -0.000000   -0.000000
   39.534892    0.881013    0.879944    0.872025    0.000000   -0.000000   -0.000000
   39.561091    0.881191    0.880123    0.872214    0.000000   -0.000000   -0.000000
   39.587291    0.881368    0.880301    0.872403    0.000000   -0.000000   -0.000000
   39.613490    0.881546    0.880479    0.872591    0.000000   -0.000000   -0.000000
   39.639690    0.881722    0.880657    0.872779    0.000000   -0.000000   -0.000000
   39.665889    0.881899    0.880834    0.872966    0.000000   -0.000000   -0.000000
   39.692088    0.882075    0.881010    0.873153    0.000000   -0.000000   -0.000000
   39.718288    0.882250    0.881187    0.873339    0.000000   -0.000000   -0.000000
   39.744487    0.882425    0.881362    0.873525    0.000000   -0.000000   -0.000000
   39.770687    0.882600    0.881538    0.873711    0.000000   -0.000000   -0.000000
   39.796886    0.882774    0.881713    0.873896    0.000000   -0.000000   -0.000000
   39.823085    0.882948    0.881887    0.874081    0.000000   -0.000000   -0.000000
   39.849285    0.883122    0.882061    0.874265    0.000000   -0.000000   -0.000000
   39.875484    0.883295    0.882235    0.874449    0.000000   -0.000000   -0.000000
   39.901684    0.883467    0.882408    0.874632    0.000000   -0.000000   -0.000000
 
 The outermost node in the dielectric function lies at epsilon=  18.6


--------------------------------------------------------------------------------------------------------


    OPTICS:  cpu time      7.2291: real time      7.2509
    4ORBIT:  cpu time      0.0000: real time      0.0000



 total charge

# of ion       s       p       d       tot
------------------------------------------
    1        0.639   0.050   0.000   0.688
    2        0.639   0.050   0.000   0.688
    3        0.639   0.050   0.000   0.688
    4        0.639   0.050   0.000   0.688
    5        0.639   0.050   0.000   0.688
    6        0.639   0.050   0.000   0.688
    7        0.639   0.050   0.000   0.688
    8        0.639   0.050   0.000   0.688
    9        0.613   0.083   0.000   0.696
   10        0.613   0.083   0.000   0.696
   11        0.613   0.083   0.000   0.696
   12        0.613   0.083   0.000   0.696
   13        0.613   0.083   0.000   0.696
   14        0.613   0.083   0.000   0.696
   15        0.613   0.083   0.000   0.696
   16        0.613   0.083   0.000   0.696
   17        0.639   0.050   0.000   0.689
   18        0.639   0.050   0.000   0.689
   19        0.639   0.050   0.000   0.689
   20        0.639   0.050   0.000   0.689
   21        0.607   0.084   0.000   0.690
   22        0.607   0.084   0.000   0.690
   23        0.607   0.084   0.000   0.690
   24        0.607   0.084   0.000   0.690
   25        1.534   0.406   9.844  11.783
   26        1.534   0.406   9.844  11.783
   27        1.534   0.406   9.844  11.783
   28        1.534   0.406   9.844  11.783
   29        0.845   1.761   0.000   2.606
   30        0.845   1.761   0.000   2.606
   31        0.845   1.761   0.000   2.606
   32        0.845   1.761   0.000   2.606
   33        1.502   2.881   0.005   4.388
   34        1.502   2.881   0.005   4.388
   35        1.502   2.881   0.005   4.388
   36        1.502   2.881   0.005   4.388
   37        1.502   2.881   0.005   4.388
   38        1.502   2.881   0.005   4.388
   39        1.502   2.881   0.005   4.388
   40        1.502   2.881   0.005   4.388
   41        1.498   2.908   0.005   4.411
   42        1.498   2.908   0.005   4.411
   43        1.498   2.908   0.005   4.411
   44        1.498   2.908   0.005   4.411
   45        1.223   2.777   0.000   3.999
   46        1.223   2.777   0.000   3.999
   47        1.223   2.777   0.000   3.999
   48        1.223   2.777   0.000   3.999
--------------------------------------------------
tot         47.410  56.049  39.436 142.894
 
 BZINTS: Fermi energy:    0.762347;  200.000000 electrons
         Band energy:-0.168017E+04;  BLOECHL correction:    0.000000

 total amount of memory used by VASP MPI-rank0    96935. kBytes
=======================================================================

   base      :      30000. kBytes
   nonl-proj :      15102. kBytes
   fftplans  :       4806. kBytes
   grid      :       8345. kBytes
   one-center:         77. kBytes
   HF        :        194. kBytes
   nonlr-proj:       6117. kBytes
   wavefun   :       4032. kBytes
   fock_wrk  :      28262. kBytes
 
  
  
 General timing and accounting informations for this job:
 ========================================================
  
                  Total CPU time used (sec):      505.214
                            User time (sec):      446.898
                          System time (sec):       58.315
                         Elapsed time (sec):      517.003
  
                   Maximum memory used (kb):      416748.
                   Average memory used (kb):          N/A
  
                          Minor page faults:       251050
                          Major page faults:            0
                 Voluntary context switches:        12483
