<?xml version="1.0" encoding="ISO-8859-1"?>
<modeling>
 <generator>
  <i name="program" type="string">vasp </i>
  <i name="version" type="string">6.4.2  </i>
  <i name="subversion" type="string">20Jul23 (build Mar 15 2024 16:31:38) complex                          parallel </i>
  <i name="platform" type="string">LinuxIFC </i>
  <i name="date" type="string">2025 03 19 </i>
  <i name="time" type="string">13:25:06 </i>
 </generator>
 <incar>
  <i type="string" name="PREC">Accurate</i>
  <i type="string" name="ALGO">Normal</i>
  <i type="int" name="ISPIN">     2</i>
  <i type="int" name="NELM">   200</i>
  <i name="EDIFF">      0.00001000</i>
  <i type="int" name="NSW">     0</i>
  <i name="ENCUT">    680.00000000</i>
  <i name="ENAUG">   1360.00000000</i>
  <v name="MAGMOM">      0.60000000      0.60000000      0.60000000      0.60000000      0.60000000      0.60000000      0.60000000      0.60000000</v>
  <i type="logical" name="LREAL"> F  </i>
  <i type="int" name="ISMEAR">    -5</i>
  <i name="SIGMA">      0.20000000</i>
  <i type="int" name="LMAXMIX">     4</i>
  <i type="logical" name="LWAVE"> T  </i>
  <i type="logical" name="LCHARG"> T  </i>
  <i type="logical" name="LVTOT"> T  </i>
  <i type="int" name="LORBIT">    11</i>
  <i type="logical" name="LELF"> F  </i>
  <i type="logical" name="LASPH"> T  </i>
  <i type="logical" name="LAECHG"> T  </i>
  <i name="HFSCREEN">      0.20000000</i>
  <i type="logical" name="LHFCALC"> T  </i>
  <i type="string" name="GGA">Pe</i>
  <i type="string" name="PRECFOCK">Fast</i>
  <i type="logical" name="LDAU"> F  </i>
  <i type="logical" name="LMIXTAU"> T  </i>
 </incar>
 <primitive_cell>
  <structure name="primitive_cell" >
   <crystal>
    <varray name="basis" >
     <v>       5.30291920       0.00000000      -2.36402939 </v>
     <v>      -1.05387957       5.19714218      -2.36402972 </v>
     <v>       0.00000000       0.00000000       7.12968660 </v>
    </varray>
    <i name="volume">    196.49434127 </i>
    <varray name="rec_basis" >
     <v>       0.18857538       0.03823943       0.00000000 </v>
     <v>       0.00000000       0.19241344       0.00000000 </v>
     <v>       0.06252698       0.07647885       0.14025862 </v>
    </varray>
   </crystal>
   <varray name="positions" >
    <v>       0.50000000       0.50000000       1.00000000 </v>
    <v>       0.75000000       0.25000000       0.50000000 </v>
    <v>       0.00000000       0.00000000       0.00000000 </v>
    <v>       0.25000000       0.75000000       0.50000000 </v>
    <v>       0.34516103       0.37500000       0.25000000 </v>
    <v>       0.90483897       0.87500000       0.25000000 </v>
    <v>       0.12500000       0.65483897       0.75000000 </v>
    <v>       0.62500000       0.09516103       0.75000000 </v>
   </varray>
  </structure>
  <varray name="primitive_index" >
   <v type="int" >        1 </v>
   <v type="int" >        2 </v>
   <v type="int" >        3 </v>
   <v type="int" >        4 </v>
   <v type="int" >        5 </v>
   <v type="int" >        6 </v>
   <v type="int" >        7 </v>
   <v type="int" >        8 </v>
  </varray>
 </primitive_cell>
 <kpoints>
  <generation param="Gamma">
   <v type="int" name="divisions">       4        4        3 </v>
   <v name="usershift">      0.00000000       0.00000000       0.00000000 </v>
   <v name="genvec1">      0.25000000      -0.00000000       0.00000000 </v>
   <v name="genvec2">      0.00000000       0.25000000       0.00000000 </v>
   <v name="genvec3">      0.00000000      -0.00000000       0.33333333 </v>
   <v name="shift">      0.00000000       0.00000000       0.00000000 </v>
  </generation>
  <varray name="kpointlist" >
   <v>       0.00000000       0.00000000       0.00000000 </v>
   <v>       0.25000000      -0.00000000       0.00000000 </v>
   <v>       0.50000000      -0.00000000       0.00000000 </v>
   <v>       0.25000000       0.25000000       0.00000000 </v>
   <v>       0.50000000       0.25000000       0.00000000 </v>
   <v>      -0.25000000       0.25000000       0.00000000 </v>
   <v>       0.50000000       0.50000000       0.00000000 </v>
   <v>       0.00000000       0.00000000       0.33333333 </v>
   <v>       0.25000000      -0.00000000       0.33333333 </v>
   <v>       0.50000000       0.00000000       0.33333333 </v>
   <v>      -0.25000000       0.00000000       0.33333333 </v>
   <v>       0.25000000       0.25000000       0.33333333 </v>
   <v>       0.50000000       0.25000000       0.33333333 </v>
   <v>      -0.25000000       0.25000000       0.33333333 </v>
   <v>       0.50000000       0.50000000       0.33333333 </v>
   <v>      -0.25000000       0.50000000       0.33333333 </v>
   <v>      -0.25000000      -0.25000000       0.33333333 </v>
  </varray>
  <varray name="weights" >
   <v>       0.02083333 </v>
   <v>       0.08333333 </v>
   <v>       0.04166667 </v>
   <v>       0.04166667 </v>
   <v>       0.08333333 </v>
   <v>       0.04166667 </v>
   <v>       0.02083333 </v>
   <v>       0.04166667 </v>
   <v>       0.08333333 </v>
   <v>       0.08333333 </v>
   <v>       0.08333333 </v>
   <v>       0.04166667 </v>
   <v>       0.08333333 </v>
   <v>       0.08333333 </v>
   <v>       0.04166667 </v>
   <v>       0.08333333 </v>
   <v>       0.04166667 </v>
  </varray>
  <varray name="tetrahedronlist"  type="int" >
   <v type="int" >        4        9       10       14       14 </v>
   <v type="int" >        4       10       14       14       16 </v>
   <v type="int" >        4       10       13       14       16 </v>
   <v type="int" >        4        9       10       11       14 </v>
   <v type="int" >        4       10       10       11       14 </v>
   <v type="int" >        4       10       10       13       14 </v>
   <v type="int" >        4       10       11       13       16 </v>
   <v type="int" >        4       11       13       16       17 </v>
   <v type="int" >        4       11       12       13       17 </v>
   <v type="int" >        4       10       10       11       13 </v>
   <v type="int" >        4        9       10       11       13 </v>
   <v type="int" >        4        9       11       12       13 </v>
   <v type="int" >        4        8       11       12       17 </v>
   <v type="int" >        4        8        9       11       12 </v>
   <v type="int" >        4        8        8        9       12 </v>
   <v type="int" >        4        8        9        9       11 </v>
   <v type="int" >        4        9        9       11       14 </v>
   <v type="int" >        2        9        9       14       14 </v>
   <v type="int" >        2        8        8        9        9 </v>
   <v type="int" >        4        5       13       14       16 </v>
   <v type="int" >        4        5       13       15       16 </v>
   <v type="int" >        4        5        7       13       15 </v>
   <v type="int" >        4        5        6       13       14 </v>
   <v type="int" >        4        5        5        6       13 </v>
   <v type="int" >        4        5        5        7       13 </v>
   <v type="int" >        4        7       12       13       15 </v>
   <v type="int" >        4        5        7       12       13 </v>
   <v type="int" >        4        4        5        7       12 </v>
   <v type="int" >        4        5        9       12       13 </v>
   <v type="int" >        4        5        9       10       13 </v>
   <v type="int" >        4        3        5        9       10 </v>
   <v type="int" >        4        4        5        9       12 </v>
   <v type="int" >        4        2        4        5        9 </v>
   <v type="int" >        4        2        3        5        9 </v>
   <v type="int" >        4        3        9       10       14 </v>
   <v type="int" >        4        3       10       14       16 </v>
   <v type="int" >        4        3        5       14       16 </v>
   <v type="int" >        4        2        3        9       14 </v>
   <v type="int" >        4        2        3        6       14 </v>
   <v type="int" >        4        3        5        6       14 </v>
   <v type="int" >        4        6       10       11       14 </v>
   <v type="int" >        4        6       10       13       14 </v>
   <v type="int" >        4        5        6       10       13 </v>
   <v type="int" >        4        2        6       10       11 </v>
   <v type="int" >        4        2        3        6       10 </v>
   <v type="int" >        4        3        5        6       10 </v>
   <v type="int" >        4        4        8        9       12 </v>
   <v type="int" >        4        2        4        8        9 </v>
   <v type="int" >        4        1        2        4        8 </v>
   <v type="int" >        4        2        8        9       11 </v>
   <v type="int" >        4        2        9       11       14 </v>
   <v type="int" >        4        2        6       11       14 </v>
   <v type="int" >        4        1        2        8       11 </v>
   <v type="int" >        4        1        2        2       11 </v>
   <v type="int" >        4        2        2        6       11 </v>
   <v type="int" >        4        4        5        7       15 </v>
   <v type="int" >        4        4        5       15       16 </v>
   <v type="int" >        4        4       15       16       17 </v>
   <v type="int" >        4        2        4        5       16 </v>
   <v type="int" >        4        2        3        5       16 </v>
   <v type="int" >        4        2        3       10       16 </v>
   <v type="int" >        4        2        4       16       17 </v>
   <v type="int" >        4        2       11       16       17 </v>
   <v type="int" >        4        2       10       11       16 </v>
   <v type="int" >        4       12       13       15       17 </v>
   <v type="int" >        4       13       15       16       17 </v>
   <v type="int" >        4       15       15       16       17 </v>
   <v type="int" >        4       13       15       16       16 </v>
   <v type="int" >        4       13       14       16       16 </v>
   <v type="int" >        2       14       14       16       16 </v>
   <v type="int" >        2       15       15       16       16 </v>
   <v type="int" >        4        1        8       11       17 </v>
   <v type="int" >        4        1        2       11       17 </v>
   <v type="int" >        4        1        2        4       17 </v>
  </varray>
  <i name="volumeweight">      0.00347222 </i>
 </kpoints>
 <parameters>
  <separator name="general" >
   <i type="string" name="SYSTEM">unknown system</i>
   <i type="logical" name="LCOMPAT"> F  </i>
  </separator>
  <separator name="electronic" >
   <i type="string" name="PREC">accura</i>
   <i name="ENMAX">    680.00000000</i>
   <i name="ENAUG">   1360.00000000</i>
   <i name="EDIFF">      0.00001000</i>
   <i type="int" name="IALGO">    38</i>
   <i type="int" name="IWAVPR">    10</i>
   <i type="int" name="NBANDS">    48</i>
   <i type="int" name="NBANDSLOW">    -1</i>
   <i type="int" name="NBANDSHIGH">    -1</i>
   <i name="NELECT">     72.00000000</i>
   <i type="int" name="TURBO">     0</i>
   <i type="int" name="IRESTART">     0</i>
   <i type="int" name="NREBOOT">     0</i>
   <i type="int" name="NMIN">     0</i>
   <i name="EREF">      0.00000000</i>
   <separator name="electronic smearing" >
    <i type="int" name="ISMEAR">    -5</i>
    <i name="SIGMA">      0.20000000</i>
    <i name="KSPACING">      0.50000000</i>
    <i type="logical" name="KGAMMA"> T  </i>
    <i type="logical" name="KBLOWUP"> F  </i>
   </separator>
   <separator name="electronic projectors" >
    <i type="logical" name="LREAL"> F  </i>
    <v name="ROPT">      0.00000000      0.00000000      0.00000000</v>
    <i type="int" name="LMAXPAW">  -100</i>
    <i type="int" name="LMAXMIX">     4</i>
    <i type="logical" name="NLSPLINE"> F  </i>
   </separator>
   <separator name="electronic startup" >
    <i type="int" name="ISTART">     0</i>
    <i type="int" name="ICHARG">     2</i>
    <i type="int" name="INIWAV">     1</i>
   </separator>
   <separator name="electronic spin" >
    <i type="int" name="ISPIN">     2</i>
    <i type="logical" name="LNONCOLLINEAR"> F  </i>
    <v name="MAGMOM">      0.60000000      0.60000000      0.60000000      0.60000000      0.60000000      0.60000000      0.60000000      0.60000000</v>
    <i name="NUPDOWN">     -1.00000000</i>
    <i type="logical" name="LSORBIT"> F  </i>
    <v name="SAXIS">      0.00000000      0.00000000      1.00000000</v>
    <i type="logical" name="LSPIRAL"> F  </i>
    <v name="QSPIRAL">      0.00000000      0.00000000      0.00000000</v>
    <i type="logical" name="LZEROZ"> F  </i>
   </separator>
   <separator name="electronic exchange-correlation" >
    <i type="logical" name="LASPH"> T  </i>
    <i type="logical" name="LMETAGGA"> F  </i>
   </separator>
   <separator name="electronic convergence" >
    <i type="int" name="NELM">   200</i>
    <i type="int" name="NELMDL">    -5</i>
    <i type="int" name="NELMIN">     2</i>
    <i name="ENINI">    680.00000000</i>
    <separator name="electronic convergence detail" >
     <i type="logical" name="LDIAG"> T  </i>
     <i type="logical" name="LSUBROT"> F  </i>
     <i name="WEIMIN">      0.00000000</i>
     <i name="EBREAK">      0.00000005</i>
     <i name="DEPER">      0.30000000</i>
     <i type="int" name="NRMM">     4</i>
     <i name="TIME">      0.40000000</i>
    </separator>
   </separator>
   <separator name="electronic mixer" >
    <i name="AMIX">      0.40000000</i>
    <i name="BMIX">      1.00000000</i>
    <i name="AMIN">      0.10000000</i>
    <i name="AMIX_MAG">      1.60000000</i>
    <i name="BMIX_MAG">      1.00000000</i>
    <separator name="electronic mixer details" >
     <i type="int" name="IMIX">     1</i>
     <i type="logical" name="MIXFIRST"> F  </i>
     <i type="int" name="MAXMIX">   -45</i>
     <i name="WC">    100.00000000</i>
     <i type="int" name="INIMIX">     1</i>
     <i type="int" name="MIXPRE">     1</i>
     <i type="int" name="MREMOVE">     5</i>
    </separator>
   </separator>
   <separator name="electronic dipolcorrection" >
    <i type="logical" name="LDIPOL"> F  </i>
    <i type="logical" name="LMONO"> F  </i>
    <i type="int" name="IDIPOL">     0</i>
    <i name="EPSILON">      1.00000000</i>
    <v name="DIPOL">   -100.00000000   -100.00000000   -100.00000000</v>
    <i name="EFIELD">      0.00000000</i>
   </separator>
  </separator>
  <separator name="grids" >
   <i type="int" name="NGX">    50</i>
   <i type="int" name="NGY">    50</i>
   <i type="int" name="NGZ">    64</i>
   <i type="int" name="NGXF">   100</i>
   <i type="int" name="NGYF">   100</i>
   <i type="int" name="NGZF">   128</i>
   <i type="logical" name="ADDGRID"> F  </i>
  </separator>
  <separator name="ionic" >
   <i type="int" name="NSW">     0</i>
   <i type="int" name="IBRION">    -1</i>
   <i type="int" name="MDALGO">     0</i>
   <i type="int" name="ISIF">     0</i>
   <i name="PSTRESS">      0.00000000</i>
   <i name="EDIFFG">      0.00010000</i>
   <i type="int" name="NFREE">     0</i>
   <i name="POTIM">      0.50000000</i>
   <i name="SMASS">     -3.00000000</i>
   <i name="SCALEE">      1.00000000</i>
  </separator>
  <separator name="ionic md" >
   <i name="TEBEG">      0.00010000</i>
   <i name="TEEND">      0.00010000</i>
   <i type="int" name="NBLOCK">     1</i>
   <i type="int" name="KBLOCK">     1</i>
   <i type="int" name="NPACO">   256</i>
   <i name="APACO">     10.00000000</i>
  </separator>
  <separator name="symmetry" >
   <i type="int" name="ISYM">     3</i>
   <i name="SYMPREC">      0.00001000</i>
  </separator>
  <separator name="dos" >
   <i type="int" name="LORBIT">    11</i>
   <v name="RWIGS">     -1.00000000     -1.00000000     -1.00000000</v>
   <i type="int" name="NEDOS">   301</i>
   <i name="EMIN">     10.00000000</i>
   <i name="EMAX">    -10.00000000</i>
   <i name="EFERMI">      0.00000000</i>
  </separator>
  <separator name="writing" >
   <i type="int" name="NWRITE">     2</i>
   <i type="logical" name="LWAVE"> T  </i>
   <i type="logical" name="LDOWNSAMPLE"> F  </i>
   <i type="logical" name="LCHARG"> T  </i>
   <i type="logical" name="LPARD"> F  </i>
   <i type="logical" name="LVTOT"> T  </i>
   <i type="logical" name="LVHAR"> F  </i>
   <i type="logical" name="LELF"> F  </i>
   <i type="logical" name="LOPTICS"> F  </i>
   <v name="STM">      0.00000000      0.00000000      0.00000000      0.00000000      0.00000000      0.00000000      0.00000000</v>
  </separator>
  <separator name="performance" >
   <i type="int" name="NPAR">    12</i>
   <i type="int" name="NSIM">     4</i>
   <i type="int" name="NBLK">    -1</i>
   <i type="logical" name="LPLANE"> T  </i>
   <i type="logical" name="LSCALAPACK"> T  </i>
   <i type="logical" name="LSCAAWARE"> F  </i>
   <i type="logical" name="LSCALU"> F  </i>
   <i type="logical" name="LASYNC"> F  </i>
   <i type="logical" name="LORBITALREAL"> F  </i>
  </separator>
  <separator name="miscellaneous" >
   <i type="int" name="IDIOT">     3</i>
   <i type="int" name="PHON_NSTRUCT">    -1</i>
   <i type="logical" name="LMUSIC"> F  </i>
   <v name="POMASS">    114.82000000     63.54600000     78.96000000</v>
   <v name="DARWINR">      0.00000000      0.00000000      0.00000000</v>
   <v name="DARWINV">      1.00000000      1.00000000      1.00000000</v>
   <i type="logical" name="LCORR"> T  </i>
  </separator>
  <i type="logical" name="GGA_COMPAT"> T  </i>
  <i type="logical" name="LBERRY"> F  </i>
  <i type="int" name="ICORELEVEL">     0</i>
  <i type="logical" name="LDAU"> F  </i>
  <i type="int" name="I_CONSTRAINED_M">     0</i>
  <separator name="electronic exchange-correlation" >
   <i type="string" name="GGA">PE</i>
   <i type="int" name="VOSKOWN">     0</i>
   <i type="logical" name="LHFCALC"> T  </i>
   <i type="string" name="PRECFOCK">fast</i>
   <i type="logical" name="LSYMGRAD"> F  </i>
   <i type="logical" name="LHFONE"> F  </i>
   <i type="logical" name="LRHFCALC"> F  </i>
   <i type="logical" name="LTHOMAS"> F  </i>
   <i type="logical" name="LMODELHF"> F  </i>
   <i type="logical" name="LFOCKACE"> T  </i>
   <i name="ENCUT4O">     -1.00000000</i>
   <i type="int" name="EXXOEP">     0</i>
   <i type="int" name="FOURORBIT">     0</i>
   <i name="AEXX">      0.25000000</i>
   <i name="HFALPHA">     -1.00000000</i>
   <i name="MCALPHA">      0.00000000</i>
   <i name="ALDAX">      0.75000000</i>
   <i name="AGGAX">      0.75000000</i>
   <i name="ALDAC">      1.00000000</i>
   <i name="AGGAC">      1.00000000</i>
   <i type="int" name="NKREDX">     1</i>
   <i type="int" name="NKREDY">     1</i>
   <i type="int" name="NKREDZ">     1</i>
   <i type="logical" name="SHIFTRED"> F  </i>
   <i type="logical" name="ODDONLY"> F  </i>
   <i type="logical" name="EVENONLY"> F  </i>
   <i type="int" name="LMAXFOCK">     4</i>
   <i type="int" name="NMAXFOCKAE">     1</i>
   <i type="logical" name="LFOCKAEDFT"> F  </i>
   <i name="HFSCREEN">      0.20000000</i>
   <i name="HFSCREENC">      0.20000000</i>
   <i type="int" name="NBANDSGWLOW">     1</i>
  </separator>
  <separator name="vdW DFT" >
   <i type="logical" name="LUSE_VDW"> F  </i>
   <i type="int" name="IVDW_NL">     1</i>
   <i type="logical" name="LSPIN_VDW"> F  </i>
   <i name="Zab_VDW">     -0.84910000</i>
   <i name="PARAM1">      0.12340000</i>
   <i name="PARAM2">      1.00000000</i>
   <i name="PARAM3">      0.00000000</i>
  </separator>
  <separator name="model GW" >
   <i type="int" name="MODEL_GW">     0</i>
   <i name="MODEL_EPS0">     14.73707560</i>
   <i name="MODEL_ALPHA">      1.00000000</i>
  </separator>
  <separator name="linear response parameters" >
   <i type="logical" name="LEPSILON"> F  </i>
   <i type="logical" name="LRPA"> F  </i>
   <i type="logical" name="LNABLA"> F  </i>
   <i type="logical" name="LVEL"> F  </i>
   <i name="CSHIFT">      0.10000000</i>
   <i name="OMEGAMAX">     -1.00000000</i>
   <i name="DEG_THRESHOLD">      0.00200000</i>
   <i name="RTIME">     -0.10000000</i>
   <i name="WPLASMAI">      0.00000000</i>
   <v name="DFIELD">      0.00000000      0.00000000      0.00000000</v>
   <v name="WPLASMA">      0.00000000      0.00000000      0.00000000      0.00000000      0.00000000      0.00000000      0.00000000      0.00000000      0.00000000</v>
  </separator>
  <separator name="orbital magnetization" >
   <i type="logical" name="NUCIND"> F  </i>
   <v name="MAGPOS">      0.00000000      0.00000000      0.00000000</v>
   <i type="logical" name="LNICSALL"> T  </i>
   <i type="logical" name="ORBITALMAG"> F  </i>
   <i type="logical" name="LMAGBLOCH"> F  </i>
   <i type="logical" name="LCHIMAG"> F  </i>
   <i type="logical" name="LGAUGE"> T  </i>
   <i type="int" name="MAGATOM">     0</i>
   <v name="MAGDIPOL">      0.00000000      0.00000000      0.00000000</v>
   <v name="AVECCONST">      0.00000000      0.00000000      0.00000000</v>
  </separator>
  <separator name="response functions" >
   <i type="logical" name="LALL_IN_ONE"> F  </i>
   <i type="int" name="IALL_IN_ONE">    -1</i>
   <i type="int" name="NBANDS_WAVE">    -1</i>
   <i type="logical" name="LFINITE_TEMPERATURE"> F  </i>
   <i type="logical" name="LADDER"> F  </i>
   <i type="logical" name="LRPAFORCE"> F  </i>
   <i type="logical" name="LFXC"> F  </i>
   <i type="logical" name="LHARTREE"> T  </i>
   <i type="int" name="IBSE">     0</i>
   <v type="int" name="KPOINT">    -1     0     0     0</v>
   <i type="logical" name="LTCTC"> F  </i>
   <i type="logical" name="LTCTE"> F  </i>
   <i type="logical" name="LTETE"> F  </i>
   <i type="logical" name="LTRIPLET"> F  </i>
   <i type="logical" name="LFXCEPS"> F  </i>
   <i type="logical" name="LFXHEG"> F  </i>
   <i type="int" name="NATURALO">     2</i>
   <i type="logical" name="LHOLEGF"> F  </i>
   <i type="logical" name="L2ORDER"> F  </i>
   <i type="logical" name="LDMP1"> F  </i>
   <i type="logical" name="LMP2LT"> F  </i>
   <i type="logical" name="LSMP2LT"> F  </i>
   <i type="logical" name="LGWLF"> F  </i>
   <i name="ENCUTGW">     -1.60000002</i>
   <i name="ENCUTGWSOFT">     -1.60000002</i>
   <i name="ENCUTLF">     -1.00000000</i>
   <i type="logical" name="LESF_SPLINES"> F  </i>
   <i type="int" name="LMAXMP2">    -1</i>
   <i name="SCISSOR">      0.00000000</i>
   <i type="int" name="NOMEGA">     0</i>
   <i type="int" name="NOMEGAR">     0</i>
   <i type="int" name="NBANDSGW">    -1</i>
   <i type="int" name="NBANDSO">    -1</i>
   <i type="int" name="NBANDSV">    -1</i>
   <i type="int" name="NELMGW">     1</i>
   <i type="int" name="NELMHF">     1</i>
   <i type="int" name="DIM">     3</i>
   <i type="int" name="IESPILON">     4</i>
   <i type="int" name="ANTIRES">     0</i>
   <i name="OMEGAMAX">    -30.00000000</i>
   <i name="OMEGAMIN">    -30.00000000</i>
   <i name="OMEGATL">   -200.00000000</i>
   <i type="int" name="OMEGAGRID">     0</i>
   <i name="CSHIFT">     -0.10000000</i>
   <i type="logical" name="LSELFENERGY"> F  </i>
   <i type="logical" name="LSPECTRAL"> F  </i>
   <i type="logical" name="LSPECTRALGW"> F  </i>
   <i type="logical" name="LSINGLES"> F  </i>
   <i type="logical" name="LFERMIGW"> F  </i>
   <i type="logical" name="ODDONLYGW"> F  </i>
   <i type="logical" name="EVENONLYGW"> F  </i>
   <i type="int" name="NKREDLFX">     1</i>
   <i type="int" name="NKREDLFY">     1</i>
   <i type="int" name="NKREDLFZ">     1</i>
   <i type="int" name="MAXMEM">  2800</i>
   <i type="int" name="TELESCOPE">     0</i>
   <i type="int" name="NTAUPAR">    -1</i>
   <i type="int" name="NOMEGAPAR">    -1</i>
   <i name="DAMP_NEWTON">      0.80000001</i>
   <i name="LAMBDA">      1.00000000</i>
  </separator>
  <separator name="External order field" >
   <i name="OFIELD_KAPPA">      0.00000000</i>
   <v name="OFIELD_K">      0.00000000      0.00000000      0.00000000</v>
   <i name="OFIELD_Q6_NEAR">      0.00000000</i>
   <i name="OFIELD_Q6_FAR">      0.00000000</i>
   <i name="OFIELD_A">      0.00000000</i>
  </separator>
  <separator name="optional k-points parameters" >
   <i type="int" name="KPOINTS_OPT_MODE">     1</i>
   <i type="logical" name="LKPOINTS_OPT"> F  </i>
  </separator>
 </parameters>
 <atominfo>
  <atoms>       8 </atoms>
  <types>       3 </types>
  <array name="atoms" >
   <dimension dim="1">ion</dimension>
   <field type="string">element</field>
   <field type="int">atomtype</field>
   <set>
    <rc><c>In</c><c>   1</c></rc>
    <rc><c>In</c><c>   1</c></rc>
    <rc><c>Cu</c><c>   2</c></rc>
    <rc><c>Cu</c><c>   2</c></rc>
    <rc><c>Se</c><c>   3</c></rc>
    <rc><c>Se</c><c>   3</c></rc>
    <rc><c>Se</c><c>   3</c></rc>
    <rc><c>Se</c><c>   3</c></rc>
   </set>
  </array>
  <array name="atomtypes" >
   <dimension dim="1">type</dimension>
   <field type="int">atomspertype</field>
   <field type="string">element</field>
   <field>mass</field>
   <field>valence</field>
   <field type="string">pseudopotential</field>
   <set>
    <rc><c>   2</c><c>In</c><c>    114.82000000</c><c>     13.00000000</c><c>  PAW_PBE In_d 06Sep2000                </c></rc>
    <rc><c>   2</c><c>Cu</c><c>     63.54600000</c><c>     11.00000000</c><c>  PAW_PBE Cu 22Jun2005                  </c></rc>
    <rc><c>   4</c><c>Se</c><c>     78.96000000</c><c>      6.00000000</c><c>  PAW_PBE Se 06Sep2000                  </c></rc>
   </set>
  </array>
 </atominfo>
 <structure name="initialpos" >
  <crystal>
   <varray name="basis" >
    <v>       5.30291920       0.00000000      -2.36402939 </v>
    <v>      -1.05387957       5.19714218      -2.36402972 </v>
    <v>       0.00000000       0.00000000       7.12968660 </v>
   </varray>
   <i name="volume">    196.49434127 </i>
   <varray name="rec_basis" >
    <v>       0.18857538       0.03823943       0.00000000 </v>
    <v>       0.00000000       0.19241344       0.00000000 </v>
    <v>       0.06252698       0.07647885       0.14025862 </v>
   </varray>
  </crystal>
  <varray name="positions" >
   <v>       0.50000000       0.50000000       0.00000000 </v>
   <v>       0.75000000       0.25000000       0.50000000 </v>
   <v>       0.00000000       0.00000000       0.00000000 </v>
   <v>       0.25000000       0.75000000       0.50000000 </v>
   <v>       0.34516103       0.37500000       0.25000000 </v>
   <v>       0.90483897       0.87500000       0.25000000 </v>
   <v>       0.12500000       0.65483897       0.75000000 </v>
   <v>       0.62500000       0.09516103       0.75000000 </v>
  </varray>
 </structure>
 <calculation>
  <scstep>
   <time name="dav">    0.72    0.74</time>
   <time name="total">    1.19    1.24</time>
   <energy>
    <i name="alphaZ">    185.64929911 </i>
    <i name="ewald">  -4678.36476469 </i>
    <i name="hartreedc">  -2345.03363423 </i>
    <i name="XCdc">    172.18262993 </i>
    <i name="pawpsdc">   6059.25548889 </i>
    <i name="pawaedc"> -11108.38758097 </i>
    <i name="eentropy">      0.00000000 </i>
    <i name="bandstr">    381.02051423 </i>
    <i name="atom">   6950.95472638 </i>
    <i name="e_fr_energy">  -4382.72332135 </i>
    <i name="e_wo_entrp">  -4382.72332135 </i>
    <i name="e_0_energy">  -4382.72332135 </i>
   </energy>
  </scstep>
  <scstep>
   <time name="dav">    0.66    0.67</time>
   <time name="total">    0.67    0.68</time>
   <energy>
    <i name="e_fr_energy">  -5028.63457916 </i>
    <i name="e_wo_entrp">  -5028.63457916 </i>
    <i name="e_0_energy">  -5028.63457916 </i>
   </energy>
  </scstep>
  <scstep>
   <time name="dav">    0.82    0.83</time>
   <time name="total">    0.82    0.84</time>
   <energy>
    <i name="e_fr_energy">  -5130.27818108 </i>
    <i name="e_wo_entrp">  -5130.27818108 </i>
    <i name="e_0_energy">  -5130.27818108 </i>
   </energy>
  </scstep>
  <scstep>
   <time name="dav">    0.75    0.77</time>
   <time name="total">    0.75    0.77</time>
   <energy>
    <i name="e_fr_energy">  -5135.61128618 </i>
    <i name="e_wo_entrp">  -5135.61128618 </i>
    <i name="e_0_energy">  -5135.61128618 </i>
   </energy>
  </scstep>
  <scstep>
   <time name="dav">   47.46   47.58</time>
   <time name="total">   48.54   48.72</time>
   <energy>
    <i name="e_fr_energy">    -35.93294610 </i>
    <i name="e_wo_entrp">    -35.93294610 </i>
    <i name="e_0_energy">    -35.93294610 </i>
   </energy>
  </scstep>
  <scstep>
   <time name="dav">   46.73   46.85</time>
   <time name="total">   47.81   47.94</time>
   <energy>
    <i name="e_fr_energy">    -35.58841496 </i>
    <i name="e_wo_entrp">    -35.58841496 </i>
    <i name="e_0_energy">    -35.58841496 </i>
   </energy>
  </scstep>
  <scstep>
   <time name="dav">   46.71   46.82</time>
   <time name="total">   47.77   47.90</time>
   <energy>
    <i name="e_fr_energy">    -35.59043167 </i>
    <i name="e_wo_entrp">    -35.59043167 </i>
    <i name="e_0_energy">    -35.59043167 </i>
   </energy>
  </scstep>
  <scstep>
   <time name="dav">   47.37   47.49</time>
   <time name="total">   48.44   48.57</time>
   <energy>
    <i name="e_fr_energy">    -35.67051453 </i>
    <i name="e_wo_entrp">    -35.67051453 </i>
    <i name="e_0_energy">    -35.67051453 </i>
   </energy>
  </scstep>
  <scstep>
   <time name="dav">   46.38   46.50</time>
   <time name="total">   47.46   47.60</time>
   <energy>
    <i name="e_fr_energy">    -35.68009694 </i>
    <i name="e_wo_entrp">    -35.68009694 </i>
    <i name="e_0_energy">    -35.68009694 </i>
   </energy>
  </scstep>
  <scstep>
   <time name="dav">   47.03   47.15</time>
   <time name="total">   48.10   48.24</time>
   <energy>
    <i name="e_fr_energy">    -35.68302909 </i>
    <i name="e_wo_entrp">    -35.68302909 </i>
    <i name="e_0_energy">    -35.68302909 </i>
   </energy>
  </scstep>
  <scstep>
   <time name="dav">   46.38   46.50</time>
   <time name="total">   47.45   47.59</time>
   <energy>
    <i name="e_fr_energy">    -35.68538488 </i>
    <i name="e_wo_entrp">    -35.68538488 </i>
    <i name="e_0_energy">    -35.68538488 </i>
   </energy>
  </scstep>
  <scstep>
   <time name="dav">   46.41   46.53</time>
   <time name="total">   47.47   47.61</time>
   <energy>
    <i name="e_fr_energy">    -35.68634483 </i>
    <i name="e_wo_entrp">    -35.68634483 </i>
    <i name="e_0_energy">    -35.68634483 </i>
   </energy>
  </scstep>
  <scstep>
   <time name="dav">   47.11   47.23</time>
   <time name="total">   48.18   48.32</time>
   <energy>
    <i name="e_fr_energy">    -35.68675675 </i>
    <i name="e_wo_entrp">    -35.68675675 </i>
    <i name="e_0_energy">    -35.68675675 </i>
   </energy>
  </scstep>
  <scstep>
   <time name="dav">   46.35   46.47</time>
   <time name="total">   47.42   47.56</time>
   <energy>
    <i name="e_fr_energy">    -35.68694870 </i>
    <i name="e_wo_entrp">    -35.68694870 </i>
    <i name="e_0_energy">    -35.68694870 </i>
   </energy>
  </scstep>
  <scstep>
   <time name="dav">   47.18   47.30</time>
   <time name="total">   48.25   48.38</time>
   <energy>
    <i name="e_fr_energy">    -35.68704180 </i>
    <i name="e_wo_entrp">    -35.68704180 </i>
    <i name="e_0_energy">    -35.68704180 </i>
   </energy>
  </scstep>
  <scstep>
   <time name="dav">   46.39   46.51</time>
   <time name="total">   47.47   47.60</time>
   <energy>
    <i name="e_fr_energy">    -35.68708660 </i>
    <i name="e_wo_entrp">    -35.68708660 </i>
    <i name="e_0_energy">    -35.68708660 </i>
   </energy>
  </scstep>
  <scstep>
   <time name="dav">   46.59   46.72</time>
   <time name="total">   47.66   47.81</time>
   <energy>
    <i name="e_fr_energy">    -35.68710818 </i>
    <i name="e_wo_entrp">    -35.68710818 </i>
    <i name="e_0_energy">    -35.68710818 </i>
   </energy>
  </scstep>
  <scstep>
   <time name="dav">   46.73   46.85</time>
   <time name="total">   47.80   47.94</time>
   <energy>
    <i name="e_fr_energy">    -35.68711871 </i>
    <i name="e_wo_entrp">    -35.68711871 </i>
    <i name="e_0_energy">    -35.68711871 </i>
   </energy>
  </scstep>
  <scstep>
   <time name="dav">   46.21   46.33</time>
   <time name="total">   47.21   47.34</time>
   <energy>
    <i name="alphaZ">    185.64929911 </i>
    <i name="ewald">  -4678.36476469 </i>
    <i name="hartreedc">  -2332.98297185 </i>
    <i name="XCdc">    128.59761570 </i>
    <i name="pawpsdc">  10122.68109030 </i>
    <i name="pawaedc"> -10246.47783926 </i>
    <i name="eentropy">      0.00000000 </i>
    <i name="bandstr">   -325.99593417 </i>
    <i name="atom">   6950.95472638 </i>
    <i name="e_fr_energy">    -35.68712395 </i>
    <i name="e_wo_entrp">    -35.68712395 </i>
    <i name="e_0_energy">    -35.68712395 </i>
   </energy>
  </scstep>
  <structure>
   <crystal>
    <varray name="basis" >
     <v>       5.30291920       0.00000000      -2.36402939 </v>
     <v>      -1.05387957       5.19714218      -2.36402972 </v>
     <v>       0.00000000       0.00000000       7.12968660 </v>
    </varray>
    <i name="volume">    196.49434127 </i>
    <varray name="rec_basis" >
     <v>       0.18857538       0.03823943       0.00000000 </v>
     <v>       0.00000000       0.19241344       0.00000000 </v>
     <v>       0.06252698       0.07647885       0.14025862 </v>
    </varray>
   </crystal>
   <varray name="positions" >
    <v>       0.50000000       0.50000000       0.00000000 </v>
    <v>       0.75000000       0.25000000       0.50000000 </v>
    <v>       0.00000000       0.00000000       0.00000000 </v>
    <v>       0.25000000       0.75000000       0.50000000 </v>
    <v>       0.34516103       0.37500000       0.25000000 </v>
    <v>       0.90483897       0.87500000       0.25000000 </v>
    <v>       0.12500000       0.65483897       0.75000000 </v>
    <v>       0.62500000       0.09516103       0.75000000 </v>
   </varray>
  </structure>
  <varray name="forces" >
   <v>       0.00000000       0.00000000       0.00000000 </v>
   <v>       0.00000000       0.00000000       0.00000000 </v>
   <v>       0.00000000      -0.00000000       0.00000000 </v>
   <v>       0.00000000      -0.00000000       0.00000000 </v>
   <v>       0.30541966       0.00000000      -0.13615539 </v>
   <v>      -0.30541966      -0.00000000       0.13615539 </v>
   <v>       0.06069780      -0.29932747       0.13615541 </v>
   <v>      -0.06069780       0.29932747      -0.13615541 </v>
  </varray>
  <energy>
   <i name="e_fr_energy">    -35.68712395 </i>
   <i name="e_wo_entrp">    -35.68712395 </i>
   <i name="e_0_energy">    -35.68712395 </i>
  </energy>
  <time name="totalsc">  767.79  770.12</time>
  <eigenvalues>
   <array>
    <dimension dim="1">band</dimension>
    <dimension dim="2">kpoint</dimension>
    <dimension dim="3">spin</dimension>
    <field>eigene</field>
    <field>occ</field>
    <set>
     <set comment="spin 1">
      <set comment="kpoint 1">
       <r>  -13.1861    1.0000 </r>
       <r>  -13.1736    1.0000 </r>
       <r>  -13.1736    1.0000 </r>
       <r>  -12.9742    1.0000 </r>
       <r>  -12.9549    1.0000 </r>
       <r>  -12.9549    1.0000 </r>
       <r>  -12.8875    1.0000 </r>
       <r>  -12.8831    1.0000 </r>
       <r>  -12.8674    1.0000 </r>
       <r>  -12.8626    1.0000 </r>
       <r>  -11.5574    1.0000 </r>
       <r>  -10.0928    1.0000 </r>
       <r>  -10.0751    1.0000 </r>
       <r>  -10.0751    1.0000 </r>
       <r>   -3.2813    1.0000 </r>
       <r>   -2.4677    1.0000 </r>
       <r>   -1.4769    1.0000 </r>
       <r>   -0.9134    1.0000 </r>
       <r>   -0.8377    1.0000 </r>
       <r>   -0.2987    1.0000 </r>
       <r>   -0.2987    1.0000 </r>
       <r>   -0.0567    1.0000 </r>
       <r>   -0.0567    1.0000 </r>
       <r>    0.0194    1.0000 </r>
       <r>    0.0195    1.0000 </r>
       <r>    0.0314    1.0000 </r>
       <r>    0.9212    1.0000 </r>
       <r>    0.9479    1.0000 </r>
       <r>    1.0134    1.0000 </r>
       <r>    1.3863    1.0000 </r>
       <r>    1.4728    1.0000 </r>
       <r>    1.4729    1.0000 </r>
       <r>    1.5692    1.0000 </r>
       <r>    3.5469    1.0000 </r>
       <r>    3.5625    1.0000 </r>
       <r>    3.5626    1.0000 </r>
       <r>    4.3259    0.0000 </r>
       <r>    6.3592    0.0000 </r>
       <r>    6.5232    0.0000 </r>
       <r>    8.4396    0.0000 </r>
       <r>    8.4397    0.0000 </r>
       <r>    9.1655    0.0000 </r>
       <r>    9.5293    0.0000 </r>
       <r>    9.5293    0.0000 </r>
       <r>    9.7737    0.0000 </r>
       <r>   10.0557    0.0000 </r>
       <r>   10.8199    0.0000 </r>
       <r>   10.8200    0.0000 </r>
      </set>
      <set comment="kpoint 2">
       <r>  -13.1895    1.0000 </r>
       <r>  -13.1822    1.0000 </r>
       <r>  -13.1612    1.0000 </r>
       <r>  -12.9930    1.0000 </r>
       <r>  -12.9687    1.0000 </r>
       <r>  -12.9495    1.0000 </r>
       <r>  -12.8881    1.0000 </r>
       <r>  -12.8776    1.0000 </r>
       <r>  -12.8706    1.0000 </r>
       <r>  -12.8607    1.0000 </r>
       <r>  -11.3281    1.0000 </r>
       <r>  -10.2425    1.0000 </r>
       <r>  -10.1718    1.0000 </r>
       <r>  -10.1099    1.0000 </r>
       <r>   -3.1009    1.0000 </r>
       <r>   -2.5375    1.0000 </r>
       <r>   -1.4982    1.0000 </r>
       <r>   -1.0126    1.0000 </r>
       <r>   -0.7305    1.0000 </r>
       <r>   -0.4139    1.0000 </r>
       <r>   -0.3891    1.0000 </r>
       <r>   -0.2528    1.0000 </r>
       <r>   -0.1317    1.0000 </r>
       <r>   -0.0026    1.0000 </r>
       <r>    0.1092    1.0000 </r>
       <r>    0.3622    1.0000 </r>
       <r>    0.9964    1.0000 </r>
       <r>    1.0922    1.0000 </r>
       <r>    1.1809    1.0000 </r>
       <r>    1.3019    1.0000 </r>
       <r>    1.4485    1.0000 </r>
       <r>    1.7408    1.0000 </r>
       <r>    1.7729    1.0000 </r>
       <r>    2.3652    1.0000 </r>
       <r>    3.0366    1.0000 </r>
       <r>    3.3056    1.0000 </r>
       <r>    5.7052    0.0000 </r>
       <r>    6.8482    0.0000 </r>
       <r>    7.2664    0.0000 </r>
       <r>    7.7653    0.0000 </r>
       <r>    8.0539    0.0000 </r>
       <r>    9.0085    0.0000 </r>
       <r>    9.4915    0.0000 </r>
       <r>    9.6240    0.0000 </r>
       <r>    9.7312    0.0000 </r>
       <r>   10.2826    0.0000 </r>
       <r>   10.8368    0.0000 </r>
       <r>   11.5107    0.0000 </r>
      </set>
      <set comment="kpoint 3">
       <r>  -13.1983    1.0000 </r>
       <r>  -13.1874    1.0000 </r>
       <r>  -13.1412    1.0000 </r>
       <r>  -13.0232    1.0000 </r>
       <r>  -12.9725    1.0000 </r>
       <r>  -12.9457    1.0000 </r>
       <r>  -12.8848    1.0000 </r>
       <r>  -12.8814    1.0000 </r>
       <r>  -12.8641    1.0000 </r>
       <r>  -12.8634    1.0000 </r>
       <r>  -10.8730    1.0000 </r>
       <r>  -10.6632    1.0000 </r>
       <r>  -10.2368    1.0000 </r>
       <r>  -10.1390    1.0000 </r>
       <r>   -2.8722    1.0000 </r>
       <r>   -2.5347    1.0000 </r>
       <r>   -1.4243    1.0000 </r>
       <r>   -1.1155    1.0000 </r>
       <r>   -0.9333    1.0000 </r>
       <r>   -0.6150    1.0000 </r>
       <r>   -0.3964    1.0000 </r>
       <r>   -0.2407    1.0000 </r>
       <r>   -0.0975    1.0000 </r>
       <r>    0.0625    1.0000 </r>
       <r>    0.2209    1.0000 </r>
       <r>    0.3832    1.0000 </r>
       <r>    1.0491    1.0000 </r>
       <r>    1.1023    1.0000 </r>
       <r>    1.1657    1.0000 </r>
       <r>    1.3867    1.0000 </r>
       <r>    1.5497    1.0000 </r>
       <r>    1.8291    1.0000 </r>
       <r>    2.1140    1.0000 </r>
       <r>    2.1339    1.0000 </r>
       <r>    2.3702    1.0000 </r>
       <r>    2.9248    1.0000 </r>
       <r>    6.5742    0.0000 </r>
       <r>    6.9642    0.0000 </r>
       <r>    7.6786    0.0000 </r>
       <r>    8.3731    0.0000 </r>
       <r>    8.6212    0.0000 </r>
       <r>    8.8557    0.0000 </r>
       <r>    9.2966    0.0000 </r>
       <r>    9.6631    0.0000 </r>
       <r>    9.9563    0.0000 </r>
       <r>   10.1152    0.0000 </r>
       <r>   10.8471    0.0000 </r>
       <r>   11.2613    0.0000 </r>
      </set>
      <set comment="kpoint 4">
       <r>  -13.1943    1.0000 </r>
       <r>  -13.1900    1.0000 </r>
       <r>  -13.1398    1.0000 </r>
       <r>  -13.0262    1.0000 </r>
       <r>  -12.9640    1.0000 </r>
       <r>  -12.9538    1.0000 </r>
       <r>  -12.8864    1.0000 </r>
       <r>  -12.8762    1.0000 </r>
       <r>  -12.8696    1.0000 </r>
       <r>  -12.8603    1.0000 </r>
       <r>  -11.0570    1.0000 </r>
       <r>  -10.3451    1.0000 </r>
       <r>  -10.2678    1.0000 </r>
       <r>  -10.2141    1.0000 </r>
       <r>   -3.0444    1.0000 </r>
       <r>   -2.7216    1.0000 </r>
       <r>   -1.6710    1.0000 </r>
       <r>   -1.0439    1.0000 </r>
       <r>   -0.5863    1.0000 </r>
       <r>   -0.5461    1.0000 </r>
       <r>   -0.3988    1.0000 </r>
       <r>   -0.2026    1.0000 </r>
       <r>   -0.0149    1.0000 </r>
       <r>    0.0295    1.0000 </r>
       <r>    0.2572    1.0000 </r>
       <r>    0.4083    1.0000 </r>
       <r>    0.9961    1.0000 </r>
       <r>    1.1138    1.0000 </r>
       <r>    1.2920    1.0000 </r>
       <r>    1.3511    1.0000 </r>
       <r>    1.5986    1.0000 </r>
       <r>    1.7787    1.0000 </r>
       <r>    1.9160    1.0000 </r>
       <r>    2.2468    1.0000 </r>
       <r>    3.0741    1.0000 </r>
       <r>    3.1198    1.0000 </r>
       <r>    5.6656    0.0000 </r>
       <r>    6.4669    0.0000 </r>
       <r>    7.3300    0.0000 </r>
       <r>    7.5812    0.0000 </r>
       <r>    8.2490    0.0000 </r>
       <r>    9.2157    0.0000 </r>
       <r>    9.8454    0.0000 </r>
       <r>    9.8752    0.0000 </r>
       <r>   10.1546    0.0000 </r>
       <r>   10.3234    0.0000 </r>
       <r>   11.0986    0.0000 </r>
       <r>   11.2218    0.0000 </r>
      </set>
      <set comment="kpoint 5">
       <r>  -13.2019    1.0000 </r>
       <r>  -13.1928    1.0000 </r>
       <r>  -13.1220    1.0000 </r>
       <r>  -13.0420    1.0000 </r>
       <r>  -12.9698    1.0000 </r>
       <r>  -12.9560    1.0000 </r>
       <r>  -12.8807    1.0000 </r>
       <r>  -12.8768    1.0000 </r>
       <r>  -12.8656    1.0000 </r>
       <r>  -12.8654    1.0000 </r>
       <r>  -10.7968    1.0000 </r>
       <r>  -10.5443    1.0000 </r>
       <r>  -10.3517    1.0000 </r>
       <r>  -10.1803    1.0000 </r>
       <r>   -3.0380    1.0000 </r>
       <r>   -2.8275    1.0000 </r>
       <r>   -1.7321    1.0000 </r>
       <r>   -1.3719    1.0000 </r>
       <r>   -0.8106    1.0000 </r>
       <r>   -0.4004    1.0000 </r>
       <r>   -0.2660    1.0000 </r>
       <r>   -0.2041    1.0000 </r>
       <r>   -0.0376    1.0000 </r>
       <r>    0.1261    1.0000 </r>
       <r>    0.3037    1.0000 </r>
       <r>    0.4649    1.0000 </r>
       <r>    1.0155    1.0000 </r>
       <r>    1.0739    1.0000 </r>
       <r>    1.2032    1.0000 </r>
       <r>    1.4405    1.0000 </r>
       <r>    1.8580    1.0000 </r>
       <r>    1.9664    1.0000 </r>
       <r>    2.1504    1.0000 </r>
       <r>    2.4074    1.0000 </r>
       <r>    2.7163    1.0000 </r>
       <r>    2.8502    1.0000 </r>
       <r>    6.0528    0.0000 </r>
       <r>    6.3408    0.0000 </r>
       <r>    7.7574    0.0000 </r>
       <r>    8.2382    0.0000 </r>
       <r>    8.7178    0.0000 </r>
       <r>    8.9297    0.0000 </r>
       <r>    9.2173    0.0000 </r>
       <r>    9.7101    0.0000 </r>
       <r>   10.0423    0.0000 </r>
       <r>   10.6939    0.0000 </r>
       <r>   10.9313    0.0000 </r>
       <r>   11.0210    0.0000 </r>
      </set>
      <set comment="kpoint 6">
       <r>  -13.1921    1.0000 </r>
       <r>  -13.1903    1.0000 </r>
       <r>  -13.1502    1.0000 </r>
       <r>  -12.9999    1.0000 </r>
       <r>  -12.9698    1.0000 </r>
       <r>  -12.9598    1.0000 </r>
       <r>  -12.8828    1.0000 </r>
       <r>  -12.8773    1.0000 </r>
       <r>  -12.8671    1.0000 </r>
       <r>  -12.8650    1.0000 </r>
       <r>  -11.2087    1.0000 </r>
       <r>  -10.2814    1.0000 </r>
       <r>  -10.2529    1.0000 </r>
       <r>  -10.0928    1.0000 </r>
       <r>   -3.1151    1.0000 </r>
       <r>   -2.7152    1.0000 </r>
       <r>   -1.6694    1.0000 </r>
       <r>   -0.9932    1.0000 </r>
       <r>   -0.9218    1.0000 </r>
       <r>   -0.5287    1.0000 </r>
       <r>   -0.3515    1.0000 </r>
       <r>   -0.2098    1.0000 </r>
       <r>   -0.1307    1.0000 </r>
       <r>    0.0743    1.0000 </r>
       <r>    0.2072    1.0000 </r>
       <r>    0.5811    1.0000 </r>
       <r>    0.9948    1.0000 </r>
       <r>    1.1216    1.0000 </r>
       <r>    1.2237    1.0000 </r>
       <r>    1.3267    1.0000 </r>
       <r>    1.5923    1.0000 </r>
       <r>    1.9679    1.0000 </r>
       <r>    1.9919    1.0000 </r>
       <r>    2.0459    1.0000 </r>
       <r>    2.8506    1.0000 </r>
       <r>    3.3847    1.0000 </r>
       <r>    5.8908    0.0000 </r>
       <r>    6.5330    0.0000 </r>
       <r>    7.5928    0.0000 </r>
       <r>    8.0611    0.0000 </r>
       <r>    8.5529    0.0000 </r>
       <r>    8.7189    0.0000 </r>
       <r>    9.2504    0.0000 </r>
       <r>    9.7937    0.0000 </r>
       <r>   10.0505    0.0000 </r>
       <r>   10.1827    0.0000 </r>
       <r>   11.0447    0.0000 </r>
       <r>   11.7153    0.0000 </r>
      </set>
      <set comment="kpoint 7">
       <r>  -13.2013    1.0000 </r>
       <r>  -13.2013    1.0000 </r>
       <r>  -13.0815    1.0000 </r>
       <r>  -13.0815    1.0000 </r>
       <r>  -12.9670    1.0000 </r>
       <r>  -12.9670    1.0000 </r>
       <r>  -12.8731    1.0000 </r>
       <r>  -12.8731    1.0000 </r>
       <r>  -12.8691    1.0000 </r>
       <r>  -12.8691    1.0000 </r>
       <r>  -10.5774    1.0000 </r>
       <r>  -10.5771    1.0000 </r>
       <r>  -10.3399    1.0000 </r>
       <r>  -10.3396    1.0000 </r>
       <r>   -3.1412    1.0000 </r>
       <r>   -3.1412    1.0000 </r>
       <r>   -1.7152    1.0000 </r>
       <r>   -1.7152    1.0000 </r>
       <r>   -0.5499    1.0000 </r>
       <r>   -0.5499    1.0000 </r>
       <r>   -0.1780    1.0000 </r>
       <r>   -0.1779    1.0000 </r>
       <r>    0.1462    1.0000 </r>
       <r>    0.1463    1.0000 </r>
       <r>    0.3164    1.0000 </r>
       <r>    0.3165    1.0000 </r>
       <r>    1.0313    1.0000 </r>
       <r>    1.0315    1.0000 </r>
       <r>    1.3767    1.0000 </r>
       <r>    1.3768    1.0000 </r>
       <r>    2.1298    1.0000 </r>
       <r>    2.1301    1.0000 </r>
       <r>    2.6057    1.0000 </r>
       <r>    2.6061    1.0000 </r>
       <r>    2.9741    1.0000 </r>
       <r>    2.9746    1.0000 </r>
       <r>    5.5025    0.0000 </r>
       <r>    5.5030    0.0000 </r>
       <r>    7.8939    0.0000 </r>
       <r>    7.8940    0.0000 </r>
       <r>    9.1798    0.0000 </r>
       <r>    9.1798    0.0000 </r>
       <r>    9.6242    0.0000 </r>
       <r>    9.6244    0.0000 </r>
       <r>   10.4935    0.0000 </r>
       <r>   10.4935    0.0000 </r>
       <r>   10.9081    0.0000 </r>
       <r>   10.9241    0.0000 </r>
      </set>
      <set comment="kpoint 8">
       <r>  -13.1825    1.0000 </r>
       <r>  -13.1825    1.0000 </r>
       <r>  -13.1465    1.0000 </r>
       <r>  -13.0450    1.0000 </r>
       <r>  -12.9406    1.0000 </r>
       <r>  -12.9406    1.0000 </r>
       <r>  -12.8949    1.0000 </r>
       <r>  -12.8849    1.0000 </r>
       <r>  -12.8663    1.0000 </r>
       <r>  -12.8564    1.0000 </r>
       <r>  -11.2223    1.0000 </r>
       <r>  -10.5049    1.0000 </r>
       <r>  -10.0937    1.0000 </r>
       <r>  -10.0937    1.0000 </r>
       <r>   -3.1201    1.0000 </r>
       <r>   -2.8165    1.0000 </r>
       <r>   -1.3438    1.0000 </r>
       <r>   -0.6738    1.0000 </r>
       <r>   -0.3214    1.0000 </r>
       <r>   -0.3214    1.0000 </r>
       <r>   -0.2441    1.0000 </r>
       <r>   -0.0991    1.0000 </r>
       <r>   -0.0990    1.0000 </r>
       <r>    0.1262    1.0000 </r>
       <r>    0.2797    1.0000 </r>
       <r>    0.2798    1.0000 </r>
       <r>    0.8956    1.0000 </r>
       <r>    0.9863    1.0000 </r>
       <r>    1.1179    1.0000 </r>
       <r>    1.1890    1.0000 </r>
       <r>    1.5612    1.0000 </r>
       <r>    1.9284    1.0000 </r>
       <r>    1.9285    1.0000 </r>
       <r>    2.2389    1.0000 </r>
       <r>    2.9172    1.0000 </r>
       <r>    2.9173    1.0000 </r>
       <r>    5.8838    0.0000 </r>
       <r>    6.3436    0.0000 </r>
       <r>    6.7738    0.0000 </r>
       <r>    6.7738    0.0000 </r>
       <r>    6.8037    0.0000 </r>
       <r>    7.7851    0.0000 </r>
       <r>    8.7833    0.0000 </r>
       <r>    8.8144    0.0000 </r>
       <r>   10.4845    0.0000 </r>
       <r>   10.4847    0.0000 </r>
       <r>   12.3562    0.0000 </r>
       <r>   12.4379    0.0000 </r>
      </set>
      <set comment="kpoint 9">
       <r>  -13.1973    1.0000 </r>
       <r>  -13.1836    1.0000 </r>
       <r>  -13.1143    1.0000 </r>
       <r>  -13.0748    1.0000 </r>
       <r>  -12.9503    1.0000 </r>
       <r>  -12.9382    1.0000 </r>
       <r>  -12.8892    1.0000 </r>
       <r>  -12.8871    1.0000 </r>
       <r>  -12.8618    1.0000 </r>
       <r>  -12.8597    1.0000 </r>
       <r>  -10.8508    1.0000 </r>
       <r>  -10.6862    1.0000 </r>
       <r>  -10.3293    1.0000 </r>
       <r>  -10.0868    1.0000 </r>
       <r>   -2.9048    1.0000 </r>
       <r>   -2.7778    1.0000 </r>
       <r>   -1.2269    1.0000 </r>
       <r>   -1.0313    1.0000 </r>
       <r>   -0.5924    1.0000 </r>
       <r>   -0.3768    1.0000 </r>
       <r>   -0.2470    1.0000 </r>
       <r>   -0.1457    1.0000 </r>
       <r>   -0.0936    1.0000 </r>
       <r>    0.1012    1.0000 </r>
       <r>    0.2702    1.0000 </r>
       <r>    0.4121    1.0000 </r>
       <r>    1.0011    1.0000 </r>
       <r>    1.0831    1.0000 </r>
       <r>    1.1062    1.0000 </r>
       <r>    1.3222    1.0000 </r>
       <r>    1.4780    1.0000 </r>
       <r>    1.8174    1.0000 </r>
       <r>    1.9009    1.0000 </r>
       <r>    2.3389    1.0000 </r>
       <r>    2.5105    1.0000 </r>
       <r>    2.8312    1.0000 </r>
       <r>    6.3005    0.0000 </r>
       <r>    6.5440    0.0000 </r>
       <r>    6.6721    0.0000 </r>
       <r>    7.1544    0.0000 </r>
       <r>    7.9810    0.0000 </r>
       <r>    8.2055    0.0000 </r>
       <r>    9.0250    0.0000 </r>
       <r>    9.3426    0.0000 </r>
       <r>    9.9775    0.0000 </r>
       <r>   10.4805    0.0000 </r>
       <r>   10.9139    0.0000 </r>
       <r>   11.7736    0.0000 </r>
      </set>
      <set comment="kpoint 10">
       <r>  -13.2034    1.0000 </r>
       <r>  -13.1827    1.0000 </r>
       <r>  -13.1377    1.0000 </r>
       <r>  -13.0307    1.0000 </r>
       <r>  -12.9697    1.0000 </r>
       <r>  -12.9438    1.0000 </r>
       <r>  -12.8844    1.0000 </r>
       <r>  -12.8814    1.0000 </r>
       <r>  -12.8641    1.0000 </r>
       <r>  -12.8637    1.0000 </r>
       <r>  -10.9104    1.0000 </r>
       <r>  -10.5554    1.0000 </r>
       <r>  -10.3658    1.0000 </r>
       <r>  -10.0811    1.0000 </r>
       <r>   -2.8590    1.0000 </r>
       <r>   -2.5554    1.0000 </r>
       <r>   -1.4202    1.0000 </r>
       <r>   -1.0699    1.0000 </r>
       <r>   -0.9207    1.0000 </r>
       <r>   -0.5575    1.0000 </r>
       <r>   -0.4629    1.0000 </r>
       <r>   -0.2359    1.0000 </r>
       <r>   -0.1893    1.0000 </r>
       <r>    0.0700    1.0000 </r>
       <r>    0.2026    1.0000 </r>
       <r>    0.4308    1.0000 </r>
       <r>    1.0306    1.0000 </r>
       <r>    1.0868    1.0000 </r>
       <r>    1.1591    1.0000 </r>
       <r>    1.4595    1.0000 </r>
       <r>    1.5289    1.0000 </r>
       <r>    1.6061    1.0000 </r>
       <r>    2.0131    1.0000 </r>
       <r>    2.4498    1.0000 </r>
       <r>    2.4781    1.0000 </r>
       <r>    2.8832    1.0000 </r>
       <r>    6.5313    0.0000 </r>
       <r>    6.9528    0.0000 </r>
       <r>    7.3093    0.0000 </r>
       <r>    8.2437    0.0000 </r>
       <r>    8.7657    0.0000 </r>
       <r>    9.1060    0.0000 </r>
       <r>    9.5563    0.0000 </r>
       <r>    9.6016    0.0000 </r>
       <r>   10.1990    0.0000 </r>
       <r>   10.4973    0.0000 </r>
       <r>   11.0107    0.0000 </r>
       <r>   11.1973    0.0000 </r>
      </set>
      <set comment="kpoint 11">
       <r>  -13.1881    1.0000 </r>
       <r>  -13.1844    1.0000 </r>
       <r>  -13.1564    1.0000 </r>
       <r>  -13.0093    1.0000 </r>
       <r>  -12.9627    1.0000 </r>
       <r>  -12.9472    1.0000 </r>
       <r>  -12.8899    1.0000 </r>
       <r>  -12.8776    1.0000 </r>
       <r>  -12.8708    1.0000 </r>
       <r>  -12.8590    1.0000 </r>
       <r>  -11.2505    1.0000 </r>
       <r>  -10.2842    1.0000 </r>
       <r>  -10.2337    1.0000 </r>
       <r>  -10.1109    1.0000 </r>
       <r>   -3.0624    1.0000 </r>
       <r>   -2.5888    1.0000 </r>
       <r>   -1.4660    1.0000 </r>
       <r>   -0.9635    1.0000 </r>
       <r>   -0.6739    1.0000 </r>
       <r>   -0.4261    1.0000 </r>
       <r>   -0.3585    1.0000 </r>
       <r>   -0.2258    1.0000 </r>
       <r>   -0.1227    1.0000 </r>
       <r>    0.0042    1.0000 </r>
       <r>    0.1825    1.0000 </r>
       <r>    0.3506    1.0000 </r>
       <r>    1.0229    1.0000 </r>
       <r>    1.0764    1.0000 </r>
       <r>    1.2031    1.0000 </r>
       <r>    1.2813    1.0000 </r>
       <r>    1.5412    1.0000 </r>
       <r>    1.6864    1.0000 </r>
       <r>    1.7879    1.0000 </r>
       <r>    2.2327    1.0000 </r>
       <r>    2.8639    1.0000 </r>
       <r>    3.3615    1.0000 </r>
       <r>    5.7908    0.0000 </r>
       <r>    6.7549    0.0000 </r>
       <r>    7.3672    0.0000 </r>
       <r>    7.4885    0.0000 </r>
       <r>    7.6880    0.0000 </r>
       <r>    8.9144    0.0000 </r>
       <r>    9.4230    0.0000 </r>
       <r>    9.6145    0.0000 </r>
       <r>    9.9005    0.0000 </r>
       <r>   10.1504    0.0000 </r>
       <r>   11.0402    0.0000 </r>
       <r>   11.3417    0.0000 </r>
      </set>
      <set comment="kpoint 12">
       <r>  -13.1962    1.0000 </r>
       <r>  -13.1935    1.0000 </r>
       <r>  -13.1104    1.0000 </r>
       <r>  -13.0680    1.0000 </r>
       <r>  -12.9544    1.0000 </r>
       <r>  -12.9504    1.0000 </r>
       <r>  -12.8858    1.0000 </r>
       <r>  -12.8822    1.0000 </r>
       <r>  -12.8641    1.0000 </r>
       <r>  -12.8607    1.0000 </r>
       <r>  -10.8237    1.0000 </r>
       <r>  -10.5531    1.0000 </r>
       <r>  -10.2789    1.0000 </r>
       <r>  -10.2703    1.0000 </r>
       <r>   -2.9258    1.0000 </r>
       <r>   -2.7945    1.0000 </r>
       <r>   -1.5297    1.0000 </r>
       <r>   -1.2854    1.0000 </r>
       <r>   -0.4636    1.0000 </r>
       <r>   -0.3904    1.0000 </r>
       <r>   -0.2999    1.0000 </r>
       <r>   -0.1303    1.0000 </r>
       <r>   -0.0698    1.0000 </r>
       <r>    0.0739    1.0000 </r>
       <r>    0.2738    1.0000 </r>
       <r>    0.3014    1.0000 </r>
       <r>    1.0318    1.0000 </r>
       <r>    1.0540    1.0000 </r>
       <r>    1.2859    1.0000 </r>
       <r>    1.2940    1.0000 </r>
       <r>    1.6000    1.0000 </r>
       <r>    1.7438    1.0000 </r>
       <r>    2.2387    1.0000 </r>
       <r>    2.3568    1.0000 </r>
       <r>    2.7451    1.0000 </r>
       <r>    2.8046    1.0000 </r>
       <r>    5.9486    0.0000 </r>
       <r>    6.3592    0.0000 </r>
       <r>    7.3459    0.0000 </r>
       <r>    7.5096    0.0000 </r>
       <r>    8.2891    0.0000 </r>
       <r>    8.7163    0.0000 </r>
       <r>    9.4509    0.0000 </r>
       <r>    9.5534    0.0000 </r>
       <r>   10.2008    0.0000 </r>
       <r>   10.3904    0.0000 </r>
       <r>   10.8503    0.0000 </r>
       <r>   11.2269    0.0000 </r>
      </set>
      <set comment="kpoint 13">
       <r>  -13.2010    1.0000 </r>
       <r>  -13.1933    1.0000 </r>
       <r>  -13.1240    1.0000 </r>
       <r>  -13.0389    1.0000 </r>
       <r>  -12.9712    1.0000 </r>
       <r>  -12.9561    1.0000 </r>
       <r>  -12.8808    1.0000 </r>
       <r>  -12.8768    1.0000 </r>
       <r>  -12.8655    1.0000 </r>
       <r>  -12.8654    1.0000 </r>
       <r>  -10.7821    1.0000 </r>
       <r>  -10.5827    1.0000 </r>
       <r>  -10.3147    1.0000 </r>
       <r>  -10.1935    1.0000 </r>
       <r>   -3.0447    1.0000 </r>
       <r>   -2.8055    1.0000 </r>
       <r>   -1.7800    1.0000 </r>
       <r>   -1.3880    1.0000 </r>
       <r>   -0.7115    1.0000 </r>
       <r>   -0.4418    1.0000 </r>
       <r>   -0.2738    1.0000 </r>
       <r>   -0.2264    1.0000 </r>
       <r>   -0.0008    1.0000 </r>
       <r>    0.1161    1.0000 </r>
       <r>    0.3249    1.0000 </r>
       <r>    0.4232    1.0000 </r>
       <r>    1.0011    1.0000 </r>
       <r>    1.0816    1.0000 </r>
       <r>    1.2307    1.0000 </r>
       <r>    1.4319    1.0000 </r>
       <r>    1.9125    1.0000 </r>
       <r>    1.9700    1.0000 </r>
       <r>    2.2033    1.0000 </r>
       <r>    2.3641    1.0000 </r>
       <r>    2.7052    1.0000 </r>
       <r>    2.7781    1.0000 </r>
       <r>    6.0413    0.0000 </r>
       <r>    6.3938    0.0000 </r>
       <r>    7.6861    0.0000 </r>
       <r>    8.2918    0.0000 </r>
       <r>    8.6871    0.0000 </r>
       <r>    9.0168    0.0000 </r>
       <r>    9.1119    0.0000 </r>
       <r>    9.5831    0.0000 </r>
       <r>   10.2275    0.0000 </r>
       <r>   10.5610    0.0000 </r>
       <r>   11.0865    0.0000 </r>
       <r>   11.2536    0.0000 </r>
      </set>
      <set comment="kpoint 14">
       <r>  -13.1957    1.0000 </r>
       <r>  -13.1914    1.0000 </r>
       <r>  -13.1274    1.0000 </r>
       <r>  -13.0460    1.0000 </r>
       <r>  -12.9589    1.0000 </r>
       <r>  -12.9514    1.0000 </r>
       <r>  -12.8865    1.0000 </r>
       <r>  -12.8795    1.0000 </r>
       <r>  -12.8666    1.0000 </r>
       <r>  -12.8601    1.0000 </r>
       <r>  -10.9495    1.0000 </r>
       <r>  -10.4319    1.0000 </r>
       <r>  -10.2748    1.0000 </r>
       <r>  -10.2521    1.0000 </r>
       <r>   -2.9907    1.0000 </r>
       <r>   -2.7478    1.0000 </r>
       <r>   -1.6166    1.0000 </r>
       <r>   -1.1506    1.0000 </r>
       <r>   -0.5249    1.0000 </r>
       <r>   -0.4667    1.0000 </r>
       <r>   -0.3357    1.0000 </r>
       <r>   -0.1573    1.0000 </r>
       <r>   -0.0606    1.0000 </r>
       <r>    0.0646    1.0000 </r>
       <r>    0.2875    1.0000 </r>
       <r>    0.3238    1.0000 </r>
       <r>    1.0258    1.0000 </r>
       <r>    1.0564    1.0000 </r>
       <r>    1.3065    1.0000 </r>
       <r>    1.3531    1.0000 </r>
       <r>    1.5635    1.0000 </r>
       <r>    1.7860    1.0000 </r>
       <r>    2.0322    1.0000 </r>
       <r>    2.2633    1.0000 </r>
       <r>    2.9406    1.0000 </r>
       <r>    3.0066    1.0000 </r>
       <r>    5.7445    0.0000 </r>
       <r>    6.4357    0.0000 </r>
       <r>    7.2885    0.0000 </r>
       <r>    7.5720    0.0000 </r>
       <r>    8.2040    0.0000 </r>
       <r>    9.0015    0.0000 </r>
       <r>    9.6482    0.0000 </r>
       <r>    9.8584    0.0000 </r>
       <r>   10.0935    0.0000 </r>
       <r>   10.3432    0.0000 </r>
       <r>   10.8914    0.0000 </r>
       <r>   11.3832    0.0000 </r>
      </set>
      <set comment="kpoint 15">
       <r>  -13.2014    1.0000 </r>
       <r>  -13.2014    1.0000 </r>
       <r>  -13.0814    1.0000 </r>
       <r>  -13.0814    1.0000 </r>
       <r>  -12.9671    1.0000 </r>
       <r>  -12.9671    1.0000 </r>
       <r>  -12.8731    1.0000 </r>
       <r>  -12.8731    1.0000 </r>
       <r>  -12.8691    1.0000 </r>
       <r>  -12.8690    1.0000 </r>
       <r>  -10.5764    1.0000 </r>
       <r>  -10.5762    1.0000 </r>
       <r>  -10.3410    1.0000 </r>
       <r>  -10.3408    1.0000 </r>
       <r>   -3.1109    1.0000 </r>
       <r>   -3.1109    1.0000 </r>
       <r>   -1.8271    1.0000 </r>
       <r>   -1.8271    1.0000 </r>
       <r>   -0.4284    1.0000 </r>
       <r>   -0.4283    1.0000 </r>
       <r>   -0.1856    1.0000 </r>
       <r>   -0.1855    1.0000 </r>
       <r>    0.0716    1.0000 </r>
       <r>    0.0716    1.0000 </r>
       <r>    0.4092    1.0000 </r>
       <r>    0.4093    1.0000 </r>
       <r>    1.0039    1.0000 </r>
       <r>    1.0040    1.0000 </r>
       <r>    1.4811    1.0000 </r>
       <r>    1.4812    1.0000 </r>
       <r>    2.0465    1.0000 </r>
       <r>    2.0465    1.0000 </r>
       <r>    2.6186    1.0000 </r>
       <r>    2.6186    1.0000 </r>
       <r>    2.8266    1.0000 </r>
       <r>    2.8266    1.0000 </r>
       <r>    5.7114    0.0000 </r>
       <r>    5.7114    0.0000 </r>
       <r>    7.7623    0.0000 </r>
       <r>    7.7624    0.0000 </r>
       <r>    9.0769    0.0000 </r>
       <r>    9.0770    0.0000 </r>
       <r>    9.5673    0.0000 </r>
       <r>    9.5674    0.0000 </r>
       <r>   10.4083    0.0000 </r>
       <r>   10.4084    0.0000 </r>
       <r>   10.7302    0.0000 </r>
       <r>   10.7302    0.0000 </r>
      </set>
      <set comment="kpoint 16">
       <r>  -13.2027    1.0000 </r>
       <r>  -13.1925    1.0000 </r>
       <r>  -13.1199    1.0000 </r>
       <r>  -13.0451    1.0000 </r>
       <r>  -12.9684    1.0000 </r>
       <r>  -12.9558    1.0000 </r>
       <r>  -12.8806    1.0000 </r>
       <r>  -12.8768    1.0000 </r>
       <r>  -12.8658    1.0000 </r>
       <r>  -12.8654    1.0000 </r>
       <r>  -10.8089    1.0000 </r>
       <r>  -10.4924    1.0000 </r>
       <r>  -10.4017    1.0000 </r>
       <r>  -10.1704    1.0000 </r>
       <r>   -3.0288    1.0000 </r>
       <r>   -2.8519    1.0000 </r>
       <r>   -1.6729    1.0000 </r>
       <r>   -1.3640    1.0000 </r>
       <r>   -0.8964    1.0000 </r>
       <r>   -0.3769    1.0000 </r>
       <r>   -0.2556    1.0000 </r>
       <r>   -0.1740    1.0000 </r>
       <r>   -0.0765    1.0000 </r>
       <r>    0.1245    1.0000 </r>
       <r>    0.3013    1.0000 </r>
       <r>    0.4937    1.0000 </r>
       <r>    1.0327    1.0000 </r>
       <r>    1.0590    1.0000 </r>
       <r>    1.1737    1.0000 </r>
       <r>    1.4718    1.0000 </r>
       <r>    1.8028    1.0000 </r>
       <r>    1.9348    1.0000 </r>
       <r>    2.1035    1.0000 </r>
       <r>    2.4710    1.0000 </r>
       <r>    2.7535    1.0000 </r>
       <r>    2.8817    1.0000 </r>
       <r>    6.0962    0.0000 </r>
       <r>    6.2501    0.0000 </r>
       <r>    7.8849    0.0000 </r>
       <r>    8.2062    0.0000 </r>
       <r>    8.5314    0.0000 </r>
       <r>    8.9982    0.0000 </r>
       <r>    9.3400    0.0000 </r>
       <r>    9.7969    0.0000 </r>
       <r>   10.0712    0.0000 </r>
       <r>   10.5567    0.0000 </r>
       <r>   10.7399    0.0000 </r>
       <r>   10.8259    0.0000 </r>
      </set>
      <set comment="kpoint 17">
       <r>  -13.1914    1.0000 </r>
       <r>  -13.1909    1.0000 </r>
       <r>  -13.1496    1.0000 </r>
       <r>  -13.0024    1.0000 </r>
       <r>  -12.9697    1.0000 </r>
       <r>  -12.9590    1.0000 </r>
       <r>  -12.8839    1.0000 </r>
       <r>  -12.8758    1.0000 </r>
       <r>  -12.8694    1.0000 </r>
       <r>  -12.8632    1.0000 </r>
       <r>  -11.1910    1.0000 </r>
       <r>  -10.2863    1.0000 </r>
       <r>  -10.2550    1.0000 </r>
       <r>  -10.1100    1.0000 </r>
       <r>   -3.1072    1.0000 </r>
       <r>   -2.7138    1.0000 </r>
       <r>   -1.6794    1.0000 </r>
       <r>   -0.9914    1.0000 </r>
       <r>   -0.8652    1.0000 </r>
       <r>   -0.5152    1.0000 </r>
       <r>   -0.4027    1.0000 </r>
       <r>   -0.2104    1.0000 </r>
       <r>   -0.0969    1.0000 </r>
       <r>    0.0656    1.0000 </r>
       <r>    0.2127    1.0000 </r>
       <r>    0.5555    1.0000 </r>
       <r>    0.9896    1.0000 </r>
       <r>    1.1432    1.0000 </r>
       <r>    1.2452    1.0000 </r>
       <r>    1.3075    1.0000 </r>
       <r>    1.6009    1.0000 </r>
       <r>    1.8623    1.0000 </r>
       <r>    1.9497    1.0000 </r>
       <r>    2.1709    1.0000 </r>
       <r>    2.8966    1.0000 </r>
       <r>    3.3532    1.0000 </r>
       <r>    5.8371    0.0000 </r>
       <r>    6.5229    0.0000 </r>
       <r>    7.5822    0.0000 </r>
       <r>    7.8097    0.0000 </r>
       <r>    8.5797    0.0000 </r>
       <r>    8.8514    0.0000 </r>
       <r>    9.4232    0.0000 </r>
       <r>    9.7399    0.0000 </r>
       <r>   10.1662    0.0000 </r>
       <r>   10.2580    0.0000 </r>
       <r>   11.0042    0.0000 </r>
       <r>   11.6399    0.0000 </r>
      </set>
     </set>
     <set comment="spin 2">
      <set comment="kpoint 1">
       <r>  -13.1860    1.0000 </r>
       <r>  -13.1735    1.0000 </r>
       <r>  -13.1735    1.0000 </r>
       <r>  -12.9742    1.0000 </r>
       <r>  -12.9548    1.0000 </r>
       <r>  -12.9548    1.0000 </r>
       <r>  -12.8874    1.0000 </r>
       <r>  -12.8830    1.0000 </r>
       <r>  -12.8674    1.0000 </r>
       <r>  -12.8626    1.0000 </r>
       <r>  -11.5572    1.0000 </r>
       <r>  -10.0926    1.0000 </r>
       <r>  -10.0749    1.0000 </r>
       <r>  -10.0749    1.0000 </r>
       <r>   -3.2810    1.0000 </r>
       <r>   -2.4675    1.0000 </r>
       <r>   -1.4766    1.0000 </r>
       <r>   -0.9131    1.0000 </r>
       <r>   -0.8375    1.0000 </r>
       <r>   -0.2985    1.0000 </r>
       <r>   -0.2985    1.0000 </r>
       <r>   -0.0565    1.0000 </r>
       <r>   -0.0564    1.0000 </r>
       <r>    0.0196    1.0000 </r>
       <r>    0.0197    1.0000 </r>
       <r>    0.0316    1.0000 </r>
       <r>    0.9214    1.0000 </r>
       <r>    0.9481    1.0000 </r>
       <r>    1.0136    1.0000 </r>
       <r>    1.3865    1.0000 </r>
       <r>    1.4730    1.0000 </r>
       <r>    1.4731    1.0000 </r>
       <r>    1.5694    1.0000 </r>
       <r>    3.5471    1.0000 </r>
       <r>    3.5627    1.0000 </r>
       <r>    3.5629    1.0000 </r>
       <r>    4.3263    0.0000 </r>
       <r>    6.3598    0.0000 </r>
       <r>    6.5235    0.0000 </r>
       <r>    8.4400    0.0000 </r>
       <r>    8.4401    0.0000 </r>
       <r>    9.1658    0.0000 </r>
       <r>    9.5296    0.0000 </r>
       <r>    9.5296    0.0000 </r>
       <r>    9.7740    0.0000 </r>
       <r>   10.0560    0.0000 </r>
       <r>   10.8203    0.0000 </r>
       <r>   10.8203    0.0000 </r>
      </set>
      <set comment="kpoint 2">
       <r>  -13.1894    1.0000 </r>
       <r>  -13.1822    1.0000 </r>
       <r>  -13.1611    1.0000 </r>
       <r>  -12.9930    1.0000 </r>
       <r>  -12.9686    1.0000 </r>
       <r>  -12.9495    1.0000 </r>
       <r>  -12.8881    1.0000 </r>
       <r>  -12.8776    1.0000 </r>
       <r>  -12.8705    1.0000 </r>
       <r>  -12.8606    1.0000 </r>
       <r>  -11.3279    1.0000 </r>
       <r>  -10.2424    1.0000 </r>
       <r>  -10.1716    1.0000 </r>
       <r>  -10.1097    1.0000 </r>
       <r>   -3.1007    1.0000 </r>
       <r>   -2.5372    1.0000 </r>
       <r>   -1.4980    1.0000 </r>
       <r>   -1.0123    1.0000 </r>
       <r>   -0.7303    1.0000 </r>
       <r>   -0.4137    1.0000 </r>
       <r>   -0.3889    1.0000 </r>
       <r>   -0.2526    1.0000 </r>
       <r>   -0.1315    1.0000 </r>
       <r>   -0.0023    1.0000 </r>
       <r>    0.1095    1.0000 </r>
       <r>    0.3624    1.0000 </r>
       <r>    0.9966    1.0000 </r>
       <r>    1.0924    1.0000 </r>
       <r>    1.1811    1.0000 </r>
       <r>    1.3021    1.0000 </r>
       <r>    1.4488    1.0000 </r>
       <r>    1.7411    1.0000 </r>
       <r>    1.7731    1.0000 </r>
       <r>    2.3654    1.0000 </r>
       <r>    3.0368    1.0000 </r>
       <r>    3.3059    1.0000 </r>
       <r>    5.7055    0.0000 </r>
       <r>    6.8484    0.0000 </r>
       <r>    7.2669    0.0000 </r>
       <r>    7.7657    0.0000 </r>
       <r>    8.0543    0.0000 </r>
       <r>    9.0090    0.0000 </r>
       <r>    9.4918    0.0000 </r>
       <r>    9.6243    0.0000 </r>
       <r>    9.7315    0.0000 </r>
       <r>   10.2830    0.0000 </r>
       <r>   10.8372    0.0000 </r>
       <r>   11.5111    0.0000 </r>
      </set>
      <set comment="kpoint 3">
       <r>  -13.1982    1.0000 </r>
       <r>  -13.1873    1.0000 </r>
       <r>  -13.1411    1.0000 </r>
       <r>  -13.0231    1.0000 </r>
       <r>  -12.9725    1.0000 </r>
       <r>  -12.9456    1.0000 </r>
       <r>  -12.8848    1.0000 </r>
       <r>  -12.8813    1.0000 </r>
       <r>  -12.8641    1.0000 </r>
       <r>  -12.8634    1.0000 </r>
       <r>  -10.8728    1.0000 </r>
       <r>  -10.6630    1.0000 </r>
       <r>  -10.2367    1.0000 </r>
       <r>  -10.1389    1.0000 </r>
       <r>   -2.8719    1.0000 </r>
       <r>   -2.5344    1.0000 </r>
       <r>   -1.4241    1.0000 </r>
       <r>   -1.1152    1.0000 </r>
       <r>   -0.9331    1.0000 </r>
       <r>   -0.6147    1.0000 </r>
       <r>   -0.3962    1.0000 </r>
       <r>   -0.2405    1.0000 </r>
       <r>   -0.0973    1.0000 </r>
       <r>    0.0627    1.0000 </r>
       <r>    0.2211    1.0000 </r>
       <r>    0.3834    1.0000 </r>
       <r>    1.0492    1.0000 </r>
       <r>    1.1025    1.0000 </r>
       <r>    1.1658    1.0000 </r>
       <r>    1.3869    1.0000 </r>
       <r>    1.5500    1.0000 </r>
       <r>    1.8293    1.0000 </r>
       <r>    2.1142    1.0000 </r>
       <r>    2.1341    1.0000 </r>
       <r>    2.3704    1.0000 </r>
       <r>    2.9250    1.0000 </r>
       <r>    6.5745    0.0000 </r>
       <r>    6.9644    0.0000 </r>
       <r>    7.6790    0.0000 </r>
       <r>    8.3735    0.0000 </r>
       <r>    8.6217    0.0000 </r>
       <r>    8.8561    0.0000 </r>
       <r>    9.2970    0.0000 </r>
       <r>    9.6634    0.0000 </r>
       <r>    9.9568    0.0000 </r>
       <r>   10.1155    0.0000 </r>
       <r>   10.8476    0.0000 </r>
       <r>   11.2604    0.0000 </r>
      </set>
      <set comment="kpoint 4">
       <r>  -13.1942    1.0000 </r>
       <r>  -13.1899    1.0000 </r>
       <r>  -13.1397    1.0000 </r>
       <r>  -13.0261    1.0000 </r>
       <r>  -12.9639    1.0000 </r>
       <r>  -12.9537    1.0000 </r>
       <r>  -12.8864    1.0000 </r>
       <r>  -12.8762    1.0000 </r>
       <r>  -12.8696    1.0000 </r>
       <r>  -12.8602    1.0000 </r>
       <r>  -11.0568    1.0000 </r>
       <r>  -10.3449    1.0000 </r>
       <r>  -10.2676    1.0000 </r>
       <r>  -10.2139    1.0000 </r>
       <r>   -3.0441    1.0000 </r>
       <r>   -2.7213    1.0000 </r>
       <r>   -1.6707    1.0000 </r>
       <r>   -1.0436    1.0000 </r>
       <r>   -0.5860    1.0000 </r>
       <r>   -0.5459    1.0000 </r>
       <r>   -0.3986    1.0000 </r>
       <r>   -0.2024    1.0000 </r>
       <r>   -0.0147    1.0000 </r>
       <r>    0.0297    1.0000 </r>
       <r>    0.2574    1.0000 </r>
       <r>    0.4085    1.0000 </r>
       <r>    0.9963    1.0000 </r>
       <r>    1.1140    1.0000 </r>
       <r>    1.2922    1.0000 </r>
       <r>    1.3513    1.0000 </r>
       <r>    1.5988    1.0000 </r>
       <r>    1.7789    1.0000 </r>
       <r>    1.9162    1.0000 </r>
       <r>    2.2471    1.0000 </r>
       <r>    3.0743    1.0000 </r>
       <r>    3.1200    1.0000 </r>
       <r>    5.6659    0.0000 </r>
       <r>    6.4672    0.0000 </r>
       <r>    7.3305    0.0000 </r>
       <r>    7.5817    0.0000 </r>
       <r>    8.2494    0.0000 </r>
       <r>    9.2161    0.0000 </r>
       <r>    9.8457    0.0000 </r>
       <r>    9.8755    0.0000 </r>
       <r>   10.1550    0.0000 </r>
       <r>   10.3237    0.0000 </r>
       <r>   11.0990    0.0000 </r>
       <r>   11.2213    0.0000 </r>
      </set>
      <set comment="kpoint 5">
       <r>  -13.2018    1.0000 </r>
       <r>  -13.1927    1.0000 </r>
       <r>  -13.1220    1.0000 </r>
       <r>  -13.0419    1.0000 </r>
       <r>  -12.9697    1.0000 </r>
       <r>  -12.9559    1.0000 </r>
       <r>  -12.8807    1.0000 </r>
       <r>  -12.8768    1.0000 </r>
       <r>  -12.8656    1.0000 </r>
       <r>  -12.8653    1.0000 </r>
       <r>  -10.7966    1.0000 </r>
       <r>  -10.5441    1.0000 </r>
       <r>  -10.3515    1.0000 </r>
       <r>  -10.1801    1.0000 </r>
       <r>   -3.0377    1.0000 </r>
       <r>   -2.8273    1.0000 </r>
       <r>   -1.7319    1.0000 </r>
       <r>   -1.3717    1.0000 </r>
       <r>   -0.8103    1.0000 </r>
       <r>   -0.4002    1.0000 </r>
       <r>   -0.2658    1.0000 </r>
       <r>   -0.2039    1.0000 </r>
       <r>   -0.0374    1.0000 </r>
       <r>    0.1263    1.0000 </r>
       <r>    0.3039    1.0000 </r>
       <r>    0.4651    1.0000 </r>
       <r>    1.0157    1.0000 </r>
       <r>    1.0741    1.0000 </r>
       <r>    1.2034    1.0000 </r>
       <r>    1.4407    1.0000 </r>
       <r>    1.8582    1.0000 </r>
       <r>    1.9666    1.0000 </r>
       <r>    2.1506    1.0000 </r>
       <r>    2.4076    1.0000 </r>
       <r>    2.7166    1.0000 </r>
       <r>    2.8504    1.0000 </r>
       <r>    6.0531    0.0000 </r>
       <r>    6.3410    0.0000 </r>
       <r>    7.7578    0.0000 </r>
       <r>    8.2386    0.0000 </r>
       <r>    8.7182    0.0000 </r>
       <r>    8.9301    0.0000 </r>
       <r>    9.2177    0.0000 </r>
       <r>    9.7105    0.0000 </r>
       <r>   10.0427    0.0000 </r>
       <r>   10.6944    0.0000 </r>
       <r>   10.9318    0.0000 </r>
       <r>   11.0213    0.0000 </r>
      </set>
      <set comment="kpoint 6">
       <r>  -13.1920    1.0000 </r>
       <r>  -13.1902    1.0000 </r>
       <r>  -13.1502    1.0000 </r>
       <r>  -12.9998    1.0000 </r>
       <r>  -12.9697    1.0000 </r>
       <r>  -12.9598    1.0000 </r>
       <r>  -12.8828    1.0000 </r>
       <r>  -12.8773    1.0000 </r>
       <r>  -12.8671    1.0000 </r>
       <r>  -12.8649    1.0000 </r>
       <r>  -11.2085    1.0000 </r>
       <r>  -10.2812    1.0000 </r>
       <r>  -10.2528    1.0000 </r>
       <r>  -10.0926    1.0000 </r>
       <r>   -3.1149    1.0000 </r>
       <r>   -2.7149    1.0000 </r>
       <r>   -1.6691    1.0000 </r>
       <r>   -0.9930    1.0000 </r>
       <r>   -0.9215    1.0000 </r>
       <r>   -0.5284    1.0000 </r>
       <r>   -0.3513    1.0000 </r>
       <r>   -0.2096    1.0000 </r>
       <r>   -0.1305    1.0000 </r>
       <r>    0.0745    1.0000 </r>
       <r>    0.2074    1.0000 </r>
       <r>    0.5813    1.0000 </r>
       <r>    0.9949    1.0000 </r>
       <r>    1.1218    1.0000 </r>
       <r>    1.2239    1.0000 </r>
       <r>    1.3269    1.0000 </r>
       <r>    1.5926    1.0000 </r>
       <r>    1.9682    1.0000 </r>
       <r>    1.9921    1.0000 </r>
       <r>    2.0461    1.0000 </r>
       <r>    2.8509    1.0000 </r>
       <r>    3.3849    1.0000 </r>
       <r>    5.8911    0.0000 </r>
       <r>    6.5333    0.0000 </r>
       <r>    7.5932    0.0000 </r>
       <r>    8.0615    0.0000 </r>
       <r>    8.5533    0.0000 </r>
       <r>    8.7194    0.0000 </r>
       <r>    9.2508    0.0000 </r>
       <r>    9.7940    0.0000 </r>
       <r>   10.0510    0.0000 </r>
       <r>   10.1830    0.0000 </r>
       <r>   11.0450    0.0000 </r>
       <r>   11.7157    0.0000 </r>
      </set>
      <set comment="kpoint 7">
       <r>  -13.2012    1.0000 </r>
       <r>  -13.2012    1.0000 </r>
       <r>  -13.0814    1.0000 </r>
       <r>  -13.0814    1.0000 </r>
       <r>  -12.9669    1.0000 </r>
       <r>  -12.9669    1.0000 </r>
       <r>  -12.8731    1.0000 </r>
       <r>  -12.8731    1.0000 </r>
       <r>  -12.8691    1.0000 </r>
       <r>  -12.8690    1.0000 </r>
       <r>  -10.5772    1.0000 </r>
       <r>  -10.5769    1.0000 </r>
       <r>  -10.3397    1.0000 </r>
       <r>  -10.3395    1.0000 </r>
       <r>   -3.1410    1.0000 </r>
       <r>   -3.1410    1.0000 </r>
       <r>   -1.7149    1.0000 </r>
       <r>   -1.7149    1.0000 </r>
       <r>   -0.5496    1.0000 </r>
       <r>   -0.5496    1.0000 </r>
       <r>   -0.1778    1.0000 </r>
       <r>   -0.1777    1.0000 </r>
       <r>    0.1464    1.0000 </r>
       <r>    0.1465    1.0000 </r>
       <r>    0.3166    1.0000 </r>
       <r>    0.3167    1.0000 </r>
       <r>    1.0315    1.0000 </r>
       <r>    1.0317    1.0000 </r>
       <r>    1.3769    1.0000 </r>
       <r>    1.3770    1.0000 </r>
       <r>    2.1301    1.0000 </r>
       <r>    2.1303    1.0000 </r>
       <r>    2.6059    1.0000 </r>
       <r>    2.6063    1.0000 </r>
       <r>    2.9743    1.0000 </r>
       <r>    2.9748    1.0000 </r>
       <r>    5.5028    0.0000 </r>
       <r>    5.5033    0.0000 </r>
       <r>    7.8943    0.0000 </r>
       <r>    7.8944    0.0000 </r>
       <r>    9.1802    0.0000 </r>
       <r>    9.1802    0.0000 </r>
       <r>    9.6246    0.0000 </r>
       <r>    9.6247    0.0000 </r>
       <r>   10.4939    0.0000 </r>
       <r>   10.4939    0.0000 </r>
       <r>   10.9189    0.0000 </r>
       <r>   10.9593    0.0000 </r>
      </set>
      <set comment="kpoint 8">
       <r>  -13.1824    1.0000 </r>
       <r>  -13.1824    1.0000 </r>
       <r>  -13.1464    1.0000 </r>
       <r>  -13.0449    1.0000 </r>
       <r>  -12.9406    1.0000 </r>
       <r>  -12.9406    1.0000 </r>
       <r>  -12.8949    1.0000 </r>
       <r>  -12.8848    1.0000 </r>
       <r>  -12.8662    1.0000 </r>
       <r>  -12.8564    1.0000 </r>
       <r>  -11.2221    1.0000 </r>
       <r>  -10.5047    1.0000 </r>
       <r>  -10.0935    1.0000 </r>
       <r>  -10.0935    1.0000 </r>
       <r>   -3.1198    1.0000 </r>
       <r>   -2.8163    1.0000 </r>
       <r>   -1.3436    1.0000 </r>
       <r>   -0.6736    1.0000 </r>
       <r>   -0.3212    1.0000 </r>
       <r>   -0.3212    1.0000 </r>
       <r>   -0.2438    1.0000 </r>
       <r>   -0.0988    1.0000 </r>
       <r>   -0.0988    1.0000 </r>
       <r>    0.1265    1.0000 </r>
       <r>    0.2800    1.0000 </r>
       <r>    0.2800    1.0000 </r>
       <r>    0.8958    1.0000 </r>
       <r>    0.9864    1.0000 </r>
       <r>    1.1181    1.0000 </r>
       <r>    1.1892    1.0000 </r>
       <r>    1.5614    1.0000 </r>
       <r>    1.9287    1.0000 </r>
       <r>    1.9287    1.0000 </r>
       <r>    2.2391    1.0000 </r>
       <r>    2.9175    1.0000 </r>
       <r>    2.9175    1.0000 </r>
       <r>    5.8841    0.0000 </r>
       <r>    6.3438    0.0000 </r>
       <r>    6.7743    0.0000 </r>
       <r>    6.7744    0.0000 </r>
       <r>    6.8042    0.0000 </r>
       <r>    7.7855    0.0000 </r>
       <r>    8.7838    0.0000 </r>
       <r>    8.8148    0.0000 </r>
       <r>   10.4848    0.0000 </r>
       <r>   10.4850    0.0000 </r>
       <r>   12.3567    0.0000 </r>
       <r>   12.4362    0.0000 </r>
      </set>
      <set comment="kpoint 9">
       <r>  -13.1972    1.0000 </r>
       <r>  -13.1835    1.0000 </r>
       <r>  -13.1142    1.0000 </r>
       <r>  -13.0747    1.0000 </r>
       <r>  -12.9502    1.0000 </r>
       <r>  -12.9381    1.0000 </r>
       <r>  -12.8892    1.0000 </r>
       <r>  -12.8870    1.0000 </r>
       <r>  -12.8618    1.0000 </r>
       <r>  -12.8596    1.0000 </r>
       <r>  -10.8506    1.0000 </r>
       <r>  -10.6861    1.0000 </r>
       <r>  -10.3291    1.0000 </r>
       <r>  -10.0866    1.0000 </r>
       <r>   -2.9045    1.0000 </r>
       <r>   -2.7776    1.0000 </r>
       <r>   -1.2266    1.0000 </r>
       <r>   -1.0310    1.0000 </r>
       <r>   -0.5921    1.0000 </r>
       <r>   -0.3766    1.0000 </r>
       <r>   -0.2468    1.0000 </r>
       <r>   -0.1454    1.0000 </r>
       <r>   -0.0934    1.0000 </r>
[...]
        <r>  0.0043  0.0011  0.0037  0.0057  0.0584  0.0359  0.0148  0.0516  0.0183 </r>
        <r>  0.0043  0.0052  0.0037  0.0016  0.0438  0.0410  0.0148  0.0465  0.0329 </r>
        <r>  0.0008  0.0092  0.0259  0.0355  0.0000  0.0001  0.0002  0.0000  0.0001 </r>
        <r>  0.0004  0.0018  0.0237  0.0548  0.0000  0.0002  0.0001  0.0001  0.0001 </r>
        <r>  0.0004  0.0552  0.0237  0.0014  0.0000  0.0001  0.0001  0.0002  0.0001 </r>
        <r>  0.0008  0.0363  0.0259  0.0083  0.0000  0.0000  0.0002  0.0001  0.0001 </r>
       </set>
       <set comment="band 25">
        <r>  0.0002  0.0081  0.0034  0.0066  0.0001  0.0013  0.0001  0.0016  0.0016 </r>
        <r>  0.0002  0.0039  0.0034  0.0107  0.0003  0.0013  0.0001  0.0017  0.0014 </r>
        <r>  0.0010  0.0009  0.0016  0.0001  0.0103  0.1129  0.0154  0.0308  0.0708 </r>
        <r>  0.0010  0.0002  0.0016  0.0008  0.0334  0.0279  0.0154  0.1158  0.0476 </r>
        <r>  0.0000  0.0059  0.0170  0.0319  0.0000  0.0003  0.0001  0.0002  0.0000 </r>
        <r>  0.0001  0.0226  0.0192  0.0208  0.0000  0.0001  0.0001  0.0002  0.0003 </r>
        <r>  0.0001  0.0129  0.0192  0.0305  0.0000  0.0002  0.0001  0.0001  0.0003 </r>
        <r>  0.0000  0.0269  0.0170  0.0109  0.0000  0.0001  0.0001  0.0003  0.0000 </r>
       </set>
       <set comment="band 26">
        <r>  0.0004  0.0142  0.0075  0.0105  0.0032  0.0005  0.0005  0.0030  0.0011 </r>
        <r>  0.0004  0.0073  0.0075  0.0174  0.0017  0.0028  0.0005  0.0007  0.0026 </r>
        <r>  0.0019  0.0014  0.0017  0.0007  0.0181  0.0265  0.0152  0.0431  0.0360 </r>
        <r>  0.0019  0.0008  0.0017  0.0013  0.0388  0.0517  0.0152  0.0179  0.0153 </r>
        <r>  0.0001  0.0077  0.0405  0.0324  0.0002  0.0001  0.0000  0.0001  0.0003 </r>
        <r>  0.0002  0.0501  0.0200  0.0101  0.0000  0.0003  0.0001  0.0001  0.0000 </r>
        <r>  0.0002  0.0084  0.0200  0.0518  0.0000  0.0001  0.0001  0.0003  0.0000 </r>
        <r>  0.0001  0.0263  0.0405  0.0138  0.0002  0.0001  0.0000  0.0001  0.0002 </r>
       </set>
       <set comment="band 27">
        <r>  0.0017  0.0006  0.0006  0.0004  0.0000  0.0000  0.0000  0.0000  0.0000 </r>
        <r>  0.0017  0.0006  0.0006  0.0004  0.0000  0.0000  0.0000  0.0000  0.0000 </r>
        <r>  0.0001  0.0001  0.0001  0.0001  0.2900  0.0125  0.0235  0.0898  0.0421 </r>
        <r>  0.0001  0.0001  0.0001  0.0001  0.1800  0.0806  0.0235  0.0217  0.1521 </r>
        <r>  0.0005  0.0001  0.0000  0.0004  0.0004  0.0002  0.0001  0.0000  0.0011 </r>
        <r>  0.0002  0.0002  0.0006  0.0005  0.0000  0.0001  0.0005  0.0006  0.0000 </r>
        <r>  0.0002  0.0006  0.0006  0.0001  0.0000  0.0005  0.0005  0.0002  0.0000 </r>
        <r>  0.0005  0.0004  0.0000  0.0001  0.0009  0.0000  0.0001  0.0002  0.0005 </r>
       </set>
       <set comment="band 28">
        <r>  0.0002  0.0051  0.0039  0.0004  0.0009  0.0001  0.0001  0.0006  0.0004 </r>
        <r>  0.0002  0.0005  0.0039  0.0049  0.0004  0.0006  0.0001  0.0001  0.0008 </r>
        <r>  0.0007  0.0006  0.0011  0.0009  0.0184  0.0289  0.0146  0.1180  0.2013 </r>
        <r>  0.0007  0.0007  0.0011  0.0008  0.0028  0.0959  0.0146  0.0509  0.2170 </r>
        <r>  0.0003  0.0054  0.0087  0.0058  0.0002  0.0001  0.0002  0.0002  0.0002 </r>
        <r>  0.0001  0.0124  0.0022  0.0057  0.0004  0.0002  0.0002  0.0004  0.0001 </r>
        <r>  0.0001  0.0056  0.0022  0.0125  0.0003  0.0004  0.0002  0.0002  0.0002 </r>
        <r>  0.0003  0.0040  0.0087  0.0072  0.0001  0.0001  0.0002  0.0002  0.0003 </r>
       </set>
       <set comment="band 29">
        <r>  0.0059  0.0031  0.0055  0.0010  0.0000  0.0001  0.0003  0.0001  0.0001 </r>
        <r>  0.0059  0.0017  0.0055  0.0023  0.0000  0.0001  0.0003  0.0001  0.0001 </r>
        <r>  0.0006  0.0008  0.0011  0.0008  0.0307  0.0783  0.1275  0.1265  0.0417 </r>
        <r>  0.0006  0.0011  0.0011  0.0005  0.0553  0.1617  0.1275  0.0431  0.0172 </r>
        <r>  0.0001  0.0017  0.0090  0.0020  0.0004  0.0002  0.0006  0.0002  0.0000 </r>
        <r>  0.0002  0.0036  0.0021  0.0020  0.0007  0.0002  0.0001  0.0001  0.0000 </r>
        <r>  0.0002  0.0027  0.0021  0.0029  0.0006  0.0001  0.0001  0.0001  0.0002 </r>
        <r>  0.0001  0.0026  0.0090  0.0011  0.0003  0.0002  0.0006  0.0002  0.0001 </r>
       </set>
       <set comment="band 30">
        <r>  0.0012  0.0003  0.0032  0.0111  0.0005  0.0007  0.0012  0.0003  0.0001 </r>
        <r>  0.0012  0.0102  0.0032  0.0012  0.0004  0.0004  0.0012  0.0006  0.0001 </r>
        <r>  0.0045  0.0007  0.0008  0.0006  0.0188  0.1566  0.1016  0.0353  0.0381 </r>
        <r>  0.0045  0.0007  0.0008  0.0006  0.0026  0.0689  0.1016  0.1231  0.0544 </r>
        <r>  0.0007  0.0007  0.0176  0.0105  0.0005  0.0004  0.0000  0.0001  0.0001 </r>
        <r>  0.0001  0.0179  0.0052  0.0023  0.0002  0.0002  0.0008  0.0001  0.0001 </r>
        <r>  0.0001  0.0042  0.0052  0.0161  0.0003  0.0001  0.0008  0.0002  0.0000 </r>
        <r>  0.0007  0.0096  0.0176  0.0017  0.0005  0.0002  0.0000  0.0003  0.0001 </r>
       </set>
       <set comment="band 31">
        <r>  0.0041  0.0080  0.0009  0.0006  0.0003  0.0003  0.0004  0.0008  0.0002 </r>
        <r>  0.0041  0.0014  0.0009  0.0073  0.0003  0.0009  0.0004  0.0001  0.0002 </r>
        <r>  0.0051  0.0051  0.0021  0.0006  0.0425  0.0097  0.1849  0.0322  0.0533 </r>
        <r>  0.0051  0.0014  0.0021  0.0043  0.0693  0.0348  0.1849  0.0071  0.0264 </r>
        <r>  0.0024  0.0113  0.0047  0.0084  0.0002  0.0001  0.0003  0.0002  0.0003 </r>
        <r>  0.0023  0.0089  0.0139  0.0029  0.0003  0.0007  0.0005  0.0001  0.0005 </r>
        <r>  0.0023  0.0050  0.0139  0.0067  0.0001  0.0001  0.0005  0.0006  0.0007 </r>
        <r>  0.0024  0.0116  0.0047  0.0081  0.0003  0.0002  0.0003  0.0001  0.0001 </r>
       </set>
       <set comment="band 32">
        <r>  0.0208  0.0016  0.0029  0.0049  0.0002  0.0004  0.0006  0.0003  0.0002 </r>
        <r>  0.0208  0.0041  0.0029  0.0024  0.0003  0.0003  0.0006  0.0004  0.0001 </r>
        <r>  0.0022  0.0010  0.0017  0.0051  0.0110  0.0818  0.1611  0.0297  0.0225 </r>
        <r>  0.0022  0.0046  0.0017  0.0014  0.0016  0.0193  0.1611  0.0922  0.0319 </r>
        <r>  0.0041  0.0145  0.0045  0.0078  0.0001  0.0001  0.0003  0.0003  0.0000 </r>
        <r>  0.0097  0.0032  0.0145  0.0077  0.0000  0.0002  0.0000  0.0006  0.0002 </r>
        <r>  0.0097  0.0064  0.0145  0.0046  0.0000  0.0005  0.0000  0.0003  0.0001 </r>
        <r>  0.0041  0.0050  0.0045  0.0173  0.0001  0.0003  0.0003  0.0001  0.0001 </r>
       </set>
       <set comment="band 33">
        <r>  0.0001  0.0060  0.0082  0.0040  0.0005  0.0015  0.0001  0.0006  0.0012 </r>
        <r>  0.0001  0.0029  0.0082  0.0070  0.0008  0.0006  0.0001  0.0015  0.0009 </r>
        <r>  0.0001  0.0015  0.0078  0.0004  0.0204  0.1389  0.0117  0.0006  0.0891 </r>
        <r>  0.0001  0.0005  0.0078  0.0013  0.0614  0.0097  0.0117  0.1298  0.0481 </r>
        <r>  0.0007  0.0011  0.0205  0.0230  0.0000  0.0004  0.0000  0.0004  0.0002 </r>
        <r>  0.0010  0.0070  0.0292  0.0218  0.0001  0.0003  0.0002  0.0000  0.0001 </r>
        <r>  0.0010  0.0188  0.0292  0.0100  0.0001  0.0000  0.0002  0.0003  0.0002 </r>
        <r>  0.0007  0.0202  0.0205  0.0039  0.0000  0.0005  0.0000  0.0003  0.0001 </r>
       </set>
       <set comment="band 34">
        <r>  0.0087  0.0013  0.0077  0.0008  0.0019  0.0004  0.0001  0.0002  0.0000 </r>
        <r>  0.0087  0.0010  0.0077  0.0011  0.0018  0.0003  0.0001  0.0003  0.0001 </r>
        <r>  0.0029  0.0011  0.0026  0.0092  0.0129  0.0258  0.0514  0.0981  0.0666 </r>
        <r>  0.0029  0.0078  0.0026  0.0024  0.0336  0.0939  0.0514  0.0300  0.0459 </r>
        <r>  0.0068  0.0086  0.0129  0.0157  0.0000  0.0001  0.0001  0.0001  0.0006 </r>
        <r>  0.0015  0.0202  0.0156  0.0202  0.0003  0.0001  0.0001  0.0001  0.0000 </r>
        <r>  0.0015  0.0181  0.0156  0.0222  0.0002  0.0001  0.0001  0.0001  0.0001 </r>
        <r>  0.0068  0.0148  0.0129  0.0094  0.0000  0.0002  0.0001  0.0000  0.0006 </r>
       </set>
       <set comment="band 35">
        <r>  0.0034  0.0060  0.0019  0.0058  0.0030  0.0001  0.0001  0.0000  0.0004 </r>
        <r>  0.0034  0.0080  0.0019  0.0038  0.0034  0.0000  0.0001  0.0001  0.0000 </r>
        <r>  0.0004  0.0065  0.0062  0.0032  0.1679  0.0115  0.0018  0.0187  0.0035 </r>
        <r>  0.0004  0.0046  0.0062  0.0051  0.1566  0.0226  0.0018  0.0077  0.0148 </r>
        <r>  0.0001  0.0502  0.0194  0.0070  0.0003  0.0001  0.0005  0.0002  0.0001 </r>
        <r>  0.0010  0.0051  0.0328  0.0202  0.0005  0.0000  0.0006  0.0001  0.0001 </r>
        <r>  0.0010  0.0234  0.0328  0.0019  0.0004  0.0001  0.0006  0.0000  0.0003 </r>
        <r>  0.0001  0.0160  0.0194  0.0413  0.0002  0.0002  0.0005  0.0001  0.0002 </r>
       </set>
       <set comment="band 36">
        <r>  0.0001  0.0016  0.0007  0.0055  0.0001  0.0021  0.0000  0.0025  0.0031 </r>
        <r>  0.0001  0.0041  0.0007  0.0029  0.0003  0.0016  0.0000  0.0029  0.0029 </r>
        <r>  0.0000  0.0062  0.0005  0.0056  0.0059  0.0378  0.0011  0.0669  0.0641 </r>
        <r>  0.0000  0.0033  0.0005  0.0085  0.0014  0.0469  0.0011  0.0578  0.0686 </r>
        <r>  0.0011  0.0446  0.0027  0.0413  0.0001  0.0001  0.0001  0.0000  0.0006 </r>
        <r>  0.0009  0.0281  0.0036  0.0570  0.0002  0.0001  0.0001  0.0002  0.0001 </r>
        <r>  0.0009  0.0403  0.0036  0.0448  0.0003  0.0001  0.0001  0.0002  0.0000 </r>
        <r>  0.0011  0.0247  0.0027  0.0612  0.0004  0.0000  0.0001  0.0001  0.0003 </r>
       </set>
       <set comment="band 37">
        <r>  0.1023  0.0005  0.0101  0.0015  0.0001  0.0003  0.0001  0.0003  0.0000 </r>
        <r>  0.1023  0.0016  0.0101  0.0005  0.0001  0.0003  0.0001  0.0003  0.0000 </r>
        <r>  0.0086  0.0024  0.0051  0.0001  0.0030  0.0025  0.0059  0.0002  0.0004 </r>
        <r>  0.0086  0.0004  0.0051  0.0021  0.0033  0.0000  0.0059  0.0027  0.0001 </r>
        <r>  0.0195  0.0142  0.0175  0.0377  0.0005  0.0000  0.0006  0.0009  0.0002 </r>
        <r>  0.0222  0.0097  0.0227  0.0321  0.0003  0.0011  0.0010  0.0001  0.0001 </r>
        <r>  0.0222  0.0347  0.0227  0.0070  0.0002  0.0002  0.0010  0.0010  0.0002 </r>
        <r>  0.0195  0.0428  0.0175  0.0091  0.0007  0.0009  0.0006  0.0000  0.0000 </r>
       </set>
       <set comment="band 38">
        <r>  0.1186  0.0064  0.0070  0.0062  0.0021  0.0003  0.0005  0.0007  0.0000 </r>
        <r>  0.1186  0.0067  0.0070  0.0059  0.0019  0.0006  0.0005  0.0004  0.0002 </r>
        <r>  0.0001  0.0003  0.0036  0.0019  0.0104  0.0032  0.0073  0.0029  0.0006 </r>
        <r>  0.0001  0.0019  0.0036  0.0003  0.0107  0.0035  0.0073  0.0026  0.0003 </r>
        <r>  0.0090  0.0084  0.0334  0.0106  0.0022  0.0007  0.0026  0.0008  0.0005 </r>
        <r>  0.0068  0.0438  0.0039  0.0008  0.0050  0.0002  0.0005  0.0011  0.0000 </r>
        <r>  0.0068  0.0033  0.0039  0.0413  0.0042  0.0009  0.0005  0.0004  0.0008 </r>
        <r>  0.0090  0.0077  0.0334  0.0113  0.0028  0.0006  0.0026  0.0010  0.0000 </r>
       </set>
       <set comment="band 39">
        <r>  0.0134  0.0021  0.0335  0.0122  0.0071  0.0005  0.0038  0.0013  0.0002 </r>
        <r>  0.0134  0.0115  0.0335  0.0027  0.0067  0.0011  0.0038  0.0007  0.0005 </r>
        <r>  0.0172  0.0028  0.0040  0.0029  0.0060  0.0006  0.0017  0.0011  0.0003 </r>
        <r>  0.0172  0.0040  0.0040  0.0018  0.0059  0.0010  0.0017  0.0008  0.0004 </r>
        <r>  0.0097  0.0078  0.0158  0.0119  0.0021  0.0001  0.0033  0.0047  0.0000 </r>
        <r>  0.0076  0.0101  0.0057  0.0080  0.0020  0.0039  0.0021  0.0000  0.0007 </r>
        <r>  0.0076  0.0115  0.0057  0.0065  0.0027  0.0001  0.0021  0.0039  0.0001 </r>
        <r>  0.0097  0.0154  0.0158  0.0043  0.0018  0.0044  0.0033  0.0004  0.0003 </r>
       </set>
       <set comment="band 40">
        <r>  0.0126  0.0301  0.0313  0.0124  0.0004  0.0009  0.0025  0.0027  0.0001 </r>
        <r>  0.0126  0.0162  0.0313  0.0263  0.0003  0.0020  0.0025  0.0016  0.0002 </r>
        <r>  0.0272  0.0017  0.0021  0.0026  0.0006  0.0042  0.0040  0.0016  0.0004 </r>
        <r>  0.0272  0.0021  0.0021  0.0022  0.0006  0.0007  0.0040  0.0050  0.0003 </r>
        <r>  0.0176  0.0004  0.0049  0.0004  0.0000  0.0039  0.0068  0.0020  0.0000 </r>
        <r>  0.0143  0.0048  0.0192  0.0008  0.0003  0.0007  0.0014  0.0046  0.0001 </r>
        <r>  0.0143  0.0008  0.0192  0.0049  0.0003  0.0039  0.0014  0.0014  0.0000 </r>
        <r>  0.0176  0.0005  0.0049  0.0003  0.0000  0.0010  0.0068  0.0049  0.0000 </r>
       </set>
       <set comment="band 41">
        <r>  0.0108  0.0519  0.0014  0.0116  0.0039  0.0029  0.0034  0.0037  0.0012 </r>
        <r>  0.0108  0.0099  0.0014  0.0536  0.0022  0.0028  0.0034  0.0037  0.0029 </r>
        <r>  0.0076  0.0006  0.0015  0.0026  0.0004  0.0006  0.0036  0.0056  0.0006 </r>
        <r>  0.0076  0.0029  0.0015  0.0002  0.0001  0.0050  0.0036  0.0012  0.0009 </r>
        <r>  0.0015  0.0035  0.0090  0.0010  0.0009  0.0055  0.0013  0.0027  0.0014 </r>
        <r>  0.0008  0.0399  0.0059  0.0140  0.0028  0.0002  0.0027  0.0014  0.0045 </r>
        <r>  0.0008  0.0241  0.0059  0.0298  0.0005  0.0015  0.0027  0.0001  0.0067 </r>
        <r>  0.0015  0.0008  0.0090  0.0038  0.0011  0.0018  0.0013  0.0063  0.0012 </r>
       </set>
       <set comment="band 42">
        <r>  0.0094  0.0237  0.0000  0.0427  0.0023  0.0034  0.0023  0.0003  0.0022 </r>
        <r>  0.0094  0.0507  0.0000  0.0156  0.0027  0.0000  0.0023  0.0036  0.0018 </r>
        <r>  0.0332  0.0025  0.0019  0.0015  0.0029  0.0012  0.0011  0.0018  0.0043 </r>
        <r>  0.0332  0.0018  0.0019  0.0022  0.0056  0.0014  0.0011  0.0017  0.0016 </r>
        <r>  0.0073  0.0093  0.0137  0.0155  0.0020  0.0003  0.0005  0.0005  0.0033 </r>
        <r>  0.0076  0.0153  0.0033  0.0070  0.0073  0.0005  0.0027  0.0001  0.0066 </r>
        <r>  0.0076  0.0112  0.0033  0.0111  0.0108  0.0000  0.0027  0.0006  0.0030 </r>
        <r>  0.0073  0.0196  0.0137  0.0052  0.0004  0.0003  0.0005  0.0004  0.0049 </r>
       </set>
       <set comment="band 43">
        <r>  0.0068  0.0085  0.0224  0.0865  0.0003  0.0011  0.0005  0.0012  0.0052 </r>
        <r>  0.0068  0.0770  0.0224  0.0181  0.0004  0.0017  0.0005  0.0006  0.0051 </r>
        <r>  0.0065  0.0067  0.0010  0.0028  0.0023  0.0003  0.0012  0.0014  0.0005 </r>
        <r>  0.0065  0.0020  0.0010  0.0075  0.0013  0.0017  0.0012  0.0001  0.0015 </r>
        <r>  0.0032  0.0036  0.0187  0.0074  0.0012  0.0013  0.0017  0.0035  0.0018 </r>
        <r>  0.0079  0.0003  0.0007  0.0006  0.0010  0.0040  0.0020  0.0035  0.0121 </r>
        <r>  0.0079  0.0005  0.0007  0.0005  0.0043  0.0024  0.0020  0.0051  0.0087 </r>
        <r>  0.0032  0.0077  0.0187  0.0033  0.0003  0.0041  0.0017  0.0006  0.0027 </r>
       </set>
       <set comment="band 44">
        <r>  0.0073  0.0180  0.0646  0.0080  0.0010  0.0009  0.0004  0.0005  0.0001 </r>
        <r>  0.0073  0.0088  0.0646  0.0173  0.0008  0.0004  0.0004  0.0010  0.0003 </r>
        <r>  0.0171  0.0038  0.0097  0.0008  0.0001  0.0012  0.0057  0.0019  0.0002 </r>
        <r>  0.0171  0.0010  0.0097  0.0036  0.0001  0.0025  0.0057  0.0007  0.0002 </r>
        <r>  0.0011  0.0067  0.0291  0.0024  0.0002  0.0033  0.0084  0.0047  0.0001 </r>
        <r>  0.0029  0.0076  0.0098  0.0013  0.0043  0.0040  0.0090  0.0002  0.0002 </r>
        <r>  0.0029  0.0020  0.0098  0.0068  0.0038  0.0001  0.0090  0.0041  0.0008 </r>
        <r>  0.0011  0.0040  0.0291  0.0050  0.0002  0.0053  0.0084  0.0027  0.0001 </r>
       </set>
       <set comment="band 45">
        <r>  0.0027  0.0287  0.0166  0.0061  0.0021  0.0008  0.0009  0.0008  0.0023 </r>
        <r>  0.0027  0.0109  0.0166  0.0239  0.0031  0.0006  0.0009  0.0010  0.0013 </r>
        <r>  0.0189  0.0199  0.0017  0.0109  0.0025  0.0029  0.0003  0.0003  0.0016 </r>
        <r>  0.0189  0.0168  0.0017  0.0139  0.0027  0.0008  0.0003  0.0025  0.0014 </r>
        <r>  0.0018  0.0025  0.0067  0.0077  0.0149  0.0003  0.0012  0.0011  0.0084 </r>
        <r>  0.0002  0.0128  0.0029  0.0107  0.0078  0.0011  0.0018  0.0003  0.0037 </r>
        <r>  0.0002  0.0151  0.0029  0.0084  0.0048  0.0003  0.0018  0.0011  0.0067 </r>
        <r>  0.0018  0.0073  0.0067  0.0029  0.0198  0.0012  0.0012  0.0001  0.0036 </r>
       </set>
       <set comment="band 46">
        <r>  0.0001  0.0166  0.0036  0.0153  0.0006  0.0038  0.0014  0.0038  0.0000 </r>
        <r>  0.0001  0.0097  0.0036  0.0222  0.0006  0.0053  0.0014  0.0023  0.0000 </r>
        <r>  0.0530  0.0156  0.0002  0.0196  0.0009  0.0024  0.0001  0.0004  0.0021 </r>
        <r>  0.0530  0.0127  0.0002  0.0225  0.0009  0.0002  0.0001  0.0026  0.0022 </r>
        <r>  0.0013  0.0138  0.0048  0.0056  0.0101  0.0061  0.0003  0.0016  0.0114 </r>
        <r>  0.0038  0.0034  0.0060  0.0042  0.0025  0.0040  0.0008  0.0093  0.0013 </r>
        <r>  0.0038  0.0051  0.0060  0.0026  0.0019  0.0086  0.0008  0.0048  0.0019 </r>
        <r>  0.0013  0.0063  0.0048  0.0130  0.0055  0.0009  0.0003  0.0068  0.0160 </r>
       </set>
       <set comment="band 47">
        <r>  0.0132  0.0325  0.0018  0.0090  0.0003  0.0001  0.0007  0.0016  0.0050 </r>
        <r>  0.0132  0.0033  0.0018  0.0382  0.0018  0.0014  0.0007  0.0002  0.0035 </r>
        <r>  0.0307  0.0086  0.0093  0.0028  0.0004  0.0008  0.0006  0.0001  0.0022 </r>
        <r>  0.0307  0.0049  0.0093  0.0064  0.0002  0.0001  0.0006  0.0007  0.0025 </r>
        <r>  0.0060  0.0033  0.0061  0.0259  0.0044  0.0011  0.0019  0.0065  0.0009 </r>
        <r>  0.0016  0.0072  0.0184  0.0267  0.0003  0.0060  0.0089  0.0021  0.0006 </r>
        <r>  0.0016  0.0208  0.0184  0.0130  0.0001  0.0032  0.0089  0.0050  0.0008 </r>
        <r>  0.0060  0.0251  0.0061  0.0042  0.0046  0.0073  0.0019  0.0003  0.0006 </r>
       </set>
       <set comment="band 48">
        <r>  0.0027  0.0047  0.0110  0.0019  0.0006  0.0012  0.0009  0.0015  0.0029 </r>
        <r>  0.0027  0.0032  0.0110  0.0035  0.0001  0.0017  0.0009  0.0010  0.0034 </r>
        <r>  0.0187  0.0046  0.0013  0.0307  0.0027  0.0019  0.0022  0.0015  0.0032 </r>
        <r>  0.0187  0.0261  0.0013  0.0093  0.0011  0.0018  0.0022  0.0016  0.0047 </r>
        <r>  0.0001  0.0112  0.0076  0.0054  0.0062  0.0087  0.0028  0.0006  0.0096 </r>
        <r>  0.0029  0.0136  0.0194  0.0019  0.0003  0.0049  0.0012  0.0118  0.0003 </r>
        <r>  0.0029  0.0006  0.0194  0.0149  0.0005  0.0134  0.0012  0.0033  0.0001 </r>
        <r>  0.0001  0.0064  0.0076  0.0102  0.0086  0.0015  0.0028  0.0078  0.0073 </r>
       </set>
      </set>
     </set>
    </set>
   </array>
  </projected>
 </calculation>
 <structure name="finalpos" >
  <crystal>
   <varray name="basis" >
    <v>       5.30291920       0.00000000      -2.36402939 </v>
    <v>      -1.05387957       5.19714218      -2.36402972 </v>
    <v>       0.00000000       0.00000000       7.12968660 </v>
   </varray>
   <i name="volume">    196.49434127 </i>
   <varray name="rec_basis" >
    <v>       0.18857538       0.03823943       0.00000000 </v>
    <v>       0.00000000       0.19241344       0.00000000 </v>
    <v>       0.06252698       0.07647885       0.14025862 </v>
   </varray>
  </crystal>
  <varray name="positions" >
   <v>       0.50000000       0.50000000       0.00000000 </v>
   <v>       0.75000000       0.25000000       0.50000000 </v>
   <v>       0.00000000       0.00000000       0.00000000 </v>
   <v>       0.25000000       0.75000000       0.50000000 </v>
   <v>       0.34516103       0.37500000       0.25000000 </v>
   <v>       0.90483897       0.87500000       0.25000000 </v>
   <v>       0.12500000       0.65483897       0.75000000 </v>
   <v>       0.62500000       0.09516103       0.75000000 </v>
  </varray>
 </structure>
</modeling>
