 vasp.6.4.2 20Jul23 (build Mar 15 2024 16:31:38) complex                        
  
 executed on             LinuxIFC date 2025.03.27  11:15:56
 running  120 mpi-ranks, on    3 nodes
 distrk:  each k-point on  120 cores,    1 groups
 distr:  one band on NCORE=  10 cores,   12 groups


--------------------------------------------------------------------------------------------------------


 INCAR:
   ALGO = Normal
   CSHIFT = 1e-05
   EDIFF = 1e-05
   ENAUG = 1360
   ENCUT = 680
   GGA = Pe
   HFSCREEN = 0.2
   ISMEAR = -5
   ISPIN = 1
   LAECHG = True
   LASPH = True
   LCHARG = False
   LDAU = False
   LELF = False
   LHFCALC = True
   LMAXMIX = 4
   LMIXTAU = True
   LOPTICS = True
   LORBIT = 11
   LREAL = False
   LVTOT = True
   LWAVE = True
   NBANDS = 87
   NCORE = 10
   NEDOS = 1136
   NELM = 200
   NELMIN = 5
   NSW = 0
   PREC = Accurate
   PRECFOCK = Accurate
   SIGMA = 0.05

 POTCAR:    PAW_PBE Cu 22Jun2005                  
 POTCAR:    PAW_PBE Sb 06Sep2000                  
 POTCAR:    PAW_PBE S 06Sep2000                   
 WARNING: For LVTOT=.TRUE., VASP.5.x writes the TOTAL local potential to the
     file LOCPOT. If you want only the Hartree contributions, use LVHAR=.TRUE.
     instead. 

 POTCAR:    PAW_PBE Cu 22Jun2005                  
   VRHFIN =Cu: d10 p1                                                                               
   LEXCH  = PE                                                                                      
   EATOM  =  1390.9808 eV,  102.2342 Ry                                                             
                                                                                                    
   TITEL  = PAW_PBE Cu 22Jun2005                                                                    
   LULTRA =        F    use ultrasoft PP ?                                                          
   IUNSCR =        1    unscreen: 0-lin 1-nonlin 2-no                                               
   RPACOR =    2.000    partial core radius                                                         
   POMASS =   63.546; ZVAL   =   11.000    mass and valenz                                          
   RCORE  =    2.300    outmost cutoff radius                                                       
   RWIGS  =    2.200; RWIGS  =    1.164    wigner-seitz radius (au A)                               
   ENMAX  =  295.446; ENMIN  =  221.585 eV                                                          
   ICORE  =        3    local potential                                                             
   LCOR   =        T    correct aug charges                                                         
   LPAW   =        T    paw PP                                                                      
   EAUG   =  586.980                                                                                
   DEXC   =    0.000                                                                                
   RMAX   =    2.344    core radius for proj-oper                                                   
   RAUG   =    1.300    factor for augmentation sphere                                              
   RDEP   =    2.302    radius for radial grids                                                     
   RDEPT  =    1.771    core radius for aug-charge                                                  
                                                                                                    
   Atomic configuration                                                                             
    9 entries                                                                                       
     n  l   j            E        occ.                                                              
     1  0  0.50     -8850.2468   2.0000                                                             
     2  0  0.50     -1062.3498   2.0000                                                             
     2  1  1.50      -916.8226   6.0000                                                             
     3  0  0.50      -114.6929   2.0000                                                             
     3  1  1.50       -72.1325   6.0000                                                             
     3  2  2.50        -5.0394  10.0000                                                             
     4  0  0.50        -4.6097   1.0000                                                             
     4  1  0.50        -4.0817   0.0000                                                             
     4  3  2.50        -1.3606   0.0000                                                             
   Description                                                                                      
     l       E           TYP  RCUT    TYP  RCUT                                                     
     2     -5.0393973     23  2.200                                                                 
     2     10.8846608     23  2.200                                                                 
     0     -4.6097109     23  2.200                                                                 
     0      8.2520465     23  2.200                                                                 
     1     -2.7211652     23  2.200                                                                 
     1     21.7055443     23  2.200                                                                 
     3      2.7211652     23  2.300                                                                 
  local pseudopotential read in
  partial core-charges read in
  partial kinetic energy density read in
  atomic valenz-charges read in
  non local Contribution for L=           2  read in
    real space projection operators read in
  non local Contribution for L=           2  read in
    real space projection operators read in
  non local Contribution for L=           0  read in
    real space projection operators read in
  non local Contribution for L=           0  read in
    real space projection operators read in
  non local Contribution for L=           1  read in
    real space projection operators read in
  non local Contribution for L=           1  read in
    real space projection operators read in
    PAW grid and wavefunctions read in
 
   number of l-projection  operators is LMAX  =           6
   number of lm-projection operators is LMMAX =          18
 
 POTCAR:    PAW_PBE Sb 06Sep2000                  
   VRHFIN =Sb: s2p3                                                                                 
   LEXCH  = PE                                                                                      
   EATOM  =   149.9515 eV,   11.0211 Ry                                                             
                                                                                                    
   TITEL  = PAW_PBE Sb 06Sep2000                                                                    
   LULTRA =        F    use ultrasoft PP ?                                                          
   IUNSCR =        1    unscreen: 0-lin 1-nonlin 2-no                                               
   RPACOR =    2.200    partial core radius                                                         
   POMASS =  121.750; ZVAL   =    5.000    mass and valenz                                          
   RCORE  =    2.300    outmost cutoff radius                                                       
   RWIGS  =    2.980; RWIGS  =    1.577    wigner-seitz radius (au A)                               
   ENMAX  =  172.069; ENMIN  =  129.052 eV                                                          
   ICORE  =        3    local potential                                                             
   LCOR   =        T    correct aug charges                                                         
   LPAW   =        T    paw PP                                                                      
   EAUG   =  380.513                                                                                
   DEXC   =    0.000                                                                                
   RMAX   =    2.346    core radius for proj-oper                                                   
   RAUG   =    1.300    factor for augmentation sphere                                              
   RDEP   =    2.360    radius for radial grids                                                     
   RDEPT  =    2.192    core radius for aug-charge                                                  
                                                                                                    
   Atomic configuration                                                                             
   13 entries                                                                                       
     n  l   j            E        occ.                                                              
     1  0  0.50    -30298.2797   2.0000                                                             
     2  0  0.50     -4610.2252   2.0000                                                             
     2  1  1.50     -4138.3407   6.0000                                                             
     3  0  0.50      -903.8815   2.0000                                                             
     3  1  1.50      -750.1337   6.0000                                                             
     3  2  2.50      -515.7092  10.0000                                                             
     4  0  0.50      -148.8034   2.0000                                                             
     4  1  1.50      -101.7581   6.0000                                                             
     4  2  2.50       -33.5048  10.0000                                                             
     5  0  0.50       -12.8298   2.0000                                                             
     5  1  0.50        -4.8276   3.0000                                                             
     5  2  1.50        -4.0817   0.0000                                                             
     4  3  2.50        -4.0817   0.0000                                                             
   Description                                                                                      
     l       E           TYP  RCUT    TYP  RCUT                                                     
     0    -12.8297861     23  2.300                                                                 
     0     13.6058260     23  2.300                                                                 
     1     -4.8275512     23  2.300                                                                 
     1     -0.7245443     23  2.300                                                                 
     2     -4.0817478     23  2.300                                                                 
     3     -1.3605826     23  2.300                                                                 
  local pseudopotential read in
  partial core-charges read in
  partial kinetic energy density read in
  atomic valenz-charges read in
  non local Contribution for L=           0  read in
    real space projection operators read in
  non local Contribution for L=           0  read in
    real space projection operators read in
  non local Contribution for L=           1  read in
    real space projection operators read in
  non local Contribution for L=           1  read in
    real space projection operators read in
  non local Contribution for L=           2  read in
    real space projection operators read in
    PAW grid and wavefunctions read in
 
   number of l-projection  operators is LMAX  =           5
   number of lm-projection operators is LMMAX =          13
 
 POTCAR:    PAW_PBE S 06Sep2000                   
   VRHFIN =S : s2p4                                                                                 
   LEXCH  = PE                                                                                      
   EATOM  =   276.8230 eV,   20.3459 Ry                                                             
                                                                                                    
   TITEL  = PAW_PBE S 06Sep2000                                                                     
   LULTRA =        F    use ultrasoft PP ?                                                          
   IUNSCR =        1    unscreen: 0-lin 1-nonlin 2-no                                               
   RPACOR =    1.500    partial core radius                                                         
   POMASS =   32.066; ZVAL   =    6.000    mass and valenz                                          
   RCORE  =    1.900    outmost cutoff radius                                                       
   RWIGS  =    2.200; RWIGS  =    1.164    wigner-seitz radius (au A)                               
   ENMAX  =  258.689; ENMIN  =  194.016 eV                                                          
   ICORE  =        2    local potential                                                             
   LCOR   =        T    correct aug charges                                                         
   LPAW   =        T    paw PP                                                                      
   EAUG   =  335.092                                                                                
   DEXC   =    0.000                                                                                
   RMAX   =    1.942    core radius for proj-oper                                                   
   RAUG   =    1.300    factor for augmentation sphere                                              
   RDEP   =    1.954    radius for radial grids                                                     
   RDEPT  =    1.744    core radius for aug-charge                                                  
                                                                                                    
   Atomic configuration                                                                             
    6 entries                                                                                       
     n  l   j            E        occ.                                                              
     1  0  0.50     -2405.8406   2.0000                                                             
     2  0  0.50      -211.7007   2.0000                                                             
     2  1  1.50      -156.4958   6.0000                                                             
     3  0  0.50       -17.2562   2.0000                                                             
     3  1  0.50        -7.0085   4.0000                                                             
     3  2  1.50        -6.8029   0.0000                                                             
   Description                                                                                      
     l       E           TYP  RCUT    TYP  RCUT                                                     
     0    -17.2561641     23  1.900                                                                 
     0    -15.8743224     23  1.900                                                                 
     1     -7.0085400     23  1.900                                                                 
     1     -2.7779785     23  1.900                                                                 
     2     -6.8029130     23  1.900                                                                 
  local pseudopotential read in
  partial core-charges read in
  partial kinetic energy density read in
  atomic valenz-charges read in
  non local Contribution for L=           0  read in
    real space projection operators read in
  non local Contribution for L=           0  read in
    real space projection operators read in
  non local Contribution for L=           1  read in
    real space projection operators read in
  non local Contribution for L=           1  read in
    real space projection operators read in
    PAW grid and wavefunctions read in
 
   number of l-projection  operators is LMAX  =           4
   number of lm-projection operators is LMMAX =           8
 
  PAW_PBE Cu 22Jun2005                  :
 energy of atom  1       EATOM=-1390.9808
 kinetic energy error for atom=    0.0018 (will be added to EATOM!!)
  PAW_PBE Sb 06Sep2000                  :
 energy of atom  2       EATOM= -149.9515
 kinetic energy error for atom=    0.0002 (will be added to EATOM!!)
  PAW_PBE S 06Sep2000                   :
 energy of atom  3       EATOM= -276.8230
 kinetic energy error for atom=    0.0008 (will be added to EATOM!!)
 
 
 POSCAR: Cu4 Sb4 S8
  positions in direct lattice
  No initial velocities read in
 exchange correlation table for  LEXCH =        8
   RHO(1)=    0.500       N(1)  =     2000
   RHO(2)=  100.500       N(2)  =     4000
 


--------------------------------------------------------------------------------------------------------


 ion  position               nearest neighbor table
   1  0.250  0.250  0.828-  14 2.28  16 2.30  12 2.31  12 2.31
   2  0.250  0.750  0.672-  16 2.28  14 2.30  10 2.31  10 2.31
   3  0.750  0.750  0.172-  15 2.28  13 2.30  11 2.31  11 2.31
   4  0.750  0.250  0.328-  13 2.28  15 2.30   9 2.31   9 2.31
   5  0.250  0.729  0.435-   9 2.45  13 2.59  13 2.59  10 3.18  10 3.18
   6  0.750  0.271  0.565-  10 2.45  16 2.59  16 2.59   9 3.18   9 3.18
   7  0.250  0.229  0.065-  11 2.45  15 2.59  15 2.59  12 3.18  12 3.18
   8  0.750  0.771  0.935-  12 2.45  14 2.59  14 2.59  11 3.18  11 3.18
   9  0.250  0.124  0.401-   4 2.31   4 2.31   5 2.45   6 3.18   6 3.18
  10  0.750  0.876  0.599-   2 2.31   2 2.31   6 2.45   5 3.18   5 3.18
  11  0.250  0.624  0.099-   3 2.31   3 2.31   7 2.45   8 3.18   8 3.18
  12  0.750  0.376  0.901-   1 2.31   1 2.31   8 2.45   7 3.18   7 3.18
  13  0.750  0.624  0.322-   4 2.28   3 2.30   5 2.59   5 2.59
  14  0.250  0.876  0.822-   1 2.28   2 2.30   8 2.59   8 2.59
  15  0.750  0.124  0.178-   3 2.28   4 2.30   7 2.59   7 2.59
  16  0.250  0.376  0.678-   2 2.28   1 2.30   6 2.59   6 2.59
 
  LATTYP: Found a simple orthorhombic cell.
 ALAT       =     3.8015747400
 B/A-ratio  =     1.5978432559
 C/A-ratio  =     3.8120414489
  
  Lattice vectors:
  
 A1 = (   3.8015747400,   0.0000000000,   0.0000000000)
 A2 = (  -0.0000000000,   6.0743205600,   0.0000000000)
 A3 = (   0.0000000000,   0.0000000000,  14.4917604800)


Analysis of symmetry for initial positions (statically):
=====================================================================
 Subroutine PRICEL returns:
 Original cell was already a primitive cell.
 

 Routine SETGRP: Setting up the symmetry group for a 
 simple orthorhombic supercell.


 Subroutine GETGRP returns: Found  8 space group operations
 (whereof  2 operations were pure point group operations)
 out of a pool of  8 trial point group operations.


The static configuration has the point symmetry S_2 .
 The point group associated with its full space group is D_2h.


Analysis of symmetry for dynamics (positions and initial velocities):
=====================================================================
 Subroutine PRICEL returns:
 Original cell was already a primitive cell.
 

 Routine SETGRP: Setting up the symmetry group for a 
 simple orthorhombic supercell.


 Subroutine GETGRP returns: Found  8 space group operations
 (whereof  2 operations were pure point group operations)
 out of a pool of  8 trial point group operations.


The dynamic configuration has the point symmetry S_2 .
 The point group associated with its full space group is D_2h.


 Subroutine INISYM returns: Found  8 space group operations
 (whereof  2 operations are pure point group operations),
 and found     1 'primitive' translations


----------------------------------------------------------------------------------------

                                     Primitive cell                                     

  volume of cell :     334.6435

  direct lattice vectors                    reciprocal lattice vectors
     3.801574740  0.000000000  0.000000000     0.263048886  0.000000000  0.000000000
    -0.000000000  6.074320560  0.000000000     0.000000000  0.164627466  0.000000000
     0.000000000  0.000000000 14.491760480    -0.000000000 -0.000000000  0.069004729

  length of vectors
     3.801574740  6.074320560 14.491760480     0.263048886  0.164627466  0.069004729

  position of ions in fractional coordinates (direct lattice)
     0.250000000  0.250101620  0.828218420
     0.250000000  0.750101620  0.671781580
     0.750000000  0.749898380  0.171781580
     0.750000000  0.249898380  0.328218420
     0.250000000  0.728812000  0.434587410
     0.750000000  0.271188000  0.565412590
     0.250000000  0.228812000  0.065412590
     0.750000000  0.771188000  0.934587410
     0.250000000  0.123685860  0.401045160
     0.750000000  0.876314140  0.598954840
     0.250000000  0.623685860  0.098954840
     0.750000000  0.376314140  0.901045160
     0.750000000  0.624272650  0.321577210
     0.250000000  0.875727350  0.821577210
     0.750000000  0.124272650  0.178422790
     0.250000000  0.375727350  0.678422790

  ion indices of the primitive-cell ions
   primitive index   ion index
                 1           1
                 2           2
                 3           3
                 4           4
                 5           5
                 6           6
                 7           7
                 8           8
                 9           9
                10          10
                11          11
                12          12
                13          13
                14          14
                15          15
                16          16

----------------------------------------------------------------------------------------

 
 
 KPOINTS: pymatgen with grid density = 759 / numbe

Automatic generation of k-mesh.
 Grid dimensions read from file:
 generate k-points for:    6    4    1

 Generating k-lattice:

  Cartesian coordinates                     Fractional coordinates (reciprocal lattice)
     0.043841481  0.000000000  0.000000000     0.166666667 -0.000000000  0.000000000
     0.000000000  0.041156866  0.000000000     0.000000000  0.250000000  0.000000000
    -0.000000000 -0.000000000  0.069004729     0.000000000 -0.000000000  1.000000000

  Length of vectors
     0.043841481  0.041156866  0.069004729

  Shift w.r.t. Gamma in fractional coordinates (k-lattice)
     0.000000000  0.000000000  0.000000000

 TETIRR: Found     72 inequivalent tetrahedra from      144
 
 Subroutine IBZKPT returns following result:
 ===========================================
 
 Found     12 irreducible k-points:
 
 Following reciprocal coordinates:
            Coordinates               Weight
  0.000000  0.000000  0.000000      1.000000
  0.166667  0.000000  0.000000      2.000000
  0.333333  0.000000  0.000000      2.000000
  0.500000  0.000000  0.000000      1.000000
  0.000000  0.250000  0.000000      2.000000
  0.166667  0.250000  0.000000      4.000000
  0.333333  0.250000  0.000000      4.000000
  0.500000  0.250000  0.000000      2.000000
  0.000000  0.500000  0.000000      1.000000
  0.166667  0.500000  0.000000      2.000000
  0.333333  0.500000  0.000000      2.000000
  0.500000  0.500000  0.000000      1.000000
 
 Following cartesian coordinates:
            Coordinates               Weight
  0.000000  0.000000  0.000000      1.000000
  0.043841  0.000000  0.000000      2.000000
  0.087683  0.000000  0.000000      2.000000
  0.131524  0.000000  0.000000      1.000000
  0.000000  0.041157  0.000000      2.000000
  0.043841  0.041157  0.000000      4.000000
  0.087683  0.041157  0.000000      4.000000
  0.131524  0.041157  0.000000      2.000000
  0.000000  0.082314  0.000000      1.000000
  0.043841  0.082314  0.000000      2.000000
  0.087683  0.082314  0.000000      2.000000
  0.131524  0.082314  0.000000      1.000000
 
 
 Subroutine IBZKPT_HF returns following result:
 ==============================================
 
 Found     24 k-points in 1st BZ
 the following     24 k-points will be used (e.g. in the exchange kernel)
 Following reciprocal coordinates:   # in IRBZ
  0.000000  0.000000  0.000000    0.04166667   1 t-inv F
  0.166667  0.000000  0.000000    0.04166667   2 t-inv F
  0.333333  0.000000  0.000000    0.04166667   3 t-inv F
  0.500000  0.000000  0.000000    0.04166667   4 t-inv F
  0.000000  0.250000  0.000000    0.04166667   5 t-inv F
  0.166667  0.250000  0.000000    0.04166667   6 t-inv F
  0.333333  0.250000  0.000000    0.04166667   7 t-inv F
  0.500000  0.250000  0.000000    0.04166667   8 t-inv F
  0.000000  0.500000  0.000000    0.04166667   9 t-inv F
  0.166667  0.500000  0.000000    0.04166667  10 t-inv F
  0.333333  0.500000  0.000000    0.04166667  11 t-inv F
  0.500000  0.500000  0.000000    0.04166667  12 t-inv F
 -0.166667 -0.000000  0.000000    0.04166667   2 t-inv F
 -0.333333 -0.000000  0.000000    0.04166667   3 t-inv F
  0.000000 -0.250000  0.000000    0.04166667   5 t-inv F
 -0.166667 -0.250000  0.000000    0.04166667   6 t-inv F
 -0.166667  0.250000  0.000000    0.04166667   6 t-inv F
  0.166667 -0.250000  0.000000    0.04166667   6 t-inv F
 -0.333333 -0.250000  0.000000    0.04166667   7 t-inv F
 -0.333333  0.250000  0.000000    0.04166667   7 t-inv F
  0.333333 -0.250000  0.000000    0.04166667   7 t-inv F
 -0.500000 -0.250000  0.000000    0.04166667   8 t-inv F
 -0.166667 -0.500000  0.000000    0.04166667  10 t-inv F
 -0.333333 -0.500000  0.000000    0.04166667  11 t-inv F
 -----------------------------------------------------------------------------
|                                                                             |
|           W    W    AA    RRRRR   N    N  II  N    N   GGGG   !!!           |
|           W    W   A  A   R    R  NN   N  II  NN   N  G    G  !!!           |
|           W    W  A    A  R    R  N N  N  II  N N  N  G       !!!           |
|           W WW W  AAAAAA  RRRRR   N  N N  II  N  N N  G  GGG   !            |
|           WW  WW  A    A  R   R   N   NN  II  N   NN  G    G                |
|           W    W  A    A  R    R  N    N  II  N    N   GGGG   !!!           |
|                                                                             |
|     The number of bands has been changed from the values supplied in        |
|     the INCAR file. This is a result of running the parallel version.       |
|     The orbitals not found in the WAVECAR file will be initialized with     |
|     random numbers, which is usually adequate. For correlated               |
|     calculations, however, you should redo the groundstate calculation.     |
|     I found NBANDS = 87. Now, NBANDS = 96.                                  |
|                                                                             |
 -----------------------------------------------------------------------------



--------------------------------------------------------------------------------------------------------




 Dimension of arrays:
   k-points           NKPTS =     12   k-points in BZ     NKDIM =     24   number of bands    NBANDS=     96
   number of dos      NEDOS =   1136   number of ions     NIONS =     16
   non local maximal  LDIM  =      6   non local SUM 2l+1 LMDIM =     18
   total plane-waves  NPLWV = 217728
   max r-space proj   IRMAX =      1   max aug-charges    IRDMAX=  36303
   dimension x,y,z NGX =    32 NGY =   54 NGZ =  126
   dimension x,y,z NGXF=    64 NGYF=  108 NGZF=  252
   support grid    NGXF=    64 NGYF=  108 NGZF=  252
   ions per type =               4   4   8
   NGX,Y,Z   is equivalent  to a cutoff of  13.99, 14.78, 14.45 a.u.
   NGXF,Y,Z  is equivalent  to a cutoff of  27.99, 29.56, 28.91 a.u.

 SYSTEM =  unknown system                          
 POSCAR =  Cu4 Sb4 S8                              

 Startparameter for this run:
   NWRITE =      2    write-flag & timer
   PREC   = accura    normal or accurate (medium, high low for compatibility)
   ISTART =      1    job   : 0-new  1-cont  2-samecut
   ICHARG =      0    charge: 1-file 2-atom 10-const
   ISPIN  =      1    spin polarized calculation?
   LNONCOLLINEAR =      F non collinear calculations
   LSORBIT =      F    spin-orbit coupling
   INIWAV =      1    electr: 0-lowe 1-rand  2-diag
   LASPH  =      T    aspherical Exc in radial PAW
 Electronic Relaxation 1
   ENCUT  =  680.0 eV  49.98 Ry    7.07 a.u.   8.08 12.92 30.81*2*pi/ulx,y,z
   ENINI  =  680.0     initial cutoff
   ENAUG  = 1360.0 eV  augmentation charge cutoff
   NELM   =    200;   NELMIN=  5; NELMDL=  0     # of ELM steps 
   EDIFF  = 0.1E-04   stopping-criterion for ELM
   LREAL  =      F    real-space projection
   NLSPLINE    = F    spline interpolate recip. space projectors
   LCOMPAT=      F    compatible to vasp.4.4
   GGA_COMPAT  = T    GGA compatible to vasp.4.4-vasp.4.6
   LMAXPAW     = -100 max onsite density
   LMAXMIX     =    4 max onsite mixed and CHGCAR
   VOSKOWN=      0    Vosko Wilk Nusair interpolation
   ROPT   =    0.00000   0.00000   0.00000
 Ionic relaxation
   EDIFFG = 0.1E-03   stopping-criterion for IOM
   NSW    =      0    number of steps for IOM
   NBLOCK =      1;   KBLOCK =      1    inner block; outer block 
   IBRION =     -1    ionic relax: 0-MD 1-quasi-New 2-CG
   NFREE  =      0    steps in history (QN), initial steepest desc. (CG)
   ISIF   =      0    stress and relaxation
   IWAVPR =     10    prediction:  0-non 1-charg 2-wave 3-comb
   ISYM   =      3    0-nonsym 1-usesym 2-fastsym
   LCORR  =      T    Harris-Foulkes like correction to forces

   POTIM  = 0.5000    time-step for ionic-motion
   TEIN   =    0.0    initial temperature
   TEBEG  =    0.0;   TEEND  =   0.0 temperature during run
   SMASS  =  -3.00    Nose mass-parameter (am)
   estimated Nose-frequenzy (Omega)   =  0.10E-29 period in steps = 0.13E+47 mass=  -0.330E-27a.u.
   SCALEE = 1.0000    scale energy and forces
   NPACO  =    256;   APACO  = 10.0  distance and # of slots for P.C.
   PSTRESS=    0.0 pullay stress

  Mass of Ions in am
   POMASS =  63.55121.75 32.07
  Ionic Valenz
   ZVAL   =  11.00  5.00  6.00
  Atomic Wigner-Seitz radii
   RWIGS  =  -1.00 -1.00 -1.00
  virtual crystal weights 
   VCA    =   1.00  1.00  1.00
   NELECT =     112.0000    total number of electrons
   NUPDOWN=      -1.0000    fix difference up-down

 DOS related values:
   EMIN   =  10.00;   EMAX   =-10.00  energy-range for DOS
   EFERMI =   0.00;   METHOD = LEGACY      
   ISMEAR =    -5;   SIGMA  =   0.05  broadening in eV -4-tet -1-fermi 0-gaus

 Electronic relaxation 2 (details)
   IALGO  =     38    algorithm
   LDIAG  =      T    sub-space diagonalisation (order eigenvalues)
   LSUBROT=      F    optimize rotation matrix (better conditioning)
   TURBO    =      0    0=normal 1=particle mesh
   IRESTART =      0    0=no restart 2=restart with 2 vectors
   NREBOOT  =      0    no. of reboots
   NMIN     =      0    reboot dimension
   EREF     =   0.00    reference energy to select bands
   IMIX   =      1    mixing-type and parameters
     AMIX     =   0.40;   BMIX     =  1.00
     AMIX_MAG =   1.60;   BMIX_MAG =  1.00
     AMIN     =   0.10
     WC   =   100.;   INIMIX=   1;  MIXPRE=   1;  MAXMIX= -45

 Intra band minimization:
   WEIMIN = 0.0000     energy-eigenvalue tresh-hold
   EBREAK =  0.26E-07  absolut break condition
   DEPER  =   0.30     relativ break condition  

   TIME   =   0.40     timestep for ELM

  volume/ion in A,a.u.               =      20.92       141.14
  Fermi-wavevector in a.u.,A,eV,Ry     =   1.136632  2.147924 17.577819  1.291933
  Thomas-Fermi vector in A             =   2.273338
 
 Write flags
   LWAVE        =      T    write WAVECAR
   LDOWNSAMPLE  =      F    k-point downsampling of WAVECAR
   LCHARG       =      F    write CHGCAR
   LVTOT        =      T    write LOCPOT, total local potential
   LVHAR        =      F    write LOCPOT, Hartree potential only
   LELF         =      F    write electronic localiz. function (ELF)
   LORBIT       =     11    0 simple, 1 ext, 2 COOP (PROOUT), +10 PAW based schemes


 Dipole corrections
   LMONO  =      F    monopole corrections only (constant potential shift)
   LDIPOL =      F    correct potential (dipole corrections)
   IDIPOL =      0    1-x, 2-y, 3-z, 4-all directions 
   EPSILON=  1.0000000 bulk dielectric constant

 Exchange correlation treatment:
   GGA     =    PE    GGA type
   LEXCH   =     8    internal setting for exchange type
   LIBXC   =     F    Libxc                    
   VOSKOWN =     0    Vosko Wilk Nusair interpolation
   EXXOEP  =     0    0=HF, 1=EXX-LHF (local Hartree Fock) 2=EXX OEP
   LHFCALC =     T    Hartree Fock is set to
   LSYMGRAD=     F    symmetrize gradient (conserves proper symmetry)
   PRECFOCK=accur.    Normal, Fast or Accurate (Low or Medium for compatibility)
   LRHFCALC=     F    long range Hartree Fock
   LRSCOR  =     F    long range correlation only (use DFT for short range part)
   LTHOMAS =     F    Thomas Fermi screening in HF
   LMODELHF=     F    short range full HF, long range fraction AEXX
   FOCKCORR=     1    mode to apply convergence corrections
   LFOCKACE=     T    use Adeptively-Compressed-Exchange operator
   ENCUT4O =  -1.0   cutoff for four orbital integrals eV
   LMAXFOCK=     4    L truncation for augmentation on plane wave grid
   LMAXFOCKAE=  -1    L truncation for all-electron charge restoration on plane wave grid
   NMAXFOCKAE=   1    number of basis functions for all-electron charge restoration
   LFOCKAEDFT=     F  apply the AE augmentation even for DFT
   NKREDX  =     1    reduce k-point grid by
   NKREDY  =     1    reduce k-point grid by
   NKREDZ  =     1    reduce k-point grid by
   SHIFTRED=     F    shift reduced grid of Gamma
   HFKIDENT=     F    idential grid for each k-point
   ODDONLY =     F    use only odd q-grid points
   EVENONLY=     F    use only even q-grid points
   HFALPHA =   -1.0000 decay constant for conv. correction
   MCALPHA =    0.0000 extent of test-charge in conv. correction in multipole expansion
   AEXX    =    0.2500 exact exchange contribution
   HFSCREEN=    0.2000 screening length (either q_TF or 0.3 A-1)
   HFSCREENC=   0.2000 screening length for correlation (either q_TF or 0.3 A-1)
   HFRCUT  =    0.0000 spherical cutoff for potential kernel
   ALDAX   =    0.7500 LDA exchange part
   AGGAX   =    0.7500 GGA exchange part
   ALDAC   =    1.0000 LDA correlation
   AGGAC   =    1.0000 GGA correlation
   ENCUTFOCK=  -1.0 apply spherical cutoff to Coloumb kernel
   NBANDSGWLOW=     1    first orbital included in HF term
   NBLOCK_FOCK=    64    blocking factor in FOCK_ACC

 Linear response parameters
   LEPSILON=     F    determine dielectric tensor
   LRPA    =     F    only Hartree local field effects (RPA)
   LNABLA  =     F    use nabla operator in PAW spheres
   LVEL    =     F    velocity operator in full k-point grid
   CSHIFT  =0.0000    complex shift for real part using Kramers Kronig
   OMEGAMAX=  -1.0    maximum frequency
   DEG_THRESHOLD= 0.2000000E-02 threshold for treating states as degnerate
   RTIME   =   -0.100 relaxation time in fs
  (WPLASMAI=    0.000 imaginary part of plasma frequency in eV, 0.658/RTIME)
   DFIELD  = 0.0000000 0.0000000 0.0000000 field for delta impulse in time
 
  Optional k-point grid parameters
   LKPOINTS_OPT  =     F    use optional k-point grid
   KPOINTS_OPT_MODE=     1    mode for optional k-point grid
 
 Orbital magnetization related:
   ORBITALMAG=     F  switch on orbital magnetization
   LCHIMAG   =     F  perturbation theory with respect to B field
   DQ        =  0.001000  dq finite difference perturbation B field
   LLRAUG    =     F  two centre corrections for induced B field
   LBONE     =     F  B-component reconstruction in AE one-centre
   LVGVCALC  =     T  calculate vGv susceptibility
   LVGVAPPL  =     F  apply vGv susceptibility instead of pGv for G=0

 Random number generation:
   RANDOM_GENERATOR = DEFAULT
   PCG_SEED         = not used


--------------------------------------------------------------------------------------------------------


 Static calculation
 charge density and potential will be updated during run
 non-spin polarized calculation
 Variant of blocked Davidson
 Davidson routine will perform the subspace rotation
 perform sub-space diagonalisation
    after iterative eigenvector-optimisation
 Kerker-like  mixing scheme
 using additional bands           40
 reciprocal scheme for non local part
 use partial core corrections
 calculate Harris-corrections to forces 
   (improved forces if not selfconsistent)
 use gradient corrections 
 use of overlap-Matrix (Vanderbilt PP)
 Fermi weights with tetrahedron method with Bloechl corrections


--------------------------------------------------------------------------------------------------------


  energy-cutoff  :      680.00
  volume of cell :      334.64
      direct lattice vectors                 reciprocal lattice vectors
     3.801574740  0.000000000  0.000000000     0.263048886  0.000000000  0.000000000
    -0.000000000  6.074320560  0.000000000     0.000000000  0.164627466  0.000000000
     0.000000000  0.000000000 14.491760480    -0.000000000 -0.000000000  0.069004729

  length of vectors
     3.801574740  6.074320560 14.491760480     0.263048886  0.164627466  0.069004729


 
 old parameters found on file WAVECAR:
  energy-cutoff  :      680.00
  volume of cell :      334.64
      direct lattice vectors                 reciprocal lattice vectors
     3.801574740  0.000000000  0.000000000     0.263048886  0.000000000  0.000000000
    -0.000000000  6.074320560  0.000000000     0.000000000  0.164627466  0.000000000
     0.000000000  0.000000000 14.491760480    -0.000000000 -0.000000000  0.069004729

  length of vectors

 
 k-points in units of 2pi/SCALE and weight: pymatgen with grid density = 759 / numbe
   0.00000000  0.00000000  0.00000000       0.042
   0.04384148  0.00000000  0.00000000       0.083
   0.08768296  0.00000000  0.00000000       0.083
   0.13152444  0.00000000  0.00000000       0.042
   0.00000000  0.04115687  0.00000000       0.083
   0.04384148  0.04115687  0.00000000       0.167
   0.08768296  0.04115687  0.00000000       0.167
   0.13152444  0.04115687  0.00000000       0.083
   0.00000000  0.08231373  0.00000000       0.042
   0.04384148  0.08231373  0.00000000       0.083
   0.08768296  0.08231373  0.00000000       0.083
   0.13152444  0.08231373  0.00000000       0.042
 
 k-points in reciprocal lattice and weights: pymatgen with grid density = 759 / numbe
   0.00000000  0.00000000  0.00000000       0.042
   0.16666667  0.00000000  0.00000000       0.083
   0.33333333  0.00000000  0.00000000       0.083
   0.50000000  0.00000000  0.00000000       0.042
   0.00000000  0.25000000  0.00000000       0.083
   0.16666667  0.25000000  0.00000000       0.167
   0.33333333  0.25000000  0.00000000       0.167
   0.50000000  0.25000000  0.00000000       0.083
   0.00000000  0.50000000  0.00000000       0.042
   0.16666667  0.50000000  0.00000000       0.083
   0.33333333  0.50000000  0.00000000       0.083
   0.50000000  0.50000000  0.00000000       0.042
 
 position of ions in fractional coordinates (direct lattice) 
   0.25000000  0.25010162  0.82821842
   0.25000000  0.75010162  0.67178158
   0.75000000  0.74989838  0.17178158
   0.75000000  0.24989838  0.32821842
   0.25000000  0.72881200  0.43458741
   0.75000000  0.27118800  0.56541259
   0.25000000  0.22881200  0.06541259
   0.75000000  0.77118800  0.93458741
   0.25000000  0.12368586  0.40104516
   0.75000000  0.87631414  0.59895484
   0.25000000  0.62368586  0.09895484
   0.75000000  0.37631414  0.90104516
   0.75000000  0.62427265  0.32157721
   0.25000000  0.87572735  0.82157721
   0.75000000  0.12427265  0.17842279
   0.25000000  0.37572735  0.67842279
 
 position of ions in cartesian coordinates  (Angst):
   0.95039368  1.51919741 12.00234297
   0.95039368  4.55635769  9.73529775
   2.85118105  4.55512315  2.48941751
   2.85118106  1.51796287  4.75646273
   0.95039368  4.42703772  6.29793665
   2.85118106  1.64728284  8.19382383
   0.95039368  1.38987744  0.94794359
   2.85118105  4.68444312 13.54381689
   0.95039368  0.75130756  5.81185040
   2.85118105  5.32301300  8.67991008
   0.95039368  3.78846784  1.43402984
   2.85118105  2.28585272 13.05773064
   2.85118105  3.79203219  4.66021990
   0.95039368  5.31944865 11.90610014
   2.85118106  0.75487191  2.58566034
   0.95039368  2.28228837  9.83154058
 


--------------------------------------------------------------------------------------------------------


 k-point   1 :   0.0000 0.0000 0.0000  plane waves:   13425
 k-point   2 :   0.1667 0.0000 0.0000  plane waves:   13432
 k-point   3 :   0.3333 0.0000 0.0000  plane waves:   13486
 k-point   4 :   0.5000 0.0000 0.0000  plane waves:   13524
 k-point   5 :   0.0000 0.2500 0.0000  plane waves:   13448
 k-point   6 :   0.1667 0.2500 0.0000  plane waves:   13467
 k-point   7 :   0.3333 0.2500 0.0000  plane waves:   13496
 k-point   8 :   0.5000 0.2500 0.0000  plane waves:   13480
 k-point   9 :   0.0000 0.5000 0.0000  plane waves:   13418
 k-point  10 :   0.1667 0.5000 0.0000  plane waves:   13462
 k-point  11 :   0.3333 0.5000 0.0000  plane waves:   13474
 k-point  12 :   0.5000 0.5000 0.0000  plane waves:   13524

 maximum and minimum number of plane-waves per node :      1376     1322

 maximum number of plane-waves:     13524
 maximum index in each direction: 
   IXMAX=    8   IYMAX=   12   IZMAX=   30
   IXMIN=   -8   IYMIN=  -13   IZMIN=  -30


 parallel 3D FFT for wavefunctions:
    minimum data exchange during FFTs selected (reduces bandwidth)
 parallel 3D FFT for charge:
    minimum data exchange during FFTs selected (reduces bandwidth)

 
 Radii for the augmentation spheres in the non-local exchange
 for species   1 augmentation radius   1.179 (default was   0.943)
       energy cutoff for augmentation   2720.0
 for species   2 augmentation radius   1.464 (default was   1.171)
       energy cutoff for augmentation   2720.0
 for species   3 augmentation radius   1.212 (default was   0.970)
       energy cutoff for augmentation   2720.0

 real space projection operators:
  total allocation   :      12882.47 KBytes
  max/ min on nodes  :       1600.88       1186.50

 Maximum index for augmentation-charges in exchange         1159
  SETUP_FOCK is finished

 total amount of memory used by VASP MPI-rank0    49618. kBytes
=======================================================================

   base      :      30000. kBytes
   nonl-proj :       7572. kBytes
   fftplans  :       2487. kBytes
   grid      :       2844. kBytes
   one-center:         31. kBytes
   HF        :        129. kBytes
   nonlr-proj:       4362. kBytes
   wavefun   :       2193. kBytes
 
     INWAV:  cpu time      0.6903: real time      0.7350
 charge density for first step will be calculated from the start-wavefunctions


--------------------------------------------------------------------------------------------------------


 Maximum index for augmentation-charges          455 (set IRDMAX)


--------------------------------------------------------------------------------------------------------


 initial charge from wavefunction
 First call to EWALD:  gamma=   0.255
 Maximum number of real-space cells 5x 3x 2
 Maximum number of reciprocal cells 2x 2x 5

    FEWALD:  cpu time      0.0030: real time      0.0031


--------------------------------------- Ionic step        1  -------------------------------------------




--------------------------------------- Iteration      1(   1)  ---------------------------------------


    POTLOK:  cpu time      0.0490: real time      0.0557
    SETDIJ:  cpu time      0.3248: real time      0.3262
     EDDAV:  cpu time    218.7589: real time    221.4240
 BZINTS: Fermi energy:    5.219621;  112.000000 electrons
         Band energy:-0.850191E+01;  BLOECHL correction:    0.000000
       DOS:  cpu time      0.0093: real time      0.0099
    CHARGE:  cpu time      0.0597: real time      0.0599
    MIXING:  cpu time      0.0011: real time      0.0011
    --------------------------------------------
      LOOP:  cpu time    219.2029: real time    221.8768

 eigenvalue-minimisations  :  1656
 total energy-change (2. order) :-0.8158128E+02  (-0.4367603E-06)
 number of electron     111.9999972 magnetization 
 augmentation part       19.0674893 magnetization 

 Free energy of the ion-electron system (eV)
  ---------------------------------------------------
  alpha Z        PSCENC =       140.40642575
  Ewald energy   TEWEN  =     -5671.52231121
  -Hartree energ DENC   =     -2985.08084425
  -exchange      EXHF   =       233.54533860
  -V(xc)+E(xc)   XCENC  =        66.16451777
  PAW double counting   =     20386.85810107   -20593.29519460
  entropy T*S    EENTRO =         0.00000000
  eigenvalues    EBANDS =        -8.50191206
  atomic energy  EATOM  =      8349.84459897
  Solvation  Ediel_sol  =         0.00000000
  ---------------------------------------------------
  free energy    TOTEN  =       -81.58127997 eV

  energy without entropy =      -81.58127997  energy(sigma->0) =      -81.58127997
  exchange ACFDT corr.  =         0.00000000  see jH, gK, PRB 81, 115126


--------------------------------------------------------------------------------------------------------




--------------------------------------- Iteration      1(   2)  ---------------------------------------


    POTLOK:  cpu time      0.0541: real time      0.0658
    SETDIJ:  cpu time      0.3283: real time      0.3290
     EDDAV:  cpu time    221.0065: real time    221.5665
 BZINTS: Fermi energy:    5.233257;  112.000000 electrons
         Band energy:-0.847002E+01;  BLOECHL correction:    0.000000
       DOS:  cpu time      0.0071: real time      0.0071
    CHARGE:  cpu time      0.0508: real time      0.0509
    MIXING:  cpu time      0.0002: real time      0.0002
    --------------------------------------------
      LOOP:  cpu time    221.4470: real time    222.0195

 eigenvalue-minimisations  :  1548
 total energy-change (2. order) :-0.2164779E-07  (-0.3749396E-06)
 number of electron     111.9999972 magnetization 
 augmentation part       19.0668467 magnetization 

 Free energy of the ion-electron system (eV)
  ---------------------------------------------------
  alpha Z        PSCENC =       140.40642575
  Ewald energy   TEWEN  =     -5671.52231121
  -Hartree energ DENC   =     -2985.10739861
  -exchange      EXHF   =       233.54730233
  -V(xc)+E(xc)   XCENC  =        66.16529628
  PAW double counting   =     20386.70443079   -20593.14960800
  entropy T*S    EENTRO =         0.00000000
  eigenvalues    EBANDS =        -8.47001629
  atomic energy  EATOM  =      8349.84459897
  Solvation  Ediel_sol  =         0.00000000
  ---------------------------------------------------
  free energy    TOTEN  =       -81.58127999 eV

  energy without entropy =      -81.58127999  energy(sigma->0) =      -81.58127999
  exchange ACFDT corr.  =         0.00000000  see jH, gK, PRB 81, 115126


--------------------------------------------------------------------------------------------------------




--------------------------------------- Iteration      1(   3)  ---------------------------------------


    POTLOK:  cpu time      0.0442: real time      0.0596
    SETDIJ:  cpu time      0.3284: real time      0.3292
     EDDAV:  cpu time    220.8803: real time    221.4647
 BZINTS: Fermi energy:    5.234940;  112.000000 electrons
         Band energy:-0.848307E+01;  BLOECHL correction:    0.000000
       DOS:  cpu time      0.0073: real time      0.0073
    CHARGE:  cpu time      0.0500: real time      0.0501
    MIXING:  cpu time      0.0005: real time      0.0005
    --------------------------------------------
      LOOP:  cpu time    221.3107: real time    221.9114

 eigenvalue-minimisations  :  2088
 total energy-change (2. order) :-0.1279077E-06  (-0.1483118E-06)
 number of electron     111.9999972 magnetization 
 augmentation part       19.0671456 magnetization 

 Free energy of the ion-electron system (eV)
  ---------------------------------------------------
  alpha Z        PSCENC =       140.40642575
  Ewald energy   TEWEN  =     -5671.52231121
  -Hartree energ DENC   =     -2985.09606422
  -exchange      EXHF   =       233.54512077
  -V(xc)+E(xc)   XCENC  =        66.16488948
  PAW double counting   =     20386.67626957   -20593.11713907
  entropy T*S    EENTRO =         0.00000000
  eigenvalues    EBANDS =        -8.48307015
  atomic energy  EATOM  =      8349.84459897
  Solvation  Ediel_sol  =         0.00000000
  ---------------------------------------------------
  free energy    TOTEN  =       -81.58128012 eV

  energy without entropy =      -81.58128012  energy(sigma->0) =      -81.58128012
  exchange ACFDT corr.  =         0.00000000  see jH, gK, PRB 81, 115126


--------------------------------------------------------------------------------------------------------




--------------------------------------- Iteration      1(   4)  ---------------------------------------


    POTLOK:  cpu time      0.0425: real time      0.0575
    SETDIJ:  cpu time      0.3256: real time      0.3264
     EDDAV:  cpu time    219.6285: real time    220.2039
 BZINTS: Fermi energy:    5.231127;  112.000000 electrons
         Band energy:-0.847663E+01;  BLOECHL correction:    0.000000
       DOS:  cpu time      0.0071: real time      0.0071
    CHARGE:  cpu time      0.0500: real time      0.0501
    MIXING:  cpu time      0.0002: real time      0.0002
    --------------------------------------------
      LOOP:  cpu time    220.0539: real time    220.6452

 eigenvalue-minimisations  :  2040
 total energy-change (2. order) :-0.1374465E-06  (-0.9625626E-07)
 number of electron     111.9999972 magnetization 
 augmentation part       19.0669005 magnetization 

 Free energy of the ion-electron system (eV)
  ---------------------------------------------------
  alpha Z        PSCENC =       140.40642575
  Ewald energy   TEWEN  =     -5671.52231121
  -Hartree energ DENC   =     -2985.10148233
  -exchange      EXHF   =       233.54602153
  -V(xc)+E(xc)   XCENC  =        66.16503222
  PAW double counting   =     20386.65668026   -20593.09961796
  entropy T*S    EENTRO =         0.00000000
  eigenvalues    EBANDS =        -8.47662747
  atomic energy  EATOM  =      8349.84459897
  Solvation  Ediel_sol  =         0.00000000
  ---------------------------------------------------
  free energy    TOTEN  =       -81.58128026 eV

  energy without entropy =      -81.58128026  energy(sigma->0) =      -81.58128026
  exchange ACFDT corr.  =         0.00000000  see jH, gK, PRB 81, 115126


--------------------------------------------------------------------------------------------------------




--------------------------------------- Iteration      1(   5)  ---------------------------------------


    POTLOK:  cpu time      0.0441: real time      0.0596
    SETDIJ:  cpu time      0.3275: real time      0.3285
     EDDAV:  cpu time    219.9391: real time    220.4955
 BZINTS: Fermi energy:    5.223117;  112.000000 electrons
         Band energy:-0.848474E+01;  BLOECHL correction:    0.000000
       DOS:  cpu time      0.0071: real time      0.0071
    --------------------------------------------
      LOOP:  cpu time    220.3179: real time    220.8908

 eigenvalue-minimisations  :  2148
 total energy-change (2. order) :-0.5002767E-07  (-0.5386600E-07)
 number of electron     111.9999972 magnetization 
 augmentation part       19.0669005 magnetization 

 Free energy of the ion-electron system (eV)
  ---------------------------------------------------
  alpha Z        PSCENC =       140.40642575
  Ewald energy   TEWEN  =     -5671.52231121
  -Hartree energ DENC   =     -2985.09494395
  -exchange      EXHF   =       233.54529870
  -V(xc)+E(xc)   XCENC  =        66.16478764
  PAW double counting   =     20386.68233730   -20593.12273672
  entropy T*S    EENTRO =         0.00000000
  eigenvalues    EBANDS =        -8.48473678
  atomic energy  EATOM  =      8349.84459897
  Solvation  Ediel_sol  =         0.00000000
  ---------------------------------------------------
  free energy    TOTEN  =       -81.58128031 eV

  energy without entropy =      -81.58128031  energy(sigma->0) =      -81.58128031
  exchange ACFDT corr.  =         0.00000000  see jH, gK, PRB 81, 115126


--------------------------------------------------------------------------------------------------------




 average (electrostatic) potential at core
  the test charge radii are     0.9430  1.1712  0.9698
  (the norm of the test charge is              1.0000)
       1 -56.6269       2 -56.6269       3 -56.6269       4 -56.6269       5 -84.1231
       6 -84.1231       7 -84.1231       8 -84.1231       9 -82.2644      10 -82.2644
      11 -82.2643      12 -82.2643      13 -82.6848      14 -82.6847      15 -82.6847
      16 -82.6848
 
 
 
 E-fermi :   5.2231     XC(G=0):  -8.1730     alpha+bet :-11.0670

 Fermi energy:         5.2231168135

 k-point     1 :       0.0000    0.0000    0.0000
  band No.  band energies     occupation 
      1     -10.8428      2.00000
      2     -10.5294      2.00000
      3     -10.4160      2.00000
      4     -10.0005      2.00000
      5      -9.0956      2.00000
      6      -8.9683      2.00000
      7      -8.7935      2.00000
      8      -8.5981      2.00000
      9      -4.5805      2.00000
     10      -4.3989      2.00000
     11      -4.3575      2.00000
     12      -3.8957      2.00000
     13      -1.4982      2.00000
     14      -1.0696      2.00000
     15      -0.5631      2.00000
     16      -0.1541      2.00000
     17      -0.0597      2.00000
     18       0.4486      2.00000
     19       0.6959      2.00000
     20       0.7984      2.00000
     21       0.8929      2.00000
     22       1.0095      2.00000
     23       1.0260      2.00000
     24       1.0640      2.00000
     25       1.0717      2.00000
     26       1.1032      2.00000
     27       1.1794      2.00000
     28       1.2323      2.00000
     29       1.4270      2.00000
     30       1.4869      2.00000
     31       1.5065      2.00000
     32       1.5676      2.00000
     33       2.0603      2.00000
     34       2.2049      2.00000
     35       2.4579      2.00000
     36       2.4992      2.00000
     37       2.4999      2.00000
     38       2.5099      2.00000
     39       2.5498      2.00000
     40       2.7506      2.00000
     41       2.9993      2.00000
     42       3.0209      2.00000
     43       3.0379      2.00000
     44       3.1719      2.00000
     45       3.4697      2.00000
     46       3.4871      2.00000
     47       3.8134      2.00000
     48       4.2971      2.00000
     49       4.4545      2.00000
     50       4.8003      2.00000
     51       4.8261      2.00000
     52       4.9692      2.00000
     53       5.0367      2.00000
     54       5.1086      2.00000
     55       5.1118      2.00000
     56       5.2175      2.00000
     57       6.9218      0.00000
     58       7.2875      0.00000
     59       7.3128      0.00000
     60       7.6994      0.00000
     61       8.1836      0.00000
     62       8.4875      0.00000
     63       8.6725      0.00000
     64       8.8149      0.00000
     65       8.9024      0.00000
     66       8.9635      0.00000
     67       9.4061      0.00000
     68       9.5446      0.00000
     69      10.4972      0.00000
     70      10.7006      0.00000
     71      11.1701      0.00000
     72      11.7603      0.00000
     73      12.1004      0.00000
     74      12.7636      0.00000
     75      12.8281      0.00000
     76      12.8478      0.00000
     77      12.8507      0.00000
     78      12.9801      0.00000
     79      13.2489      0.00000
     80      13.4189      0.00000
     81      13.5635      0.00000
     82      13.7228      0.00000
     83      13.7969      0.00000
     84      13.9808      0.00000
     85      14.4219      0.00000
     86      14.5490      0.00000
     87      14.6325      0.00000
     88      14.6679      0.00000
     89      14.6804      0.00000
     90      14.7782      0.00000
     91      14.8046      0.00000
     92      14.8750      0.00000
     93      14.9889      0.00000
     94      15.5400      0.00000
     95      15.8250      0.00000
     96      16.1977      0.00000

 k-point     2 :       0.1667    0.0000    0.0000
  band No.  band energies     occupation 
      1     -10.6334      2.00000
      2     -10.3279      2.00000
      3     -10.2291      2.00000
      4      -9.8206      2.00000
      5      -9.0088      2.00000
      6      -8.9208      2.00000
      7      -8.7605      2.00000
      8      -8.6002      2.00000
      9      -4.5933      2.00000
     10      -4.3814      2.00000
     11      -4.3299      2.00000
     12      -3.9604      2.00000
     13      -1.2812      2.00000
     14      -0.8733      2.00000
     15      -0.5109      2.00000
     16      -0.1228      2.00000
     17      -0.0781      2.00000
     18      -0.0134      2.00000
     19       0.0021      2.00000
     20       0.2734      2.00000
     21       0.5572      2.00000
     22       0.6899      2.00000
     23       0.7107      2.00000
     24       0.9116      2.00000
     25       1.0311      2.00000
     26       1.0473      2.00000
     27       1.0664      2.00000
     28       1.1275      2.00000
     29       1.1928      2.00000
     30       1.2081      2.00000
     31       1.3145      2.00000
     32       1.3475      2.00000
     33       2.0729      2.00000
     34       2.2763      2.00000
     35       2.4044      2.00000
     36       2.4152      2.00000
     37       2.5452      2.00000
     38       2.5456      2.00000
     39       2.6127      2.00000
     40       2.7144      2.00000
     41       2.8861      2.00000
     42       2.9739      2.00000
     43       3.0517      2.00000
     44       3.1225      2.00000
     45       3.4653      2.00000
     46       3.5134      2.00000
     47       3.6038      2.00000
     48       3.7929      2.00000
     49       4.0923      2.00000
     50       4.3131      2.00000
     51       4.5247      2.00000
     52       4.5642      2.00000
     53       4.8057      2.00000
     54       4.8257      2.00000
     55       4.9224      2.00000
     56       5.1263      2.00000
     57       7.8445      0.00000
     58       7.8934      0.00000
     59       7.9194      0.00000
     60       8.1335      0.00000
     61       8.2692      0.00000
     62       8.4878      0.00000
     63       8.5231      0.00000
     64       8.5690      0.00000
     65       8.9764      0.00000
     66       9.1126      0.00000
     67       9.7665      0.00000
     68       9.8104      0.00000
     69      11.1298      0.00000
     70      11.3575      0.00000
     71      11.7145      0.00000
     72      11.8584      0.00000
     73      11.9986      0.00000
     74      12.0052      0.00000
     75      12.2800      0.00000
     76      12.4639      0.00000
     77      12.6984      0.00000
     78      12.7744      0.00000
     79      13.0718      0.00000
     80      13.2995      0.00000
     81      13.3837      0.00000
     82      14.0004      0.00000
     83      14.0279      0.00000
     84      14.0670      0.00000
     85      14.1055      0.00000
     86      14.1334      0.00000
     87      14.4760      0.00000
     88      14.9730      0.00000
     89      15.0647      0.00000
     90      15.2089      0.00000
     91      15.3470      0.00000
     92      15.4215      0.00000
     93      15.7279      0.00000
     94      16.0348      0.00000
     95      16.2008      0.00000
     96      16.6261      0.00000

 k-point     3 :       0.3333    0.0000    0.0000
  band No.  band energies     occupation 
      1     -10.0616      2.00000
      2      -9.7889      2.00000
      3      -9.7445      2.00000
      4      -9.3693      2.00000
      5      -8.8976      2.00000
      6      -8.8595      2.00000
      7      -8.7904      2.00000
      8      -8.7512      2.00000
      9      -4.6701      2.00000
     10      -4.5712      2.00000
     11      -4.3544      2.00000
     12      -4.2903      2.00000
     13      -1.0144      2.00000
     14      -0.8811      2.00000
     15      -0.8275      2.00000
     16      -0.6192      2.00000
     17      -0.4995      2.00000
     18      -0.4585      2.00000
     19      -0.4553      2.00000
     20      -0.2715      2.00000
     21       0.2522      2.00000
     22       0.3044      2.00000
     23       0.3205      2.00000
     24       0.6646      2.00000
     25       0.8429      2.00000
     26       0.9793      2.00000
     27       0.9896      2.00000
     28       1.0975      2.00000
     29       1.1924      2.00000
     30       1.2047      2.00000
     31       1.6322      2.00000
     32       1.6536      2.00000
     33       1.9578      2.00000
     34       2.1128      2.00000
     35       2.1934      2.00000
     36       2.3375      2.00000
     37       2.4503      2.00000
     38       2.5041      2.00000
     39       2.5152      2.00000
     40       2.5448      2.00000
     41       2.7283      2.00000
     42       2.7365      2.00000
     43       2.8437      2.00000
     44       2.8519      2.00000
     45       3.1272      2.00000
     46       3.2355      2.00000
     47       3.2750      2.00000
     48       3.5987      2.00000
     49       3.7102      2.00000
     50       3.7256      2.00000
     51       3.7866      2.00000
     52       4.0498      2.00000
     53       4.1130      2.00000
     54       4.2207      2.00000
     55       4.4894      2.00000
     56       4.7065      2.00000
     57       7.4411      0.00000
     58       7.6523      0.00000
     59       8.0420      0.00000
     60       8.4057      0.00000
     61       8.4390      0.00000
     62       8.5629      0.00000
     63       9.0117      0.00000
     64       9.3458      0.00000
     65       9.3529      0.00000
     66       9.5608      0.00000
     67       9.8766      0.00000
     68       9.9521      0.00000
     69      11.0018      0.00000
     70      11.5183      0.00000
     71      11.6151      0.00000
     72      11.7278      0.00000
     73      11.8297      0.00000
     74      12.4868      0.00000
     75      12.5899      0.00000
     76      12.9640      0.00000
     77      13.0362      0.00000
     78      13.3266      0.00000
     79      13.3616      0.00000
     80      13.5903      0.00000
     81      13.6253      0.00000
     82      14.0307      0.00000
     83      14.3055      0.00000
     84      14.3271      0.00000
     85      14.9623      0.00000
     86      15.0508      0.00000
     87      15.2013      0.00000
     88      15.3350      0.00000
     89      15.4972      0.00000
     90      15.6613      0.00000
     91      15.9133      0.00000
     92      15.9632      0.00000
     93      16.1160      0.00000
     94      16.6396      0.00000
     95      16.7988      0.00000
     96      17.0550      0.00000

 k-point     4 :       0.5000    0.0000    0.0000
  band No.  band energies     occupation 
      1      -9.3868      2.00000
      2      -9.3868      2.00000
      3      -9.1540      2.00000
      4      -9.1540      2.00000
      5      -9.1004      2.00000
      6      -9.1004      2.00000
      7      -8.9396      2.00000
      8      -8.9396      2.00000
      9      -4.6667      2.00000
     10      -4.6667      2.00000
     11      -4.6153      2.00000
     12      -4.6153      2.00000
     13      -1.1197      2.00000
     14      -1.1197      2.00000
     15      -0.9324      2.00000
     16      -0.9324      2.00000
     17      -0.4438      2.00000
     18      -0.4438      2.00000
     19      -0.3742      2.00000
     20      -0.3742      2.00000
     21       0.3280      2.00000
     22       0.3280      2.00000
     23       0.3525      2.00000
     24       0.3525      2.00000
     25       0.8007      2.00000
     26       0.8007      2.00000
     27       0.9465      2.00000
     28       0.9466      2.00000
     29       1.2971      2.00000
     30       1.2971      2.00000
     31       1.6628      2.00000
     32       1.6628      2.00000
     33       2.0481      2.00000
     34       2.0481      2.00000
     35       2.1853      2.00000
     36       2.1853      2.00000
     37       2.5242      2.00000
     38       2.5242      2.00000
     39       2.5948      2.00000
     40       2.5948      2.00000
     41       2.6286      2.00000
     42       2.6286      2.00000
     43       2.7549      2.00000
     44       2.7549      2.00000
     45       2.8296      2.00000
     46       2.8296      2.00000
     47       3.2452      2.00000
     48       3.2452      2.00000
     49       3.3726      2.00000
     50       3.3726      2.00000
     51       3.5823      2.00000
     52       3.5823      2.00000
     53       4.1477      2.00000
     54       4.1477      2.00000
     55       4.2597      2.00000
     56       4.2597      2.00000
     57       7.8633      0.00000
     58       7.8633      0.00000
     59       7.9768      0.00000
     60       7.9768      0.00000
     61       8.5648      0.00000
     62       8.5648      0.00000
     63       8.8407      0.00000
     64       8.8407      0.00000
     65       9.5439      0.00000
     66       9.5439      0.00000
     67       9.7573      0.00000
     68       9.7573      0.00000
     69      10.8541      0.00000
     70      10.8541      0.00000
     71      11.5361      0.00000
     72      11.5361      0.00000
     73      12.5796      0.00000
     74      12.5806      0.00000
     75      13.0520      0.00000
     76      13.0525      0.00000
     77      13.3049      0.00000
     78      13.3060      0.00000
     79      13.7466      0.00000
     80      13.7471      0.00000
     81      14.2736      0.00000
     82      14.2748      0.00000
     83      14.6825      0.00000
     84      14.6851      0.00000
     85      15.3002      0.00000
     86      15.3084      0.00000
     87      15.3345      0.00000
     88      15.3391      0.00000
     89      16.1163      0.00000
     90      16.1332      0.00000
     91      16.3460      0.00000
     92      16.3815      0.00000
     93      16.6143      0.00000
     94      16.7423      0.00000
     95      17.9147      0.00000
     96      18.0507      0.00000

 k-point     5 :       0.0000    0.2500    0.0000
  band No.  band energies     occupation 
      1     -10.6934      2.00000
      2     -10.4172      2.00000
      3     -10.3083      2.00000
      4      -9.9999      2.00000
      5      -9.2771      2.00000
      6      -9.1538      2.00000
      7      -8.9204      2.00000
      8      -8.7268      2.00000
      9      -4.9304      2.00000
     10      -4.6686      2.00000
     11      -4.0242      2.00000
     12      -3.7075      2.00000
     13      -1.0168      2.00000
     14      -0.4901      2.00000
     15      -0.4764      2.00000
     16      -0.0935      2.00000
     17      -0.0299      2.00000
     18       0.4145      2.00000
     19       0.6956      2.00000
     20       0.7631      2.00000
     21       0.8038      2.00000
     22       0.8822      2.00000
     23       0.9365      2.00000
     24       1.0316      2.00000
     25       1.0711      2.00000
     26       1.1522      2.00000
     27       1.2368      2.00000
     28       1.3780      2.00000
     29       1.4143      2.00000
     30       1.4733      2.00000
     31       1.6211      2.00000
     32       1.6726      2.00000
     33       2.2077      2.00000
     34       2.2307      2.00000
     35       2.3156      2.00000
     36       2.4797      2.00000
     37       2.5983      2.00000
     38       2.6089      2.00000
     39       2.6393      2.00000
     40       2.8449      2.00000
     41       2.9907      2.00000
     42       3.0252      2.00000
     43       3.0304      2.00000
     44       3.3154      2.00000
     45       3.5974      2.00000
     46       3.7414      2.00000
     47       3.7752      2.00000
     48       4.2371      2.00000
     49       4.3869      2.00000
     50       4.4406      2.00000
     51       4.5551      2.00000
     52       4.6672      2.00000
     53       4.7474      2.00000
     54       4.8155      2.00000
     55       5.0179      2.00000
     56       5.1525      2.00000
     57       6.8290      0.00000
     58       6.8363      0.00000
     59       7.5019      0.00000
     60       7.9065      0.00000
     61       8.0350      0.00000
     62       8.0779      0.00000
     63       8.2113      0.00000
     64       8.5144      0.00000
     65       9.1018      0.00000
     66       9.4103      0.00000
     67       9.5258      0.00000
     68       9.9527      0.00000
     69      10.2828      0.00000
     70      10.3827      0.00000
     71      11.1517      0.00000
     72      11.4709      0.00000
     73      11.5938      0.00000
     74      11.9341      0.00000
     75      12.3680      0.00000
     76      12.8053      0.00000
     77      12.9402      0.00000
     78      13.1315      0.00000
     79      13.4435      0.00000
     80      13.6221      0.00000
     81      13.7742      0.00000
     82      13.8897      0.00000
     83      14.0782      0.00000
     84      14.2149      0.00000
     85      14.2178      0.00000
     86      14.4828      0.00000
     87      14.4925      0.00000
     88      14.5769      0.00000
     89      14.9443      0.00000
     90      14.9935      0.00000
     91      15.1534      0.00000
     92      15.2341      0.00000
     93      15.4088      0.00000
     94      15.6619      0.00000
     95      16.4515      0.00000
     96      16.7347      0.00000

 k-point     6 :       0.1667    0.2500    0.0000
  band No.  band energies     occupation 
      1     -10.4895      2.00000
      2     -10.2218      2.00000
      3     -10.1243      2.00000
      4      -9.8188      2.00000
      5      -9.1735      2.00000
      6      -9.0770      2.00000
      7      -8.8733      2.00000
      8      -8.7071      2.00000
      9      -4.9093      2.00000
     10      -4.6935      2.00000
     11      -4.0908      2.00000
     12      -3.8447      2.00000
     13      -0.8578      2.00000
     14      -0.5207      2.00000
     15      -0.3521      2.00000
     16      -0.1687      2.00000
     17      -0.0438      2.00000
     18       0.1193      2.00000
     19       0.2085      2.00000
     20       0.2699      2.00000
     21       0.5187      2.00000
     22       0.5751      2.00000
     23       0.7813      2.00000
     24       0.8736      2.00000
     25       0.9338      2.00000
     26       1.0040      2.00000
     27       1.0989      2.00000
     28       1.1222      2.00000
     29       1.3093      2.00000
     30       1.3272      2.00000
     31       1.4140      2.00000
     32       1.4557      2.00000
     33       2.0750      2.00000
     34       2.2044      2.00000
     35       2.4250      2.00000
     36       2.5017      2.00000
     37       2.5545      2.00000
     38       2.5991      2.00000
     39       2.6357      2.00000
     40       2.7700      2.00000
     41       2.9299      2.00000
     42       3.0039      2.00000
     43       3.0253      2.00000
     44       3.1650      2.00000
     45       3.5950      2.00000
     46       3.6226      2.00000
     47       3.6663      2.00000
     48       3.9477      2.00000
     49       3.9767      2.00000
     50       4.1685      2.00000
     51       4.2311      2.00000
     52       4.5638      2.00000
     53       4.6369      2.00000
     54       4.6832      2.00000
     55       4.7786      2.00000
     56       4.9422      2.00000
     57       7.3835      0.00000
     58       7.5881      0.00000
     59       7.8173      0.00000
     60       7.8676      0.00000
     61       8.2910      0.00000
     62       8.3010      0.00000
     63       8.6259      0.00000
     64       8.7064      0.00000
     65       8.8256      0.00000
     66       8.9422      0.00000
     67       9.6478      0.00000
     68       9.8148      0.00000
     69      11.1307      0.00000
     70      11.4040      0.00000
     71      11.4543      0.00000
     72      11.7310      0.00000
     73      11.7984      0.00000
     74      11.9832      0.00000
     75      12.2485      0.00000
     76      12.4186      0.00000
     77      12.4229      0.00000
     78      12.7692      0.00000
     79      13.0112      0.00000
     80      13.4560      0.00000
     81      13.5699      0.00000
     82      13.6602      0.00000
     83      14.1146      0.00000
     84      14.1856      0.00000
     85      14.2255      0.00000
     86      14.2735      0.00000
     87      14.7116      0.00000
     88      14.8824      0.00000
     89      15.3346      0.00000
     90      15.4306      0.00000
     91      15.5913      0.00000
     92      15.6864      0.00000
     93      15.8358      0.00000
     94      16.0325      0.00000
     95      16.2983      0.00000
     96      16.4588      0.00000

 k-point     7 :       0.3333    0.2500    0.0000
  band No.  band energies     occupation 
      1      -9.9399      2.00000
      2      -9.7074      2.00000
      3      -9.6555      2.00000
      4      -9.3703      2.00000
      5      -8.9704      2.00000
      6      -8.9679      2.00000
      7      -8.8518      2.00000
      8      -8.7830      2.00000
      9      -4.9506      2.00000
     10      -4.8626      2.00000
     11      -4.4242      2.00000
     12      -4.3752      2.00000
     13      -1.0481      2.00000
     14      -0.9603      2.00000
     15      -0.9024      2.00000
     16      -0.5485      2.00000
     17      -0.2970      2.00000
     18      -0.1955      2.00000
     19      -0.0581      2.00000
     20       0.0380      2.00000
     21       0.1766      2.00000
     22       0.3689      2.00000
     23       0.4671      2.00000
     24       0.5607      2.00000
     25       0.8459      2.00000
     26       0.8840      2.00000
     27       1.0953      2.00000
     28       1.1574      2.00000
     29       1.3192      2.00000
     30       1.4617      2.00000
     31       1.6246      2.00000
     32       1.6888      2.00000
     33       1.9156      2.00000
     34       2.0002      2.00000
     35       2.2960      2.00000
     36       2.4119      2.00000
     37       2.5288      2.00000
     38       2.5466      2.00000
     39       2.6673      2.00000
     40       2.6889      2.00000
     41       2.7643      2.00000
     42       2.8099      2.00000
     43       2.8261      2.00000
     44       2.9721      2.00000
     45       3.1953      2.00000
     46       3.3305      2.00000
     47       3.4115      2.00000
     48       3.4540      2.00000
     49       3.4994      2.00000
     50       3.7494      2.00000
     51       3.7601      2.00000
     52       3.9557      2.00000
     53       4.2799      2.00000
     54       4.3332      2.00000
     55       4.5313      2.00000
     56       4.5869      2.00000
     57       7.1492      0.00000
     58       7.4781      0.00000
     59       7.7296      0.00000
     60       7.9913      0.00000
     61       8.2620      0.00000
     62       8.6091      0.00000
     63       8.7388      0.00000
     64       8.9396      0.00000
     65       9.3190      0.00000
     66       9.3289      0.00000
     67       9.4894      0.00000
     68       9.6097      0.00000
     69      10.7656      0.00000
     70      11.3484      0.00000
     71      11.5468      0.00000
     72      11.7877      0.00000
     73      12.1115      0.00000
     74      12.4736      0.00000
     75      12.5286      0.00000
     76      12.7020      0.00000
     77      12.8031      0.00000
     78      13.3819      0.00000
     79      13.4272      0.00000
     80      13.9283      0.00000
     81      13.9905      0.00000
     82      14.0056      0.00000
     83      14.2577      0.00000
     84      14.4675      0.00000
     85      14.5560      0.00000
     86      14.9054      0.00000
     87      14.9690      0.00000
     88      15.0834      0.00000
     89      15.2928      0.00000
     90      15.6807      0.00000
     91      15.8491      0.00000
     92      15.9999      0.00000
     93      16.2778      0.00000
     94      16.6103      0.00000
     95      16.9099      0.00000
     96      17.1801      0.00000

 k-point     8 :       0.5000    0.2500    0.0000
  band No.  band energies     occupation 
      1      -9.3240      2.00000
      2      -9.3240      2.00000
      3      -9.1334      2.00000
      4      -9.1334      2.00000
      5      -9.0643      2.00000
      6      -9.0643      2.00000
      7      -8.9750      2.00000
      8      -8.9750      2.00000
      9      -4.9045      2.00000
     10      -4.9045      2.00000
     11      -4.8707      2.00000
     12      -4.8707      2.00000
     13      -1.2399      2.00000
     14      -1.2399      2.00000
     15      -0.9639      2.00000
     16      -0.9639      2.00000
     17      -0.3663      2.00000
     18      -0.3663      2.00000
     19      -0.0553      2.00000
     20      -0.0553      2.00000
     21       0.4154      2.00000
     22       0.4154      2.00000
     23       0.4468      2.00000
     24       0.4468      2.00000
     25       0.9046      2.00000
     26       0.9046      2.00000
     27       1.0481      2.00000
     28       1.0481      2.00000
     29       1.4224      2.00000
     30       1.4224      2.00000
     31       1.6612      2.00000
     32       1.6612      2.00000
     33       2.1505      2.00000
     34       2.1505      2.00000
     35       2.2946      2.00000
     36       2.2946      2.00000
     37       2.5562      2.00000
     38       2.5562      2.00000
     39       2.6168      2.00000
     40       2.6168      2.00000
     41       2.6637      2.00000
     42       2.6637      2.00000
     43       2.8064      2.00000
     44       2.8064      2.00000
     45       3.0832      2.00000
     46       3.0832      2.00000
     47       3.2935      2.00000
     48       3.2935      2.00000
     49       3.3441      2.00000
     50       3.3441      2.00000
     51       3.7131      2.00000
     52       3.7131      2.00000
     53       3.9916      2.00000
     54       3.9916      2.00000
     55       4.2443      2.00000
     56       4.2443      2.00000
     57       7.5918      0.00000
     58       7.5918      0.00000
     59       7.7913      0.00000
     60       7.7913      0.00000
     61       8.5456      0.00000
     62       8.5456      0.00000
     63       8.7533      0.00000
     64       8.7533      0.00000
     65       9.1066      0.00000
     66       9.1066      0.00000
     67       9.1235      0.00000
     68       9.1235      0.00000
     69      10.9024      0.00000
     70      10.9024      0.00000
     71      11.1067      0.00000
     72      11.1067      0.00000
     73      12.4726      0.00000
     74      12.4733      0.00000
     75      13.0932      0.00000
     76      13.0949      0.00000
     77      13.3630      0.00000
     78      13.3640      0.00000
     79      13.5697      0.00000
     80      13.5701      0.00000
     81      14.2431      0.00000
     82      14.2446      0.00000
     83      14.2737      0.00000
     84      14.2762      0.00000
     85      15.4603      0.00000
[...]
   28.512774    0.613089    0.603979    0.613101    0.000000   -0.000000   -0.000000
   28.543433    0.614033    0.604946    0.614048    0.000000   -0.000000   -0.000000
   28.574092    0.614974    0.605908    0.614990    0.000000   -0.000000   -0.000000
   28.604751    0.615910    0.606867    0.615929    0.000000   -0.000000   -0.000000
   28.635409    0.616843    0.607822    0.616863    0.000000   -0.000000   -0.000000
   28.666068    0.617772    0.608773    0.617794    0.000000   -0.000000   -0.000000
   28.696727    0.618697    0.609721    0.618722    0.000000   -0.000000   -0.000000
   28.727386    0.619618    0.610665    0.619645    0.000000   -0.000000   -0.000000
   28.758045    0.620536    0.611605    0.620565    0.000000   -0.000000   -0.000000
   28.788704    0.621450    0.612541    0.621481    0.000000   -0.000000   -0.000000
   28.819363    0.622361    0.613474    0.622394    0.000000   -0.000000   -0.000000
   28.850022    0.623268    0.614403    0.623303    0.000000   -0.000000   -0.000000
   28.880681    0.624171    0.615328    0.624208    0.000000   -0.000000   -0.000000
   28.911340    0.625071    0.616250    0.625110    0.000000   -0.000000   -0.000000
   28.941998    0.625967    0.617168    0.626009    0.000000   -0.000000   -0.000000
   28.972657    0.626860    0.618083    0.626903    0.000000   -0.000000   -0.000000
   29.003316    0.627749    0.618994    0.627795    0.000000   -0.000000   -0.000000
   29.033975    0.628635    0.619902    0.628683    0.000000   -0.000000   -0.000000
   29.064634    0.629517    0.620806    0.629567    0.000000   -0.000000   -0.000000
   29.095293    0.630396    0.621707    0.630448    0.000000   -0.000000   -0.000000
   29.125952    0.631272    0.622604    0.631326    0.000000   -0.000000   -0.000000
   29.156611    0.632144    0.623498    0.632200    0.000000   -0.000000   -0.000000
   29.187270    0.633013    0.624388    0.633071    0.000000   -0.000000   -0.000000
   29.217928    0.633878    0.625275    0.633939    0.000000   -0.000000   -0.000000
   29.248587    0.634740    0.626159    0.634803    0.000000   -0.000000   -0.000000
   29.279246    0.635599    0.627039    0.635664    0.000000   -0.000000   -0.000000
   29.309905    0.636455    0.627916    0.636522    0.000000   -0.000000   -0.000000
   29.340564    0.637308    0.628790    0.637376    0.000000   -0.000000   -0.000000
   29.371223    0.638157    0.629660    0.638227    0.000000   -0.000000   -0.000000
   29.401882    0.639003    0.630527    0.639075    0.000000   -0.000000   -0.000000
   29.432541    0.639846    0.631391    0.639920    0.000000   -0.000000   -0.000000
   29.463200    0.640685    0.632252    0.640762    0.000000   -0.000000   -0.000000
   29.493859    0.641522    0.633109    0.641600    0.000000   -0.000000   -0.000000
   29.524517    0.642355    0.633963    0.642435    0.000000   -0.000000   -0.000000
   29.555176    0.643185    0.634814    0.643268    0.000000   -0.000000   -0.000000
   29.585835    0.644013    0.635662    0.644097    0.000000   -0.000000   -0.000000
   29.616494    0.644837    0.636507    0.644923    0.000000   -0.000000   -0.000000
   29.647153    0.645658    0.637349    0.645746    0.000000   -0.000000   -0.000000
   29.677812    0.646476    0.638187    0.646566    0.000000   -0.000000   -0.000000
   29.708471    0.647291    0.639023    0.647382    0.000000   -0.000000   -0.000000
   29.739130    0.648103    0.639855    0.648196    0.000000   -0.000000   -0.000000
   29.769789    0.648912    0.640684    0.649007    0.000000   -0.000000   -0.000000
   29.800448    0.649718    0.641511    0.649815    0.000000   -0.000000   -0.000000
   29.831106    0.650521    0.642334    0.650620    0.000000   -0.000000   -0.000000
   29.861765    0.651321    0.643154    0.651422    0.000000   -0.000000   -0.000000
   29.892424    0.652118    0.643971    0.652221    0.000000   -0.000000   -0.000000
   29.923083    0.652912    0.644785    0.653017    0.000000   -0.000000   -0.000000
   29.953742    0.653704    0.645597    0.653810    0.000000   -0.000000   -0.000000
   29.984401    0.654492    0.646405    0.654600    0.000000   -0.000000   -0.000000
   30.015060    0.655278    0.647211    0.655388    0.000000   -0.000000   -0.000000
   30.045719    0.656061    0.648013    0.656172    0.000000   -0.000000   -0.000000
   30.076378    0.656841    0.648813    0.656954    0.000000   -0.000000   -0.000000
   30.107036    0.657618    0.649610    0.657733    0.000000   -0.000000   -0.000000
   30.137695    0.658392    0.650403    0.658509    0.000000   -0.000000   -0.000000
   30.168354    0.659164    0.651194    0.659282    0.000000   -0.000000   -0.000000
   30.199013    0.659933    0.651983    0.660053    0.000000   -0.000000   -0.000000
   30.229672    0.660699    0.652768    0.660820    0.000000   -0.000000   -0.000000
   30.260331    0.661462    0.653551    0.661585    0.000000   -0.000000   -0.000000
   30.290990    0.662223    0.654330    0.662348    0.000000   -0.000000   -0.000000
   30.321649    0.662981    0.655107    0.663107    0.000000   -0.000000   -0.000000
   30.352308    0.663736    0.655882    0.663864    0.000000   -0.000000   -0.000000
   30.382967    0.664488    0.656653    0.664618    0.000000   -0.000000   -0.000000
   30.413625    0.665238    0.657422    0.665370    0.000000   -0.000000   -0.000000
   30.444284    0.665985    0.658188    0.666118    0.000000   -0.000000   -0.000000
   30.474943    0.666730    0.658951    0.666864    0.000000   -0.000000   -0.000000
   30.505602    0.667472    0.659712    0.667608    0.000000   -0.000000   -0.000000
   30.536261    0.668211    0.660470    0.668349    0.000000   -0.000000   -0.000000
   30.566920    0.668948    0.661225    0.669087    0.000000   -0.000000   -0.000000
   30.597579    0.669682    0.661978    0.669823    0.000000   -0.000000   -0.000000
   30.628238    0.670414    0.662728    0.670556    0.000000   -0.000000   -0.000000
   30.658897    0.671143    0.663475    0.671286    0.000000   -0.000000   -0.000000
   30.689556    0.671869    0.664220    0.672014    0.000000   -0.000000   -0.000000
   30.720214    0.672593    0.664963    0.672740    0.000000   -0.000000   -0.000000
   30.750873    0.673314    0.665702    0.673462    0.000000   -0.000000   -0.000000
   30.781532    0.674033    0.666439    0.674183    0.000000   -0.000000   -0.000000
   30.812191    0.674750    0.667174    0.674901    0.000000   -0.000000   -0.000000
   30.842850    0.675464    0.667906    0.675616    0.000000   -0.000000   -0.000000
   30.873509    0.676175    0.668635    0.676329    0.000000   -0.000000   -0.000000
   30.904168    0.676884    0.669362    0.677039    0.000000   -0.000000   -0.000000
   30.934827    0.677591    0.670086    0.677747    0.000000   -0.000000   -0.000000
   30.965486    0.678295    0.670808    0.678453    0.000000   -0.000000   -0.000000
   30.996144    0.678996    0.671528    0.679156    0.000000   -0.000000   -0.000000
   31.026803    0.679696    0.672244    0.679856    0.000000   -0.000000   -0.000000
   31.057462    0.680393    0.672959    0.680555    0.000000   -0.000000   -0.000000
   31.088121    0.681087    0.673671    0.681250    0.000000   -0.000000   -0.000000
   31.118780    0.681779    0.674381    0.681944    0.000000   -0.000000   -0.000000
   31.149439    0.682469    0.675088    0.682635    0.000000   -0.000000   -0.000000
   31.180098    0.683156    0.675793    0.683324    0.000000   -0.000000   -0.000000
   31.210757    0.683841    0.676495    0.684010    0.000000   -0.000000   -0.000000
   31.241416    0.684524    0.677195    0.684694    0.000000   -0.000000   -0.000000
   31.272075    0.685205    0.677892    0.685376    0.000000   -0.000000   -0.000000
   31.302733    0.685883    0.678588    0.686055    0.000000   -0.000000   -0.000000
   31.333392    0.686559    0.679281    0.686732    0.000000   -0.000000   -0.000000
   31.364051    0.687232    0.679971    0.687407    0.000000   -0.000000   -0.000000
   31.394710    0.687903    0.680659    0.688079    0.000000   -0.000000   -0.000000
   31.425369    0.688572    0.681345    0.688750    0.000000   -0.000000   -0.000000
   31.456028    0.689239    0.682029    0.689418    0.000000   -0.000000   -0.000000
   31.486687    0.689904    0.682710    0.690083    0.000000   -0.000000   -0.000000
   31.517346    0.690566    0.683389    0.690747    0.000000   -0.000000   -0.000000
   31.548005    0.691226    0.684066    0.691408    0.000000   -0.000000   -0.000000
   31.578664    0.691884    0.684740    0.692067    0.000000   -0.000000   -0.000000
   31.609322    0.692540    0.685412    0.692724    0.000000   -0.000000   -0.000000
   31.639981    0.693193    0.686082    0.693379    0.000000   -0.000000   -0.000000
   31.670640    0.693844    0.686750    0.694031    0.000000   -0.000000   -0.000000
   31.701299    0.694494    0.687416    0.694681    0.000000   -0.000000   -0.000000
   31.731958    0.695141    0.688079    0.695329    0.000000   -0.000000   -0.000000
   31.762617    0.695785    0.688740    0.695975    0.000000   -0.000000   -0.000000
   31.793276    0.696428    0.689399    0.696619    0.000000   -0.000000   -0.000000
   31.823935    0.697069    0.690055    0.697261    0.000000   -0.000000   -0.000000
   31.854594    0.697707    0.690710    0.697900    0.000000   -0.000000   -0.000000
   31.885252    0.698344    0.691362    0.698538    0.000000   -0.000000   -0.000000
   31.915911    0.698978    0.692013    0.699173    0.000000   -0.000000   -0.000000
   31.946570    0.699610    0.692661    0.699806    0.000000   -0.000000   -0.000000
   31.977229    0.700240    0.693307    0.700437    0.000000   -0.000000   -0.000000
   32.007888    0.700868    0.693951    0.701066    0.000000   -0.000000   -0.000000
   32.038547    0.701494    0.694592    0.701693    0.000000   -0.000000   -0.000000
   32.069206    0.702118    0.695232    0.702318    0.000000   -0.000000   -0.000000
   32.099865    0.702740    0.695869    0.702941    0.000000   -0.000000   -0.000000
   32.130524    0.703360    0.696505    0.703562    0.000000   -0.000000   -0.000000
   32.161183    0.703978    0.697138    0.704181    0.000000   -0.000000   -0.000000
   32.191841    0.704594    0.697770    0.704798    0.000000   -0.000000   -0.000000
   32.222500    0.705207    0.698399    0.705413    0.000000   -0.000000   -0.000000
   32.253159    0.705819    0.699026    0.706025    0.000000   -0.000000   -0.000000
   32.283818    0.706429    0.699651    0.706636    0.000000   -0.000000   -0.000000
   32.314477    0.707037    0.700274    0.707245    0.000000   -0.000000   -0.000000
   32.345136    0.707643    0.700896    0.707852    0.000000   -0.000000   -0.000000
   32.375795    0.708247    0.701515    0.708457    0.000000   -0.000000   -0.000000
   32.406454    0.708849    0.702132    0.709060    0.000000   -0.000000   -0.000000
   32.437113    0.709449    0.702747    0.709661    0.000000   -0.000000   -0.000000
   32.467772    0.710047    0.703360    0.710260    0.000000   -0.000000   -0.000000
   32.498430    0.710644    0.703971    0.710857    0.000000   -0.000000   -0.000000
   32.529089    0.711238    0.704581    0.711452    0.000000   -0.000000   -0.000000
   32.559748    0.711830    0.705188    0.712046    0.000000   -0.000000   -0.000000
   32.590407    0.712421    0.705793    0.712637    0.000000   -0.000000   -0.000000
   32.621066    0.713010    0.706397    0.713226    0.000000   -0.000000   -0.000000
   32.651725    0.713596    0.706998    0.713814    0.000000   -0.000000   -0.000000
   32.682384    0.714181    0.707598    0.714400    0.000000   -0.000000   -0.000000
   32.713043    0.714764    0.708195    0.714984    0.000000   -0.000000   -0.000000
   32.743702    0.715346    0.708791    0.715566    0.000000   -0.000000   -0.000000
   32.774360    0.715925    0.709385    0.716146    0.000000   -0.000000   -0.000000
   32.805019    0.716502    0.709977    0.716724    0.000000   -0.000000   -0.000000
   32.835678    0.717078    0.710567    0.717301    0.000000   -0.000000   -0.000000
   32.866337    0.717652    0.711155    0.717875    0.000000   -0.000000   -0.000000
   32.896996    0.718224    0.711741    0.718448    0.000000   -0.000000   -0.000000
   32.927655    0.718794    0.712326    0.719019    0.000000   -0.000000   -0.000000
   32.958314    0.719363    0.712909    0.719588    0.000000   -0.000000   -0.000000
   32.988973    0.719929    0.713489    0.720156    0.000000   -0.000000   -0.000000
   33.019632    0.720494    0.714068    0.720721    0.000000   -0.000000   -0.000000
   33.050291    0.721057    0.714646    0.721285    0.000000   -0.000000   -0.000000
   33.080949    0.721619    0.715221    0.721847    0.000000   -0.000000   -0.000000
   33.111608    0.722178    0.715795    0.722408    0.000000   -0.000000   -0.000000
   33.142267    0.722736    0.716366    0.722966    0.000000   -0.000000   -0.000000
   33.172926    0.723292    0.716936    0.723523    0.000000   -0.000000   -0.000000
   33.203585    0.723847    0.717505    0.724078    0.000000   -0.000000   -0.000000
   33.234244    0.724399    0.718071    0.724632    0.000000   -0.000000   -0.000000
   33.264903    0.724950    0.718636    0.725183    0.000000   -0.000000   -0.000000
   33.295562    0.725500    0.719199    0.725733    0.000000   -0.000000   -0.000000
   33.326221    0.726047    0.719760    0.726281    0.000000   -0.000000   -0.000000
   33.356880    0.726593    0.720319    0.726828    0.000000   -0.000000   -0.000000
   33.387538    0.727137    0.720877    0.727373    0.000000   -0.000000   -0.000000
   33.418197    0.727680    0.721433    0.727916    0.000000   -0.000000   -0.000000
   33.448856    0.728220    0.721987    0.728457    0.000000   -0.000000   -0.000000
   33.479515    0.728759    0.722540    0.728997    0.000000   -0.000000   -0.000000
   33.510174    0.729297    0.723091    0.729535    0.000000   -0.000000   -0.000000
   33.540833    0.729833    0.723640    0.730071    0.000000   -0.000000   -0.000000
   33.571492    0.730367    0.724187    0.730606    0.000000   -0.000000   -0.000000
   33.602151    0.730899    0.724733    0.731139    0.000000   -0.000000   -0.000000
   33.632810    0.731430    0.725277    0.731671    0.000000   -0.000000   -0.000000
   33.663468    0.731960    0.725819    0.732201    0.000000   -0.000000   -0.000000
   33.694127    0.732487    0.726360    0.732729    0.000000   -0.000000   -0.000000
   33.724786    0.733013    0.726899    0.733256    0.000000   -0.000000   -0.000000
   33.755445    0.733538    0.727437    0.733781    0.000000   -0.000000   -0.000000
   33.786104    0.734061    0.727973    0.734304    0.000000   -0.000000   -0.000000
   33.816763    0.734582    0.728507    0.734826    0.000000   -0.000000   -0.000000
   33.847422    0.735101    0.729039    0.735346    0.000000   -0.000000   -0.000000
   33.878081    0.735619    0.729570    0.735865    0.000000   -0.000000   -0.000000
   33.908740    0.736136    0.730100    0.736382    0.000000   -0.000000   -0.000000
   33.939399    0.736651    0.730627    0.736897    0.000000   -0.000000   -0.000000
   33.970057    0.737164    0.731153    0.737411    0.000000   -0.000000   -0.000000
   34.000716    0.737676    0.731678    0.737924    0.000000   -0.000000   -0.000000
   34.031375    0.738186    0.732201    0.738434    0.000000   -0.000000   -0.000000
   34.062034    0.738695    0.732722    0.738944    0.000000   -0.000000   -0.000000
   34.092693    0.739202    0.733242    0.739451    0.000000   -0.000000   -0.000000
   34.123352    0.739708    0.733760    0.739958    0.000000   -0.000000   -0.000000
   34.154011    0.740212    0.734277    0.740462    0.000000   -0.000000   -0.000000
   34.184670    0.740715    0.734792    0.740966    0.000000   -0.000000   -0.000000
   34.215329    0.741216    0.735306    0.741467    0.000000   -0.000000   -0.000000
   34.245988    0.741716    0.735818    0.741967    0.000000   -0.000000   -0.000000
   34.276646    0.742214    0.736328    0.742466    0.000000   -0.000000   -0.000000
   34.307305    0.742711    0.736837    0.742963    0.000000   -0.000000   -0.000000
   34.337964    0.743206    0.737345    0.743459    0.000000   -0.000000   -0.000000
   34.368623    0.743700    0.737851    0.743953    0.000000   -0.000000   -0.000000
   34.399282    0.744192    0.738355    0.744446    0.000000   -0.000000   -0.000000
   34.429941    0.744683    0.738858    0.744937    0.000000   -0.000000   -0.000000
   34.460600    0.745172    0.739359    0.745427    0.000000   -0.000000   -0.000000
   34.491259    0.745660    0.739859    0.745915    0.000000   -0.000000   -0.000000
   34.521918    0.746146    0.740358    0.746402    0.000000   -0.000000   -0.000000
   34.552576    0.746631    0.740855    0.746888    0.000000   -0.000000   -0.000000
   34.583235    0.747115    0.741350    0.747372    0.000000   -0.000000   -0.000000
   34.613894    0.747597    0.741844    0.747854    0.000000   -0.000000   -0.000000
   34.644553    0.748078    0.742337    0.748335    0.000000   -0.000000   -0.000000
   34.675212    0.748557    0.742828    0.748815    0.000000   -0.000000   -0.000000
   34.705871    0.749035    0.743318    0.749293    0.000000   -0.000000   -0.000000
   34.736530    0.749512    0.743806    0.749770    0.000000   -0.000000   -0.000000
   34.767189    0.749987    0.744293    0.750246    0.000000   -0.000000   -0.000000
   34.797848    0.750460    0.744778    0.750720    0.000000   -0.000000   -0.000000
 
 The outermost node in the dielectric function lies at epsilon=  19.6


--------------------------------------------------------------------------------------------------------


    OPTICS:  cpu time      8.1707: real time      8.2281
    4ORBIT:  cpu time      0.0000: real time      0.0000



 total charge

# of ion       s       p       d       tot
------------------------------------------
    1        0.350   0.368   9.354  10.071
    2        0.350   0.368   9.354  10.071
    3        0.350   0.368   9.354  10.071
    4        0.350   0.368   9.354  10.071
    5        1.298   1.067   0.071   2.435
    6        1.298   1.067   0.071   2.435
    7        1.298   1.067   0.071   2.435
    8        1.298   1.067   0.071   2.435
    9        1.330   2.377   0.000   3.707
   10        1.330   2.377   0.000   3.707
   11        1.330   2.377   0.000   3.707
   12        1.330   2.377   0.000   3.707
   13        1.336   2.359   0.000   3.695
   14        1.336   2.359   0.000   3.695
   15        1.336   2.359   0.000   3.695
   16        1.336   2.359   0.000   3.695
--------------------------------------------------
tot         17.253  24.682  37.699  79.634
 
 BZINTS: Fermi energy:    5.223117;  112.000000 electrons
         Band energy:-0.848474E+01;  BLOECHL correction:    0.000000

 total amount of memory used by VASP MPI-rank0   115514. kBytes
=======================================================================

   base      :      30000. kBytes
   nonl-proj :       7572. kBytes
   fftplans  :       2487. kBytes
   grid      :       2844. kBytes
   one-center:         31. kBytes
   HF        :        129. kBytes
   nonlr-proj:      11595. kBytes
   wavefun   :       2193. kBytes
   fock_wrk  :      58663. kBytes
 
  
  
 General timing and accounting informations for this job:
 ========================================================
  
                  Total CPU time used (sec):     2842.610
                            User time (sec):     2491.294
                          System time (sec):      351.316
                         Elapsed time (sec):     2859.832
  
                   Maximum memory used (kb):      552984.
                   Average memory used (kb):          N/A
  
                          Minor page faults:       515440
                          Major page faults:            0
                 Voluntary context switches:        24852
