 vasp.6.4.2 20Jul23 (build Mar 15 2024 16:31:38) complex                        
  
 executed on             LinuxIFC date 2025.03.26  17:07:32
 running  120 mpi-ranks, on    3 nodes
 distrk:  each k-point on  120 cores,    1 groups
 distr:  one band on NCORE=  10 cores,   12 groups


--------------------------------------------------------------------------------------------------------


 INCAR:
   ALGO = Normal
   EDIFF = 1e-05
   ENAUG = 1360
   ENCUT = 680
   GGA = Pe
   HFSCREEN = 0.2
   ISMEAR = 0
   ISPIN = 2
   LAECHG = True
   LASPH = True
   LCHARG = True
   LDAU = False
   LELF = False
   LHFCALC = True
   LMAXMIX = 4
   LMIXTAU = True
   LORBIT = 11
   LREAL = False
   LVTOT = True
   LWAVE = True
   MAGMOM = 6*0.6
   NCORE = 10
   NELM = 200
   NSW = 0
   PREC = Accurate
   PRECFOCK = Fast
   SIGMA = 0.01

 POTCAR:    PAW_PBE Cu 22Jun2005                  
 POTCAR:    PAW_PBE O 08Apr2002                   
 WARNING: For LVTOT=.TRUE., VASP.5.x writes the TOTAL local potential to the
     file LOCPOT. If you want only the Hartree contributions, use LVHAR=.TRUE.
     instead. 

 POTCAR:    PAW_PBE Cu 22Jun2005                  
   VRHFIN =Cu: d10 p1                                                                               
   LEXCH  = PE                                                                                      
   EATOM  =  1390.9808 eV,  102.2342 Ry                                                             
                                                                                                    
   TITEL  = PAW_PBE Cu 22Jun2005                                                                    
   LULTRA =        F    use ultrasoft PP ?                                                          
   IUNSCR =        1    unscreen: 0-lin 1-nonlin 2-no                                               
   RPACOR =    2.000    partial core radius                                                         
   POMASS =   63.546; ZVAL   =   11.000    mass and valenz                                          
   RCORE  =    2.300    outmost cutoff radius                                                       
   RWIGS  =    2.200; RWIGS  =    1.164    wigner-seitz radius (au A)                               
   ENMAX  =  295.446; ENMIN  =  221.585 eV                                                          
   ICORE  =        3    local potential                                                             
   LCOR   =        T    correct aug charges                                                         
   LPAW   =        T    paw PP                                                                      
   EAUG   =  586.980                                                                                
   DEXC   =    0.000                                                                                
   RMAX   =    2.344    core radius for proj-oper                                                   
   RAUG   =    1.300    factor for augmentation sphere                                              
   RDEP   =    2.302    radius for radial grids                                                     
   RDEPT  =    1.771    core radius for aug-charge                                                  
                                                                                                    
   Atomic configuration                                                                             
    9 entries                                                                                       
     n  l   j            E        occ.                                                              
     1  0  0.50     -8850.2468   2.0000                                                             
     2  0  0.50     -1062.3498   2.0000                                                             
     2  1  1.50      -916.8226   6.0000                                                             
     3  0  0.50      -114.6929   2.0000                                                             
     3  1  1.50       -72.1325   6.0000                                                             
     3  2  2.50        -5.0394  10.0000                                                             
     4  0  0.50        -4.6097   1.0000                                                             
     4  1  0.50        -4.0817   0.0000                                                             
     4  3  2.50        -1.3606   0.0000                                                             
   Description                                                                                      
     l       E           TYP  RCUT    TYP  RCUT                                                     
     2     -5.0393973     23  2.200                                                                 
     2     10.8846608     23  2.200                                                                 
     0     -4.6097109     23  2.200                                                                 
     0      8.2520465     23  2.200                                                                 
     1     -2.7211652     23  2.200                                                                 
     1     21.7055443     23  2.200                                                                 
     3      2.7211652     23  2.300                                                                 
  local pseudopotential read in
  partial core-charges read in
  partial kinetic energy density read in
  atomic valenz-charges read in
  non local Contribution for L=           2  read in
    real space projection operators read in
  non local Contribution for L=           2  read in
    real space projection operators read in
  non local Contribution for L=           0  read in
    real space projection operators read in
  non local Contribution for L=           0  read in
    real space projection operators read in
  non local Contribution for L=           1  read in
    real space projection operators read in
  non local Contribution for L=           1  read in
    real space projection operators read in
    PAW grid and wavefunctions read in
 
   number of l-projection  operators is LMAX  =           6
   number of lm-projection operators is LMMAX =          18
 
 POTCAR:    PAW_PBE O 08Apr2002                   
   VRHFIN =O: s2p4                                                                                  
   LEXCH  = PE                                                                                      
   EATOM  =   432.3788 eV,   31.7789 Ry                                                             
                                                                                                    
   TITEL  = PAW_PBE O 08Apr2002                                                                     
   LULTRA =        F    use ultrasoft PP ?                                                          
   IUNSCR =        1    unscreen: 0-lin 1-nonlin 2-no                                               
   RPACOR =    1.200    partial core radius                                                         
   POMASS =   16.000; ZVAL   =    6.000    mass and valenz                                          
   RCORE  =    1.520    outmost cutoff radius                                                       
   RWIGS  =    1.550; RWIGS  =    0.820    wigner-seitz radius (au A)                               
   ENMAX  =  400.000; ENMIN  =  300.000 eV                                                          
   ICORE  =        2    local potential                                                             
   LCOR   =        T    correct aug charges                                                         
   LPAW   =        T    paw PP                                                                      
   EAUG   =  605.392                                                                                
   DEXC   =    0.000                                                                                
   RMAX   =    1.553    core radius for proj-oper                                                   
   RAUG   =    1.300    factor for augmentation sphere                                              
   RDEP   =    1.550    radius for radial grids                                                     
   RDEPT  =    1.329    core radius for aug-charge                                                  
                                                                                                    
   Atomic configuration                                                                             
    4 entries                                                                                       
     n  l   j            E        occ.                                                              
     1  0  0.50      -514.6923   2.0000                                                             
     2  0  0.50       -23.9615   2.0000                                                             
     2  1  0.50        -9.0305   4.0000                                                             
     3  2  1.50        -9.5241   0.0000                                                             
   Description                                                                                      
     l       E           TYP  RCUT    TYP  RCUT                                                     
     0    -23.9615318     23  1.200                                                                 
     0     -9.5240782     23  1.200                                                                 
     1     -9.0304911     23  1.520                                                                 
     1      8.1634956     23  1.520                                                                 
     2     -9.5240782      7  1.500                                                                 
  local pseudopotential read in
  partial core-charges read in
  partial kinetic energy density read in
  kinetic energy density of atom read in
  atomic valenz-charges read in
  non local Contribution for L=           0  read in
    real space projection operators read in
  non local Contribution for L=           0  read in
    real space projection operators read in
  non local Contribution for L=           1  read in
    real space projection operators read in
  non local Contribution for L=           1  read in
    real space projection operators read in
    PAW grid and wavefunctions read in
 
   number of l-projection  operators is LMAX  =           4
   number of lm-projection operators is LMMAX =           8
 
  PAW_PBE Cu 22Jun2005                  :
 energy of atom  1       EATOM=-1390.9808
 kinetic energy error for atom=    0.0018 (will be added to EATOM!!)
  PAW_PBE O 08Apr2002                   :
 energy of atom  2       EATOM= -432.3788
 kinetic energy error for atom=    0.0105 (will be added to EATOM!!)
 
 
 POSCAR: Cu4 O2
  positions in direct lattice
  No initial velocities read in
 exchange correlation table for  LEXCH =        8
   RHO(1)=    0.500       N(1)  =     2000
   RHO(2)=  100.500       N(2)  =     4000
 


--------------------------------------------------------------------------------------------------------


 ion  position               nearest neighbor table
   1  0.500  0.500  0.000-   5 1.84   6 1.84
   2  0.000  0.500  0.500-   5 1.84   6 1.84
   3  0.500  0.000  0.500-   5 1.84   6 1.84
   4  0.000  0.000  0.000-   5 1.84   6 1.84
   5  0.750  0.750  0.750-   1 1.84   2 1.84   3 1.84   4 1.84
   6  0.250  0.250  0.250-   1 1.84   2 1.84   3 1.84   4 1.84
 
  LATTYP: Found a simple cubic cell.
 ALAT       =     4.2466993200
  
  Lattice vectors:
  
 A1 = (   4.2466993200,   0.0000000000,   0.0000000000)
 A2 = (  -0.0000000000,   4.2466993200,   0.0000000000)
 A3 = (   0.0000000000,   0.0000000000,   4.2466993200)


Analysis of symmetry for initial positions (statically):
=====================================================================
 Subroutine PRICEL returns:
 Original cell was already a primitive cell.
 

 Routine SETGRP: Setting up the symmetry group for a 
 simple cubic supercell.


 Subroutine GETGRP returns: Found 48 space group operations
 (whereof 12 operations were pure point group operations)
 out of a pool of 48 trial point group operations.


The static configuration has the point symmetry D_3d.
 The point group associated with its full space group is O_h .


Analysis of symmetry for dynamics (positions and initial velocities):
=====================================================================
 Subroutine PRICEL returns:
 Original cell was already a primitive cell.
 

 Routine SETGRP: Setting up the symmetry group for a 
 simple cubic supercell.


 Subroutine GETGRP returns: Found 48 space group operations
 (whereof 12 operations were pure point group operations)
 out of a pool of 48 trial point group operations.


The dynamic configuration has the point symmetry D_3d.
 The point group associated with its full space group is O_h .


Analysis of structural, dynamic, and magnetic symmetry:
=====================================================================
 Subroutine PRICEL returns:
 Original cell was already a primitive cell.
 

 Routine SETGRP: Setting up the symmetry group for a 
 simple cubic supercell.


 Subroutine GETGRP returns: Found 48 space group operations
 (whereof 12 operations were pure point group operations)
 out of a pool of 48 trial point group operations.


The overall configuration has the point symmetry D_3d.
 The point group associated with its full space group is O_h .


 Subroutine INISYM returns: Found 48 space group operations
 (whereof 12 operations are pure point group operations),
 and found     1 'primitive' translations


----------------------------------------------------------------------------------------

                                     Primitive cell                                     

  volume of cell :      76.5869

  direct lattice vectors                    reciprocal lattice vectors
     4.246699320  0.000000000  0.000000000     0.235476996  0.000000000  0.000000000
    -0.000000000  4.246699320  0.000000000     0.000000000  0.235476996  0.000000000
     0.000000000  0.000000000  4.246699320    -0.000000000 -0.000000000  0.235476996

  length of vectors
     4.246699320  4.246699320  4.246699320     0.235476996  0.235476996  0.235476996

  position of ions in fractional coordinates (direct lattice)
     0.500000000  0.500000000  1.000000000
     0.000000000  0.500000000  0.500000000
     0.500000000  0.000000000  0.500000000
     0.000000000  0.000000000  0.000000000
     0.750000000  0.750000000  0.750000000
     0.250000000  0.250000000  0.250000000

  ion indices of the primitive-cell ions
   primitive index   ion index
                 1           1
                 2           2
                 3           3
                 4           4
                 5           5
                 6           6

----------------------------------------------------------------------------------------

 
 
 KPOINTS: k-points for static calculation specifie

Read explicit list of k-points.

 Found      1 k-points:

 Following reciprocal coordinates:
            Coordinates               Weight
  0.000000  0.000000  0.000000      1.000000

 Following cartesian coordinates:
            Coordinates               Weight
  0.000000  0.000000  0.000000      1.000000
 
 
 Subroutine IBZKPT_HF returns following result:
 ==============================================
 
 Found      1 k-points in 1st BZ
 the following      1 k-points will be used (e.g. in the exchange kernel)
 Following reciprocal coordinates:   # in IRBZ
  0.000000  0.000000  0.000000    1.00000000   1 t-inv F


--------------------------------------------------------------------------------------------------------




 Dimension of arrays:
   k-points           NKPTS =      1   k-points in BZ     NKDIM =      1   number of bands    NBANDS=     36
   number of dos      NEDOS =    301   number of ions     NIONS =      6
   non local maximal  LDIM  =      6   non local SUM 2l+1 LMDIM =     18
   total plane-waves  NPLWV =  46656
   max r-space proj   IRMAX =      1   max aug-charges    IRDMAX=  17843
   dimension x,y,z NGX =    36 NGY =   36 NGZ =   36
   dimension x,y,z NGXF=    72 NGYF=   72 NGZF=   72
   support grid    NGXF=    72 NGYF=   72 NGZF=   72
   ions per type =               4   2
   NGX,Y,Z   is equivalent  to a cutoff of  14.09, 14.09, 14.09 a.u.
   NGXF,Y,Z  is equivalent  to a cutoff of  28.19, 28.19, 28.19 a.u.

 SYSTEM =  unknown system                          
 POSCAR =  Cu4 O2                                  

 Startparameter for this run:
   NWRITE =      2    write-flag & timer
   PREC   = accura    normal or accurate (medium, high low for compatibility)
   ISTART =      0    job   : 0-new  1-cont  2-samecut
   ICHARG =      2    charge: 1-file 2-atom 10-const
   ISPIN  =      2    spin polarized calculation?
   LNONCOLLINEAR =      F non collinear calculations
   LSORBIT =      F    spin-orbit coupling
   INIWAV =      1    electr: 0-lowe 1-rand  2-diag
   LASPH  =      T    aspherical Exc in radial PAW
 Electronic Relaxation 1
   ENCUT  =  680.0 eV  49.98 Ry    7.07 a.u.   9.03  9.03  9.03*2*pi/ulx,y,z
   ENINI  =  680.0     initial cutoff
   ENAUG  = 1360.0 eV  augmentation charge cutoff
   NELM   =    200;   NELMIN=  2; NELMDL= -5     # of ELM steps 
   EDIFF  = 0.1E-04   stopping-criterion for ELM
   LREAL  =      F    real-space projection
   NLSPLINE    = F    spline interpolate recip. space projectors
   LCOMPAT=      F    compatible to vasp.4.4
   GGA_COMPAT  = T    GGA compatible to vasp.4.4-vasp.4.6
   LMAXPAW     = -100 max onsite density
   LMAXMIX     =    4 max onsite mixed and CHGCAR
   VOSKOWN=      0    Vosko Wilk Nusair interpolation
   ROPT   =    0.00000   0.00000
 Ionic relaxation
   EDIFFG = 0.1E-03   stopping-criterion for IOM
   NSW    =      0    number of steps for IOM
   NBLOCK =      1;   KBLOCK =      1    inner block; outer block 
   IBRION =     -1    ionic relax: 0-MD 1-quasi-New 2-CG
   NFREE  =      0    steps in history (QN), initial steepest desc. (CG)
   ISIF   =      0    stress and relaxation
   IWAVPR =     10    prediction:  0-non 1-charg 2-wave 3-comb
   ISYM   =      3    0-nonsym 1-usesym 2-fastsym
   LCORR  =      T    Harris-Foulkes like correction to forces

   POTIM  = 0.5000    time-step for ionic-motion
   TEIN   =    0.0    initial temperature
   TEBEG  =    0.0;   TEEND  =   0.0 temperature during run
   SMASS  =  -3.00    Nose mass-parameter (am)
   estimated Nose-frequenzy (Omega)   =  0.10E-29 period in steps = 0.13E+47 mass=  -0.412E-27a.u.
   SCALEE = 1.0000    scale energy and forces
   NPACO  =    256;   APACO  = 10.0  distance and # of slots for P.C.
   PSTRESS=    0.0 pullay stress

  Mass of Ions in am
   POMASS =  63.55 16.00
  Ionic Valenz
   ZVAL   =  11.00  6.00
  Atomic Wigner-Seitz radii
   RWIGS  =  -1.00 -1.00
  virtual crystal weights 
   VCA    =   1.00  1.00
   NELECT =      56.0000    total number of electrons
   NUPDOWN=      -1.0000    fix difference up-down

 DOS related values:
   EMIN   =  10.00;   EMAX   =-10.00  energy-range for DOS
   EFERMI =   0.00;   METHOD = LEGACY      
   ISMEAR =     0;   SIGMA  =   0.01  broadening in eV -4-tet -1-fermi 0-gaus

 Electronic relaxation 2 (details)
   IALGO  =     38    algorithm
   LDIAG  =      T    sub-space diagonalisation (order eigenvalues)
   LSUBROT=      F    optimize rotation matrix (better conditioning)
   TURBO    =      0    0=normal 1=particle mesh
   IRESTART =      0    0=no restart 2=restart with 2 vectors
   NREBOOT  =      0    no. of reboots
   NMIN     =      0    reboot dimension
   EREF     =   0.00    reference energy to select bands
   IMIX   =      1    mixing-type and parameters
     AMIX     =   0.40;   BMIX     =  1.00
     AMIX_MAG =   1.60;   BMIX_MAG =  1.00
     AMIN     =   0.10
     WC   =   100.;   INIMIX=   1;  MIXPRE=   1;  MAXMIX= -45

 Intra band minimization:
   WEIMIN = 0.0000     energy-eigenvalue tresh-hold
   EBREAK =  0.69E-07  absolut break condition
   DEPER  =   0.30     relativ break condition  

   TIME   =   0.40     timestep for ELM

  volume/ion in A,a.u.               =      12.76        86.14
  Fermi-wavevector in a.u.,A,eV,Ry     =   1.474866  2.787093 29.595810  2.175231
  Thomas-Fermi vector in A             =   2.589585
 
 Write flags
   LWAVE        =      T    write WAVECAR
   LDOWNSAMPLE  =      F    k-point downsampling of WAVECAR
   LCHARG       =      T    write CHGCAR
   LVTOT        =      T    write LOCPOT, total local potential
   LVHAR        =      F    write LOCPOT, Hartree potential only
   LELF         =      F    write electronic localiz. function (ELF)
   LORBIT       =     11    0 simple, 1 ext, 2 COOP (PROOUT), +10 PAW based schemes


 Dipole corrections
   LMONO  =      F    monopole corrections only (constant potential shift)
   LDIPOL =      F    correct potential (dipole corrections)
   IDIPOL =      0    1-x, 2-y, 3-z, 4-all directions 
   EPSILON=  1.0000000 bulk dielectric constant

 Exchange correlation treatment:
   GGA     =    PE    GGA type
   LEXCH   =     8    internal setting for exchange type
   LIBXC   =     F    Libxc                    
   VOSKOWN =     0    Vosko Wilk Nusair interpolation
   EXXOEP  =     0    0=HF, 1=EXX-LHF (local Hartree Fock) 2=EXX OEP
   LHFCALC =     T    Hartree Fock is set to
   LSYMGRAD=     F    symmetrize gradient (conserves proper symmetry)
   PRECFOCK=fast      Normal, Fast or Accurate (Low or Medium for compatibility)
   LRHFCALC=     F    long range Hartree Fock
   LRSCOR  =     F    long range correlation only (use DFT for short range part)
   LTHOMAS =     F    Thomas Fermi screening in HF
   LMODELHF=     F    short range full HF, long range fraction AEXX
   FOCKCORR=     1    mode to apply convergence corrections
   LFOCKACE=     T    use Adeptively-Compressed-Exchange operator
   ENCUT4O =  -1.0   cutoff for four orbital integrals eV
   LMAXFOCK=     4    L truncation for augmentation on plane wave grid
   LMAXFOCKAE=  -1    L truncation for all-electron charge restoration on plane wave grid
   NMAXFOCKAE=   1    number of basis functions for all-electron charge restoration
   LFOCKAEDFT=     F  apply the AE augmentation even for DFT
   NKREDX  =     1    reduce k-point grid by
   NKREDY  =     1    reduce k-point grid by
   NKREDZ  =     1    reduce k-point grid by
   SHIFTRED=     F    shift reduced grid of Gamma
   HFKIDENT=     F    idential grid for each k-point
   ODDONLY =     F    use only odd q-grid points
   EVENONLY=     F    use only even q-grid points
   HFALPHA =   -1.0000 decay constant for conv. correction
   MCALPHA =    0.0000 extent of test-charge in conv. correction in multipole expansion
   AEXX    =    0.2500 exact exchange contribution
   HFSCREEN=    0.2000 screening length (either q_TF or 0.3 A-1)
   HFSCREENC=   0.2000 screening length for correlation (either q_TF or 0.3 A-1)
   HFRCUT  =    0.0000 spherical cutoff for potential kernel
   ALDAX   =    0.7500 LDA exchange part
   AGGAX   =    0.7500 GGA exchange part
   ALDAC   =    1.0000 LDA correlation
   AGGAC   =    1.0000 GGA correlation
   ENCUTFOCK=  -1.0 apply spherical cutoff to Coloumb kernel
   NBANDSGWLOW=     1    first orbital included in HF term
   NBLOCK_FOCK=    64    blocking factor in FOCK_ACC

 Linear response parameters
   LEPSILON=     F    determine dielectric tensor
   LRPA    =     F    only Hartree local field effects (RPA)
   LNABLA  =     F    use nabla operator in PAW spheres
   LVEL    =     F    velocity operator in full k-point grid
   CSHIFT  =0.1000    complex shift for real part using Kramers Kronig
   OMEGAMAX=  -1.0    maximum frequency
   DEG_THRESHOLD= 0.2000000E-02 threshold for treating states as degnerate
   RTIME   =   -0.100 relaxation time in fs
  (WPLASMAI=    0.000 imaginary part of plasma frequency in eV, 0.658/RTIME)
   DFIELD  = 0.0000000 0.0000000 0.0000000 field for delta impulse in time
 
  Optional k-point grid parameters
   LKPOINTS_OPT  =     F    use optional k-point grid
   KPOINTS_OPT_MODE=     1    mode for optional k-point grid
 
 Orbital magnetization related:
   ORBITALMAG=     F  switch on orbital magnetization
   LCHIMAG   =     F  perturbation theory with respect to B field
   DQ        =  0.001000  dq finite difference perturbation B field
   LLRAUG    =     F  two centre corrections for induced B field
   LBONE     =     F  B-component reconstruction in AE one-centre
   LVGVCALC  =     T  calculate vGv susceptibility
   LVGVAPPL  =     F  apply vGv susceptibility instead of pGv for G=0

 Random number generation:
   RANDOM_GENERATOR = DEFAULT
   PCG_SEED         = not used


--------------------------------------------------------------------------------------------------------


 Static calculation
 charge density and potential will be updated during run
 spin polarized calculation
 Variant of blocked Davidson
 Davidson routine will perform the subspace rotation
 perform sub-space diagonalisation
    after iterative eigenvector-optimisation
 Kerker-like  mixing scheme
 using additional bands            8
 reciprocal scheme for non local part
 use partial core corrections
 calculate Harris-corrections to forces 
   (improved forces if not selfconsistent)
 use gradient corrections 
 use of overlap-Matrix (Vanderbilt PP)
 Gauss-broadening in eV      SIGMA  =   0.01


--------------------------------------------------------------------------------------------------------


  energy-cutoff  :      680.00
  volume of cell :       76.59
      direct lattice vectors                 reciprocal lattice vectors
     4.246699320  0.000000000  0.000000000     0.235476996  0.000000000  0.000000000
    -0.000000000  4.246699320  0.000000000     0.000000000  0.235476996  0.000000000
     0.000000000  0.000000000  4.246699320    -0.000000000 -0.000000000  0.235476996

  length of vectors
     4.246699320  4.246699320  4.246699320     0.235476996  0.235476996  0.235476996


 
 k-points in units of 2pi/SCALE and weight: k-points for static calculation specifie
   0.00000000  0.00000000  0.00000000       1.000
 
 k-points in reciprocal lattice and weights: k-points for static calculation specifie
   0.00000000  0.00000000  0.00000000       1.000
 
 position of ions in fractional coordinates (direct lattice) 
   0.50000000  0.50000000  0.00000000
   0.00000000  0.50000000  0.50000000
   0.50000000  0.00000000  0.50000000
   0.00000000  0.00000000  0.00000000
   0.75000000  0.75000000  0.75000000
   0.25000000  0.25000000  0.25000000
 
 position of ions in cartesian coordinates  (Angst):
   2.12334966  2.12334966  0.00000000
  -0.00000000  2.12334966  2.12334966
   2.12334966  0.00000000  2.12334966
   0.00000000  0.00000000  0.00000000
   3.18502449  3.18502449  3.18502449
   1.06167483  1.06167483  1.06167483
 


--------------------------------------------------------------------------------------------------------


 k-point   1 :   0.0000 0.0000 0.0000  plane waves:    3071

 maximum and minimum number of plane-waves per node :       311      305

 maximum number of plane-waves:      3071
 maximum index in each direction: 
   IXMAX=    9   IYMAX=    9   IZMAX=    9
   IXMIN=   -9   IYMIN=   -9   IZMIN=   -9


 parallel 3D FFT for wavefunctions:
    minimum data exchange during FFTs selected (reduces bandwidth)
 parallel 3D FFT for charge:
    minimum data exchange during FFTs selected (reduces bandwidth)


 FFT grid for exact exchange (Hartree Fock) 
  NGX = 20; NGY = 20; NGZ = 20

 
 Radii for the augmentation spheres in the non-local exchange
 for species   1 augmentation radius   1.273 (default was   0.943)
       energy cutoff for augmentation   2720.0
 for species   2 augmentation radius   0.974 (default was   0.722)
       energy cutoff for augmentation   2720.0

 real space projection operators:
  total allocation   :        760.67 KBytes
  max/ min on nodes  :         88.11         57.36

 Maximum index for augmentation-charges in exchange          109
  SETUP_FOCK is finished

 total amount of memory used by VASP MPI-rank0    31683. kBytes
=======================================================================

   base      :      30000. kBytes
   nonl-proj :        119. kBytes
   fftplans  :        396. kBytes
   grid      :        843. kBytes
   one-center:         31. kBytes
   HF        :         64. kBytes
   nonlr-proj:        198. kBytes
   wavefun   :         32. kBytes
 
     INWAV:  cpu time      0.0001: real time      0.0007
 initial charge density was supplied:
 charge density of overlapping atoms calculated
 number of electron      56.0000000 magnetization       3.6000000
 keeping initial charge density in first step


--------------------------------------------------------------------------------------------------------


 Maximum index for augmentation-charges          793 (set IRDMAX)


--------------------------------------------------------------------------------------------------------


 First call to EWALD:  gamma=   0.417
 Maximum number of real-space cells 3x 3x 3
 Maximum number of reciprocal cells 3x 3x 3

    FEWALD:  cpu time      0.0025: real time      0.0026


--------------------------------------- Ionic step        1  -------------------------------------------




--------------------------------------- Iteration      1(   1)  ---------------------------------------


    POTLOK:  cpu time      0.0222: real time      0.0246
    SETDIJ:  cpu time      0.3922: real time      0.3936
     EDDAV:  cpu time      0.2223: real time      0.5705
       DOS:  cpu time      0.0039: real time      0.0044
    --------------------------------------------
      LOOP:  cpu time      0.6406: real time      0.9931

 eigenvalue-minimisations  :   144
 total energy-change (2. order) :-0.1182336E+04  (-0.3159472E+04)
 number of electron      56.0000000 magnetization       3.6000000
 augmentation part       56.0000000 magnetization       3.6000000

 Free energy of the ion-electron system (eV)
  ---------------------------------------------------
  alpha Z        PSCENC =       228.31989324
  Ewald energy   TEWEN  =     -4565.41384850
  -Hartree energ DENC   =     -2003.93564795
  -exchange      EXHF   =         0.00000000
  -V(xc)+E(xc)   XCENC  =       237.38328748
  PAW double counting   =      5605.66536144    -7551.83646433
  entropy T*S    EENTRO =        -0.00000000
  eigenvalues    EBANDS =       454.48166073
  atomic energy  EATOM  =      6412.99966844
  Solvation  Ediel_sol  =         0.00000000
  ---------------------------------------------------
  free energy    TOTEN  =     -1182.33608946 eV

  energy without entropy =    -1182.33608946  energy(sigma->0) =    -1182.33608946
  exchange ACFDT corr.  =         0.00000000  see jH, gK, PRB 81, 115126


--------------------------------------------------------------------------------------------------------




--------------------------------------- Iteration      1(   2)  ---------------------------------------


     EDDAV:  cpu time      0.0398: real time      0.0404
       DOS:  cpu time      0.0002: real time      0.0002
    --------------------------------------------
      LOOP:  cpu time      0.0400: real time      0.0406

 eigenvalue-minimisations  :   144
 total energy-change (2. order) :-0.4626177E+03  (-0.4467374E+03)
 number of electron      56.0000000 magnetization       3.6000000
 augmentation part       56.0000000 magnetization       3.6000000

 Free energy of the ion-electron system (eV)
  ---------------------------------------------------
  alpha Z        PSCENC =       228.31989324
  Ewald energy   TEWEN  =     -4565.41384850
  -Hartree energ DENC   =     -2003.93564795
  -exchange      EXHF   =         0.00000000
  -V(xc)+E(xc)   XCENC  =       237.38328748
  PAW double counting   =      5605.66536144    -7551.83646433
  entropy T*S    EENTRO =        -0.00014136
  eigenvalues    EBANDS =        -8.13588694
  atomic energy  EATOM  =      6412.99966844
  Solvation  Ediel_sol  =         0.00000000
  ---------------------------------------------------
  free energy    TOTEN  =     -1644.95377848 eV

  energy without entropy =    -1644.95363712  energy(sigma->0) =    -1644.95370780
  exchange ACFDT corr.  =         0.00000000  see jH, gK, PRB 81, 115126


--------------------------------------------------------------------------------------------------------




--------------------------------------- Iteration      1(   3)  ---------------------------------------


     EDDAV:  cpu time      0.0355: real time      0.0504
       DOS:  cpu time      0.0001: real time      0.0001
    --------------------------------------------
      LOOP:  cpu time      0.0356: real time      0.0506

 eigenvalue-minimisations  :   240
 total energy-change (2. order) :-0.7273402E+02  (-0.7192106E+02)
 number of electron      56.0000000 magnetization       3.6000000
 augmentation part       56.0000000 magnetization       3.6000000

 Free energy of the ion-electron system (eV)
  ---------------------------------------------------
  alpha Z        PSCENC =       228.31989324
  Ewald energy   TEWEN  =     -4565.41384850
  -Hartree energ DENC   =     -2003.93564795
  -exchange      EXHF   =         0.00000000
  -V(xc)+E(xc)   XCENC  =       237.38328748
  PAW double counting   =      5605.66536144    -7551.83646433
  entropy T*S    EENTRO =        -0.00000000
  eigenvalues    EBANDS =       -80.87005224
  atomic energy  EATOM  =      6412.99966844
  Solvation  Ediel_sol  =         0.00000000
  ---------------------------------------------------
  free energy    TOTEN  =     -1717.68780243 eV

  energy without entropy =    -1717.68780243  energy(sigma->0) =    -1717.68780243
  exchange ACFDT corr.  =         0.00000000  see jH, gK, PRB 81, 115126


--------------------------------------------------------------------------------------------------------




--------------------------------------- Iteration      1(   4)  ---------------------------------------


     EDDAV:  cpu time      0.0230: real time      0.0371
       DOS:  cpu time      0.0001: real time      0.0001
    --------------------------------------------
      LOOP:  cpu time      0.0231: real time      0.0373

 eigenvalue-minimisations  :   156
 total energy-change (2. order) :-0.1643554E+01  (-0.1642895E+01)
 number of electron      56.0000000 magnetization       3.6000000
 augmentation part       56.0000000 magnetization       3.6000000

 Free energy of the ion-electron system (eV)
  ---------------------------------------------------
  alpha Z        PSCENC =       228.31989324
  Ewald energy   TEWEN  =     -4565.41384850
  -Hartree energ DENC   =     -2003.93564795
  -exchange      EXHF   =         0.00000000
  -V(xc)+E(xc)   XCENC  =       237.38328748
  PAW double counting   =      5605.66536144    -7551.83646433
  entropy T*S    EENTRO =        -0.00000000
  eigenvalues    EBANDS =       -82.51360596
  atomic energy  EATOM  =      6412.99966844
  Solvation  Ediel_sol  =         0.00000000
  ---------------------------------------------------
  free energy    TOTEN  =     -1719.33135614 eV

  energy without entropy =    -1719.33135614  energy(sigma->0) =    -1719.33135614
  exchange ACFDT corr.  =         0.00000000  see jH, gK, PRB 81, 115126


--------------------------------------------------------------------------------------------------------




--------------------------------------- Iteration      1(   5)  ---------------------------------------


    POTLOK:  cpu time      0.0192: real time      0.0332
    SETDIJ:  cpu time      0.9055: real time      0.9078
     EDDAV:  cpu time      0.2026: real time      0.2871
       DOS:  cpu time      0.0001: real time      0.0001
    CHARGE:  cpu time      0.0065: real time      0.0219
    MIXING:  cpu time      0.0006: real time      0.0007
    --------------------------------------------
      LOOP:  cpu time      1.1346: real time      1.2508

 eigenvalue-minimisations  :   180
 total energy-change (2. order) : 0.1684341E+04  (-0.2337482E+01)
 number of electron      55.9999998 magnetization      -2.1600000
 augmentation part       30.1741081 magnetization      -2.0096806

 Free energy of the ion-electron system (eV)
  ---------------------------------------------------
  alpha Z        PSCENC =       228.31989324
  Ewald energy   TEWEN  =     -4565.41384850
  -Hartree energ DENC   =     -2003.93564795
  -exchange      EXHF   =       166.72263440
  -V(xc)+E(xc)   XCENC  =       179.97748468
  PAW double counting   =      5660.95539094    -6048.10084749
  entropy T*S    EENTRO =        -0.00000000
  eigenvalues    EBANDS =       -66.51555529
  atomic energy  EATOM  =      6412.99966844
  Solvation  Ediel_sol  =         0.00000000
  ---------------------------------------------------
  free energy    TOTEN  =       -34.99082754 eV

  energy without entropy =      -34.99082754  energy(sigma->0) =      -34.99082754
  exchange ACFDT corr.  =         0.00000000  see jH, gK, PRB 81, 115126


--------------------------------------------------------------------------------------------------------




--------------------------------------- Iteration      1(   6)  ---------------------------------------


    POTLOK:  cpu time      0.0184: real time      0.0339
    SETDIJ:  cpu time      0.9106: real time      0.9129
     EDDAV:  cpu time      0.0528: real time      0.0529
       DOS:  cpu time      0.0001: real time      0.0001
    CHARGE:  cpu time      0.0026: real time      0.0026
    MIXING:  cpu time      0.0001: real time      0.0001
    --------------------------------------------
      LOOP:  cpu time      0.9846: real time      1.0026

 eigenvalue-minimisations  :   180
 total energy-change (2. order) : 0.5968316E+01  (-0.2116188E+01)
 number of electron      55.9999996 magnetization       1.2960000
 augmentation part       29.8691133 magnetization       1.3475768

 Free energy of the ion-electron system (eV)
  ---------------------------------------------------
  alpha Z        PSCENC =       228.31989324
  Ewald energy   TEWEN  =     -4565.41384850
  -Hartree energ DENC   =     -2026.26589407
  -exchange      EXHF   =       162.29975224
  -V(xc)+E(xc)   XCENC  =       181.23640803
  PAW double counting   =      5968.77621587    -6358.04599424
  entropy T*S    EENTRO =        -0.00000000
  eigenvalues    EBANDS =       -32.92871221
  atomic energy  EATOM  =      6412.99966844
  Solvation  Ediel_sol  =         0.00000000
  ---------------------------------------------------
  free energy    TOTEN  =       -29.02251121 eV

  energy without entropy =      -29.02251121  energy(sigma->0) =      -29.02251121
  exchange ACFDT corr.  =         0.00000000  see jH, gK, PRB 81, 115126


--------------------------------------------------------------------------------------------------------




--------------------------------------- Iteration      1(   7)  ---------------------------------------


    POTLOK:  cpu time      0.0172: real time      0.0332
    SETDIJ:  cpu time      0.9064: real time      0.9087
     EDDAV:  cpu time      0.0569: real time      0.0570
       DOS:  cpu time      0.0001: real time      0.0001
    CHARGE:  cpu time      0.0025: real time      0.0025
    MIXING:  cpu time      0.0001: real time      0.0001
    --------------------------------------------
      LOOP:  cpu time      0.9833: real time      1.0017

 eigenvalue-minimisations  :   216
 total energy-change (2. order) :-0.1057979E+01  (-0.3887013E+00)
 number of electron      55.9999993 magnetization      -0.7776000
 augmentation part       29.7746871 magnetization      -0.7732061

 Free energy of the ion-electron system (eV)
  ---------------------------------------------------
  alpha Z        PSCENC =       228.31989324
  Ewald energy   TEWEN  =     -4565.41384850
  -Hartree energ DENC   =     -2021.28402275
  -exchange      EXHF   =       158.33794803
  -V(xc)+E(xc)   XCENC  =       181.00249200
  PAW double counting   =      6213.73021568    -6608.03475576
  entropy T*S    EENTRO =        -0.00000000
  eigenvalues    EBANDS =       -29.73808055
  atomic energy  EATOM  =      6412.99966844
  Solvation  Ediel_sol  =         0.00000000
  ---------------------------------------------------
  free energy    TOTEN  =       -30.08049018 eV

  energy without entropy =      -30.08049018  energy(sigma->0) =      -30.08049018
  exchange ACFDT corr.  =         0.00000000  see jH, gK, PRB 81, 115126


--------------------------------------------------------------------------------------------------------




--------------------------------------- Iteration      1(   8)  ---------------------------------------


    POTLOK:  cpu time      0.0171: real time      0.0360
    SETDIJ:  cpu time      0.9083: real time      0.9104
     EDDAV:  cpu time      0.0589: real time      0.0591
       DOS:  cpu time      0.0002: real time      0.0002
    CHARGE:  cpu time      0.0025: real time      0.0025
    MIXING:  cpu time      0.0001: real time      0.0001
    --------------------------------------------
      LOOP:  cpu time      0.9871: real time      1.0083

 eigenvalue-minimisations  :   228
 total energy-change (2. order) : 0.1461887E+00  (-0.4202328E-01)
 number of electron      55.9999992 magnetization       0.4665600
 augmentation part       29.7511361 magnetization       0.4796579

 Free energy of the ion-electron system (eV)
  ---------------------------------------------------
  alpha Z        PSCENC =       228.31989324
  Ewald energy   TEWEN  =     -4565.41384850
  -Hartree energ DENC   =     -2012.15852073
  -exchange      EXHF   =       157.17339810
  -V(xc)+E(xc)   XCENC  =       180.52692051
  PAW double counting   =      6362.17299279    -6761.16130265
  entropy T*S    EENTRO =        -0.00000000
  eigenvalues    EBANDS =       -32.39350270
  atomic energy  EATOM  =      6412.99966844
  Solvation  Ediel_sol  =         0.00000000
  ---------------------------------------------------
  free energy    TOTEN  =       -29.93430152 eV

  energy without entropy =      -29.93430152  energy(sigma->0) =      -29.93430152
  exchange ACFDT corr.  =         0.00000000  see jH, gK, PRB 81, 115126


--------------------------------------------------------------------------------------------------------




--------------------------------------- Iteration      1(   9)  ---------------------------------------


    POTLOK:  cpu time      0.0195: real time      0.0359
    SETDIJ:  cpu time      0.9009: real time      0.9032
     EDDAV:  cpu time      0.0528: real time      0.0529
       DOS:  cpu time      0.0002: real time      0.0002
    CHARGE:  cpu time      0.0028: real time      0.0028
    MIXING:  cpu time      0.0001: real time      0.0001
    --------------------------------------------
      LOOP:  cpu time      0.9763: real time      0.9951

 eigenvalue-minimisations  :   180
 total energy-change (2. order) :-0.9645681E-03  (-0.2009671E-01)
 number of electron      55.9999992 magnetization      -0.2799360
 augmentation part       29.7899253 magnetization      -0.2842972

 Free energy of the ion-electron system (eV)
  ---------------------------------------------------
  alpha Z        PSCENC =       228.31989324
  Ewald energy   TEWEN  =     -4565.41384850
  -Hartree energ DENC   =     -2006.92045610
  -exchange      EXHF   =       157.41108988
  -V(xc)+E(xc)   XCENC  =       180.28292232
  PAW double counting   =      6445.93275558    -6846.76285220
  entropy T*S    EENTRO =        -0.00000000
  eigenvalues    EBANDS =       -35.78443874
  atomic energy  EATOM  =      6412.99966844
  Solvation  Ediel_sol  =         0.00000000
  ---------------------------------------------------
  free energy    TOTEN  =       -29.93526608 eV

  energy without entropy =      -29.93526608  energy(sigma->0) =      -29.93526608
  exchange ACFDT corr.  =         0.00000000  see jH, gK, PRB 81, 115126


--------------------------------------------------------------------------------------------------------




--------------------------------------- Iteration      1(  10)  ---------------------------------------


    POTLOK:  cpu time      0.0180: real time      0.0339
    SETDIJ:  cpu time      0.9084: real time      0.9107
     EDDAV:  cpu time      0.0564: real time      0.0566
       DOS:  cpu time      0.0001: real time      0.0001
    CHARGE:  cpu time      0.0025: real time      0.0026
    MIXING:  cpu time      0.0001: real time      0.0001
    --------------------------------------------
      LOOP:  cpu time      0.9856: real time      1.0040

 eigenvalue-minimisations  :   204
 total energy-change (2. order) :-0.2082514E-02  (-0.1854622E-02)
 number of electron      55.9999991 magnetization       0.1679616
 augmentation part       29.8094018 magnetization       0.1722268

 Free energy of the ion-electron system (eV)
  ---------------------------------------------------
  alpha Z        PSCENC =       228.31989324
  Ewald energy   TEWEN  =     -4565.41384850
  -Hartree energ DENC   =     -2006.11953504
  -exchange      EXHF   =       157.75375375
  -V(xc)+E(xc)   XCENC  =       180.25063042
  PAW double counting   =      6490.97593423    -6892.92104543
  entropy T*S    EENTRO =        -0.00000000
  eigenvalues    EBANDS =       -35.78279971
  atomic energy  EATOM  =      6412.99966844
  Solvation  Ediel_sol  =         0.00000000
  ---------------------------------------------------
  free energy    TOTEN  =       -29.93734860 eV

  energy without entropy =      -29.93734860  energy(sigma->0) =      -29.93734860
  exchange ACFDT corr.  =         0.00000000  see jH, gK, PRB 81, 115126


--------------------------------------------------------------------------------------------------------




--------------------------------------- Iteration      1(  11)  ---------------------------------------


    POTLOK:  cpu time      0.0174: real time      0.0332
    SETDIJ:  cpu time      0.9057: real time      0.9080
     EDDAV:  cpu time      0.0542: real time      0.0544
       DOS:  cpu time      0.0001: real time      0.0001
    CHARGE:  cpu time      0.0023: real time      0.0023
    MIXING:  cpu time      0.0001: real time      0.0001
    --------------------------------------------
      LOOP:  cpu time      0.9799: real time      0.9982

 eigenvalue-minimisations  :   180
 total energy-change (2. order) : 0.4004038E-03  (-0.7355646E-03)
 number of electron      55.9999991 magnetization      -0.1007770
 augmentation part       29.8021020 magnetization      -0.1031254

 Free energy of the ion-electron system (eV)
  ---------------------------------------------------
  alpha Z        PSCENC =       228.31989324
  Ewald energy   TEWEN  =     -4565.41384850
  -Hartree energ DENC   =     -2006.44224831
  -exchange      EXHF   =       157.80705855
  -V(xc)+E(xc)   XCENC  =       180.26141117
  PAW double counting   =      6519.13219599    -6922.01836186
  entropy T*S    EENTRO =        -0.00000000
  eigenvalues    EBANDS =       -34.58271690
  atomic energy  EATOM  =      6412.99966844
  Solvation  Ediel_sol  =         0.00000000
  ---------------------------------------------------
  free energy    TOTEN  =       -29.93694819 eV

  energy without entropy =      -29.93694819  energy(sigma->0) =      -29.93694819
  exchange ACFDT corr.  =         0.00000000  see jH, gK, PRB 81, 115126


--------------------------------------------------------------------------------------------------------




--------------------------------------- Iteration      1(  12)  ---------------------------------------


    POTLOK:  cpu time      0.0190: real time      0.0356
    SETDIJ:  cpu time      0.9002: real time      0.9024
     EDDAV:  cpu time      0.0582: real time      0.0584
       DOS:  cpu time      0.0001: real time      0.0001
    CHARGE:  cpu time      0.0026: real time      0.0026
    MIXING:  cpu time      0.0002: real time      0.0002
    --------------------------------------------
      LOOP:  cpu time      0.9803: real time      0.9992

 eigenvalue-minimisations  :   216
 total energy-change (2. order) :-0.5602968E-03  (-0.2238032E-03)
 number of electron      55.9999991 magnetization       0.0604662
 augmentation part       29.7957691 magnetization       0.0619489

 Free energy of the ion-electron system (eV)
  ---------------------------------------------------
  alpha Z        PSCENC =       228.31989324
  Ewald energy   TEWEN  =     -4565.41384850
  -Hartree energ DENC   =     -2006.31610589
  -exchange      EXHF   =       157.74966748
  -V(xc)+E(xc)   XCENC  =       180.25200455
  PAW double counting   =      6536.58590603    -6940.03901858
  entropy T*S    EENTRO =        -0.00000000
  eigenvalues    EBANDS =       -34.07567525
  atomic energy  EATOM  =      6412.99966844
  Solvation  Ediel_sol  =         0.00000000
  ---------------------------------------------------
  free energy    TOTEN  =       -29.93750849 eV

  energy without entropy =      -29.93750849  energy(sigma->0) =      -29.93750849
  exchange ACFDT corr.  =         0.00000000  see jH, gK, PRB 81, 115126


--------------------------------------------------------------------------------------------------------




--------------------------------------- Iteration      1(  13)  ---------------------------------------


    POTLOK:  cpu time      0.0189: real time      0.0360
    SETDIJ:  cpu time      0.9016: real time      0.9038
     EDDAV:  cpu time      0.0583: real time      0.0584
       DOS:  cpu time      0.0001: real time      0.0001
    CHARGE:  cpu time      0.0024: real time      0.0024
    MIXING:  cpu time      0.0001: real time      0.0001
    --------------------------------------------
      LOOP:  cpu time      0.9814: real time      1.0008

 eigenvalue-minimisations  :   216
 total energy-change (2. order) :-0.2017769E-03  (-0.5702591E-04)
 number of electron      55.9999991 magnetization      -0.0362797
 augmentation part       29.7952501 magnetization      -0.0370081

 Free energy of the ion-electron system (eV)
  ---------------------------------------------------
  alpha Z        PSCENC =       228.31989324
  Ewald energy   TEWEN  =     -4565.41384850
  -Hartree energ DENC   =     -2005.99403355
  -exchange      EXHF   =       157.72098109
  -V(xc)+E(xc)   XCENC  =       180.23600380
  PAW double counting   =      6547.25040170    -6950.99259928
  entropy T*S    EENTRO =        -0.00000000
  eigenvalues    EBANDS =       -34.06417720
  atomic energy  EATOM  =      6412.99966844
  Solvation  Ediel_sol  =         0.00000000
  ---------------------------------------------------
  free energy    TOTEN  =       -29.93771027 eV

  energy without entropy =      -29.93771027  energy(sigma->0) =      -29.93771027
  exchange ACFDT corr.  =         0.00000000  see jH, gK, PRB 81, 115126


--------------------------------------------------------------------------------------------------------




--------------------------------------- Iteration      1(  14)  ---------------------------------------


    POTLOK:  cpu time      0.0177: real time      0.0793
    SETDIJ:  cpu time      0.9020: real time      0.9043
     EDDAV:  cpu time      0.0582: real time      0.0666
       DOS:  cpu time      0.0002: real time      0.0002
    CHARGE:  cpu time      0.0025: real time      0.0025
    MIXING:  cpu time      0.0001: real time      0.0001
    --------------------------------------------
      LOOP:  cpu time      0.9807: real time      1.0530

 eigenvalue-minimisations  :   228
 total energy-change (2. order) :-0.9919441E-04  (-0.2133840E-04)
 number of electron      55.9999991 magnetization       0.0217678
 augmentation part       29.7961845 magnetization       0.0222653

 Free energy of the ion-electron system (eV)
  ---------------------------------------------------
  alpha Z        PSCENC =       228.31989324
  Ewald energy   TEWEN  =     -4565.41384850
  -Hartree energ DENC   =     -2005.80830052
  -exchange      EXHF   =       157.72295534
  -V(xc)+E(xc)   XCENC  =       180.22681688
  PAW double counting   =      6553.45602084    -6957.36451323
  entropy T*S    EENTRO =        -0.00000000
  eigenvalues    EBANDS =       -34.07650194
  atomic energy  EATOM  =      6412.99966844
  Solvation  Ediel_sol  =         0.00000000
  ---------------------------------------------------
  free energy    TOTEN  =       -29.93780946 eV

  energy without entropy =      -29.93780946  energy(sigma->0) =      -29.93780946
  exchange ACFDT corr.  =         0.00000000  see jH, gK, PRB 81, 115126


--------------------------------------------------------------------------------------------------------




--------------------------------------- Iteration      1(  15)  ---------------------------------------


    POTLOK:  cpu time      0.0179: real time      0.0335
    SETDIJ:  cpu time      0.9039: real time      0.9062
     EDDAV:  cpu time      0.0578: real time      0.0579
       DOS:  cpu time      0.0002: real time      0.0003
    CHARGE:  cpu time      0.0026: real time      0.0026
    MIXING:  cpu time      0.0001: real time      0.0001
    --------------------------------------------
      LOOP:  cpu time      0.9824: real time      1.0006

 eigenvalue-minimisations  :   192
 total energy-change (2. order) :-0.5082118E-04  (-0.7910748E-05)
 number of electron      55.9999991 magnetization      -0.0130607
 augmentation part       29.7963827 magnetization      -0.0133359

 Free energy of the ion-electron system (eV)
  ---------------------------------------------------
  alpha Z        PSCENC =       228.31989324
  Ewald energy   TEWEN  =     -4565.41384850
  -Hartree energ DENC   =     -2005.75222446
  -exchange      EXHF   =       157.72865194
  -V(xc)+E(xc)   XCENC  =       180.22351038
  PAW double counting   =      6557.12928040    -6961.14556437
  entropy T*S    EENTRO =        -0.00000000
  eigenvalues    EBANDS =       -34.02722735
  atomic energy  EATOM  =      6412.99966844
  Solvation  Ediel_sol  =         0.00000000
  ---------------------------------------------------
  free energy    TOTEN  =       -29.93786028 eV

  energy without entropy =      -29.93786028  energy(sigma->0) =      -29.93786028
  exchange ACFDT corr.  =         0.00000000  see jH, gK, PRB 81, 115126


--------------------------------------------------------------------------------------------------------




--------------------------------------- Iteration      1(  16)  ---------------------------------------


    POTLOK:  cpu time      0.0222: real time      0.0334
    SETDIJ:  cpu time      0.9035: real time      0.9058
     EDDAV:  cpu time      0.0516: real time      0.0517
       DOS:  cpu time      0.0001: real time      0.0001
    CHARGE:  cpu time      0.0024: real time      0.0024
    MIXING:  cpu time      0.0001: real time      0.0001
    --------------------------------------------
      LOOP:  cpu time      0.9800: real time      0.9935

 eigenvalue-minimisations  :   156
 total energy-change (2. order) :-0.2699512E-04  (-0.4871914E-05)
 number of electron      55.9999991 magnetization       0.0078364
 augmentation part       29.7961643 magnetization       0.0079848

 Free energy of the ion-electron system (eV)
  ---------------------------------------------------
  alpha Z        PSCENC =       228.31989324
  Ewald energy   TEWEN  =     -4565.41384850
  -Hartree energ DENC   =     -2005.73556530
  -exchange      EXHF   =       157.72963547
  -V(xc)+E(xc)   XCENC  =       180.22208246
  PAW double counting   =      6559.35714426    -6963.44125503
  entropy T*S    EENTRO =        -0.00000000
  eigenvalues    EBANDS =       -33.97564231
  atomic energy  EATOM  =      6412.99966844
  Solvation  Ediel_sol  =         0.00000000
  ---------------------------------------------------
  free energy    TOTEN  =       -29.93788728 eV

  energy without entropy =      -29.93788728  energy(sigma->0) =      -29.93788728
  exchange ACFDT corr.  =         0.00000000  see jH, gK, PRB 81, 115126


--------------------------------------------------------------------------------------------------------




--------------------------------------- Iteration      1(  17)  ---------------------------------------


    POTLOK:  cpu time      0.0176: real time      0.0335
    SETDIJ:  cpu time      0.9041: real time      0.9062
     EDDAV:  cpu time      0.0500: real time      0.0501
       DOS:  cpu time      0.0001: real time      0.0001
    CHARGE:  cpu time      0.0023: real time      0.0023
    MIXING:  cpu time      0.0001: real time      0.0001
    --------------------------------------------
      LOOP:  cpu time      0.9742: real time      0.9924

 eigenvalue-minimisations  :   144
 total energy-change (2. order) :-0.1844464E-04  (-0.4999785E-05)
 number of electron      55.9999991 magnetization      -0.0047018
 augmentation part       29.7960189 magnetization      -0.0048241

 Free energy of the ion-electron system (eV)
  ---------------------------------------------------
  alpha Z        PSCENC =       228.31989324
  Ewald energy   TEWEN  =     -4565.41384850
  -Hartree energ DENC   =     -2005.72213563
  -exchange      EXHF   =       157.72876737
  -V(xc)+E(xc)   XCENC  =       180.22099847
  PAW double counting   =      6560.70016732    -6964.82383068
  entropy T*S    EENTRO =        -0.00000000
  eigenvalues    EBANDS =       -33.94758575
  atomic energy  EATOM  =      6412.99966844
  Solvation  Ediel_sol  =         0.00000000
  ---------------------------------------------------
  free energy    TOTEN  =       -29.93790572 eV

  energy without entropy =      -29.93790572  energy(sigma->0) =      -29.93790572
  exchange ACFDT corr.  =         0.00000000  see jH, gK, PRB 81, 115126


--------------------------------------------------------------------------------------------------------




--------------------------------------- Iteration      1(  18)  ---------------------------------------


    POTLOK:  cpu time      0.0172: real time      0.0330
    SETDIJ:  cpu time      0.9158: real time      0.9181
     EDDAV:  cpu time      0.0546: real time      0.0547
       DOS:  cpu time      0.0001: real time      0.0001
    CHARGE:  cpu time      0.0026: real time      0.0026
    MIXING:  cpu time      0.0001: real time      0.0001
    --------------------------------------------
      LOOP:  cpu time      0.9904: real time      1.0087

 eigenvalue-minimisations  :   108
 total energy-change (2. order) :-0.1704718E-04  (-0.6850560E-05)
 number of electron      55.9999991 magnetization       0.0028211
 augmentation part       29.7959894 magnetization       0.0028673

 Free energy of the ion-electron system (eV)
  ---------------------------------------------------
  alpha Z        PSCENC =       228.31989324
  Ewald energy   TEWEN  =     -4565.41384850
  -Hartree energ DENC   =     -2005.71026614
  -exchange      EXHF   =       157.72814165
  -V(xc)+E(xc)   XCENC  =       180.22015483
  PAW double counting   =      6561.51014999    -6965.65653703
  entropy T*S    EENTRO =        -0.00000000
  eigenvalues    EBANDS =       -33.93527924
  atomic energy  EATOM  =      6412.99966844
  Solvation  Ediel_sol  =         0.00000000
  ---------------------------------------------------
  free energy    TOTEN  =       -29.93792277 eV

  energy without entropy =      -29.93792277  energy(sigma->0) =      -29.93792277
  exchange ACFDT corr.  =         0.00000000  see jH, gK, PRB 81, 115126


--------------------------------------------------------------------------------------------------------




--------------------------------------- Iteration      1(  19)  ---------------------------------------


    POTLOK:  cpu time      0.0222: real time      0.0383
    SETDIJ:  cpu time      0.9436: real time      0.9460
     EDDAV:  cpu time      0.0534: real time      0.0535
       DOS:  cpu time      0.0002: real time      0.0002
    CHARGE:  cpu time      0.0028: real time      0.0028
    MIXING:  cpu time      0.0002: real time      0.0002
    --------------------------------------------
      LOOP:  cpu time      1.0224: real time      1.0409

 eigenvalue-minimisations  :   108
 total energy-change (2. order) :-0.2055445E-04  (-0.1001855E-04)
 number of electron      55.9999991 magnetization      -0.0016927
 augmentation part       29.7959714 magnetization      -0.0017495

 Free energy of the ion-electron system (eV)
  ---------------------------------------------------
  alpha Z        PSCENC =       228.31989324
  Ewald energy   TEWEN  =     -4565.41384850
  -Hartree energ DENC   =     -2005.70368956
  -exchange      EXHF   =       157.72810265
  -V(xc)+E(xc)   XCENC  =       180.21964946
  PAW double counting   =      6561.99827196    -6966.15813923
  entropy T*S    EENTRO =        -0.00000000
  eigenvalues    EBANDS =       -33.92785179
  atomic energy  EATOM  =      6412.99966844
  Solvation  Ediel_sol  =         0.00000000
  ---------------------------------------------------
  free energy    TOTEN  =       -29.93794332 eV

  energy without entropy =      -29.93794332  energy(sigma->0) =      -29.93794332
  exchange ACFDT corr.  =         0.00000000  see jH, gK, PRB 81, 115126


--------------------------------------------------------------------------------------------------------




--------------------------------------- Iteration      1(  20)  ---------------------------------------


    POTLOK:  cpu time      0.0217: real time      0.0344
    SETDIJ:  cpu time      0.9332: real time      0.9356
     EDDAV:  cpu time      0.0572: real time      0.0573
       DOS:  cpu time      0.0001: real time      0.0001
    CHARGE:  cpu time      0.0028: real time      0.0028
    MIXING:  cpu time      0.0002: real time      0.0002
    --------------------------------------------
      LOOP:  cpu time      1.0152: real time      1.0303

 eigenvalue-minimisations  :   144
 total energy-change (2. order) :-0.2857854E-04  (-0.1506094E-04)
 number of electron      55.9999991 magnetization       0.0010156
 augmentation part       29.7959431 magnetization       0.0010199

 Free energy of the ion-electron system (eV)
  ---------------------------------------------------
  alpha Z        PSCENC =       228.31989324
  Ewald energy   TEWEN  =     -4565.41384850
  -Hartree energ DENC   =     -2005.70011363
  -exchange      EXHF   =       157.72811559
  -V(xc)+E(xc)   XCENC  =       180.21935706
  PAW double counting   =      6562.28927040    -6966.45688231
  entropy T*S    EENTRO =        -0.00000000
  eigenvalues    EBANDS =       -33.92343218
  atomic energy  EATOM  =      6412.99966844
  Solvation  Ediel_sol  =         0.00000000
  ---------------------------------------------------
  free energy    TOTEN  =       -29.93797190 eV

  energy without entropy =      -29.93797190  energy(sigma->0) =      -29.93797190
  exchange ACFDT corr.  =         0.00000000  see jH, gK, PRB 81, 115126


--------------------------------------------------------------------------------------------------------




--------------------------------------- Iteration      1(  21)  ---------------------------------------


    POTLOK:  cpu time      0.0203: real time      0.0363
    SETDIJ:  cpu time      0.9314: real time      0.9338
     EDDAV:  cpu time      0.0501: real time      0.0502
       DOS:  cpu time      0.0001: real time      0.0001
    CHARGE:  cpu time      0.0023: real time      0.0023
    MIXING:  cpu time      0.0001: real time      0.0001
    --------------------------------------------
      LOOP:  cpu time      1.0043: real time      1.0228

 eigenvalue-minimisations  :   144
 total energy-change (2. order) :-0.4193553E-04  (-0.2264169E-04)
 number of electron      55.9999991 magnetization      -0.0006094
 augmentation part       29.7959358 magnetization      -0.0006281

 Free energy of the ion-electron system (eV)
  ---------------------------------------------------
  alpha Z        PSCENC =       228.31989324
  Ewald energy   TEWEN  =     -4565.41384850
  -Hartree energ DENC   =     -2005.69780130
  -exchange      EXHF   =       157.72809964
  -V(xc)+E(xc)   XCENC  =       180.21917544
  PAW double counting   =      6562.46415173    -6966.63620618
  entropy T*S    EENTRO =        -0.00000000
  eigenvalues    EBANDS =       -33.92114635
  atomic energy  EATOM  =      6412.99966844
  Solvation  Ediel_sol  =         0.00000000
  ---------------------------------------------------
  free energy    TOTEN  =       -29.93801384 eV

  energy without entropy =      -29.93801384  energy(sigma->0) =      -29.93801384
  exchange ACFDT corr.  =         0.00000000  see jH, gK, PRB 81, 115126


--------------------------------------------------------------------------------------------------------




--------------------------------------- Iteration      1(  22)  ---------------------------------------


    POTLOK:  cpu time      0.0169: real time      0.0339
    SETDIJ:  cpu time      0.9045: real time      0.9067
     EDDAV:  cpu time      0.0500: real time      0.0501
       DOS:  cpu time      0.0001: real time      0.0001
    CHARGE:  cpu time      0.0023: real time      0.0023
    MIXING:  cpu time      0.0001: real time      0.0001
    --------------------------------------------
      LOOP:  cpu time      0.9739: real time      0.9934

 eigenvalue-minimisations  :   144
 total energy-change (2. order) :-0.6272834E-04  (-0.3417640E-04)
 number of electron      55.9999991 magnetization       0.0003656
 augmentation part       29.7959132 magnetization       0.0003710

 Free energy of the ion-electron system (eV)
  ---------------------------------------------------
  alpha Z        PSCENC =       228.31989324
  Ewald energy   TEWEN  =     -4565.41384850
  -Hartree energ DENC   =     -2005.69679047
  -exchange      EXHF   =       157.72816533
  -V(xc)+E(xc)   XCENC  =       180.21908860
  PAW double counting   =      6562.56779999    -6966.74254982
  entropy T*S    EENTRO =        -0.00000000
  eigenvalues    EBANDS =       -33.91950336
  atomic energy  EATOM  =      6412.99966844
  Solvation  Ediel_sol  =         0.00000000
  ---------------------------------------------------
  free energy    TOTEN  =       -29.93807657 eV

  energy without entropy =      -29.93807657  energy(sigma->0) =      -29.93807657
  exchange ACFDT corr.  =         0.00000000  see jH, gK, PRB 81, 115126


--------------------------------------------------------------------------------------------------------




--------------------------------------- Iteration      1(  23)  ---------------------------------------


    POTLOK:  cpu time      0.0169: real time      0.0329
    SETDIJ:  cpu time      0.9154: real time      0.9177
     EDDAV:  cpu time      0.0550: real time      0.0551
       DOS:  cpu time      0.0001: real time      0.0001
    CHARGE:  cpu time      0.0025: real time      0.0025
    MIXING:  cpu time      0.0001: real time      0.0001
    --------------------------------------------
      LOOP:  cpu time      0.9899: real time      1.0084

 eigenvalue-minimisations  :   192
 total energy-change (2. order) :-0.9603676E-04  (-0.5323604E-04)
 number of electron      55.9999991 magnetization      -0.0002194
 augmentation part       29.7959179 magnetization      -0.0002182

 Free energy of the ion-electron system (eV)
  ---------------------------------------------------
  alpha Z        PSCENC =       228.31989324
  Ewald energy   TEWEN  =     -4565.41384850
  -Hartree energ DENC   =     -2005.69591478
  -exchange      EXHF   =       157.72821870
  -V(xc)+E(xc)   XCENC  =       180.21904207
  PAW double counting   =      6562.62711555    -6966.80335894
  entropy T*S    EENTRO =        -0.00000000
  eigenvalues    EBANDS =       -33.91898838
  atomic energy  EATOM  =      6412.99966844
  Solvation  Ediel_sol  =         0.00000000
  ---------------------------------------------------
  free energy    TOTEN  =       -29.93817260 eV

  energy without entropy =      -29.93817260  energy(sigma->0) =      -29.93817260
  exchange ACFDT corr.  =         0.00000000  see jH, gK, PRB 81, 115126


--------------------------------------------------------------------------------------------------------




--------------------------------------- Iteration      1(  24)  ---------------------------------------


    POTLOK:  cpu time      0.0194: real time      0.0358
    SETDIJ:  cpu time      0.9073: real time      0.9096
     EDDAV:  cpu time      0.0563: real time      0.0565
       DOS:  cpu time      0.0002: real time      0.0002
    CHARGE:  cpu time      0.0025: real time      0.0025
    MIXING:  cpu time      0.0001: real time      0.0001
    --------------------------------------------
      LOOP:  cpu time      0.9858: real time      1.0046

 eigenvalue-minimisations  :   216
 total energy-change (2. order) :-0.1466127E-03  (-0.8146053E-04)
 number of electron      55.9999991 magnetization       0.0001316
 augmentation part       29.7958757 magnetization       0.0001433

 Free energy of the ion-electron system (eV)
  ---------------------------------------------------
  alpha Z        PSCENC =       228.31989324
  Ewald energy   TEWEN  =     -4565.41384850
  -Hartree energ DENC   =     -2005.69646770
  -exchange      EXHF   =       157.72844223
  -V(xc)+E(xc)   XCENC  =       180.21908420
  PAW double counting   =      6562.66818842    -6966.84553938
  entropy T*S    EENTRO =        -0.00000000
  eigenvalues    EBANDS =       -33.91774016
  atomic energy  EATOM  =      6412.99966844
  Solvation  Ediel_sol  =         0.00000000
  ---------------------------------------------------
  free energy    TOTEN  =       -29.93831922 eV

  energy without entropy =      -29.93831922  energy(sigma->0) =      -29.93831922
  exchange ACFDT corr.  =         0.00000000  see jH, gK, PRB 81, 115126


--------------------------------------------------------------------------------------------------------




--------------------------------------- Iteration      1(  25)  ---------------------------------------


    POTLOK:  cpu time      0.0177: real time      0.0359
    SETDIJ:  cpu time      0.9038: real time      0.9061
     EDDAV:  cpu time      0.0578: real time      0.0579
       DOS:  cpu time      0.0003: real time      0.0003
    CHARGE:  cpu time      0.0035: real time      0.0035
    MIXING:  cpu time      0.0002: real time      0.0002
    --------------------------------------------
      LOOP:  cpu time      0.9832: real time      1.0039

 eigenvalue-minimisations  :   216
 total energy-change (2. order) :-0.2212070E-03  (-0.1215317E-03)
 number of electron      55.9999991 magnetization      -0.0000790
 augmentation part       29.7958092 magnetization      -0.0000702

 Free energy of the ion-electron system (eV)
  ---------------------------------------------------
  alpha Z        PSCENC =       228.31989324
  Ewald energy   TEWEN  =     -4565.41384850
  -Hartree energ DENC   =     -2005.69568509
  -exchange      EXHF   =       157.72858045
  -V(xc)+E(xc)   XCENC  =       180.21910730
  PAW double counting   =      6562.69349922    -6966.87139205
  entropy T*S    EENTRO =        -0.00000000
  eigenvalues    EBANDS =       -33.91836343
  atomic energy  EATOM  =      6412.99966844
  Solvation  Ediel_sol  =         0.00000000
  ---------------------------------------------------
  free energy    TOTEN  =       -29.93854042 eV

  energy without entropy =      -29.93854042  energy(sigma->0) =      -29.93854042
  exchange ACFDT corr.  =         0.00000000  see jH, gK, PRB 81, 115126


--------------------------------------------------------------------------------------------------------




--------------------------------------- Iteration      1(  26)  ---------------------------------------


    POTLOK:  cpu time      0.0217: real time      0.0337
    SETDIJ:  cpu time      0.9049: real time      0.9072
     EDDAV:  cpu time      0.0532: real time      0.0533
       DOS:  cpu time      0.0002: real time      0.0002
    CHARGE:  cpu time      0.0024: real time      0.0024
    MIXING:  cpu time      0.0001: real time      0.0001
    --------------------------------------------
      LOOP:  cpu time      0.9825: real time      0.9969

 eigenvalue-minimisations  :   192
 total energy-change (2. order) :-0.3346466E-03  (-0.1835438E-03)
 number of electron      55.9999991 magnetization       0.0000474
 augmentation part       29.7957110 magnetization       0.0000718

 Free energy of the ion-electron system (eV)
  ---------------------------------------------------
  alpha Z        PSCENC =       228.31989324
  Ewald energy   TEWEN  =     -4565.41384850
  -Hartree energ DENC   =     -2005.69326127
  -exchange      EXHF   =       157.72875635
  -V(xc)+E(xc)   XCENC  =       180.21911514
  PAW double counting   =      6562.70127362    -6966.87916280
  entropy T*S    EENTRO =        -0.00000000
  eigenvalues    EBANDS =       -33.92130929
  atomic energy  EATOM  =      6412.99966844
  Solvation  Ediel_sol  =         0.00000000
  ---------------------------------------------------
  free energy    TOTEN  =       -29.93887507 eV

  energy without entropy =      -29.93887507  energy(sigma->0) =      -29.93887507
  exchange ACFDT corr.  =         0.00000000  see jH, gK, PRB 81, 115126


--------------------------------------------------------------------------------------------------------




--------------------------------------- Iteration      1(  27)  ---------------------------------------


    POTLOK:  cpu time      0.0173: real time      0.0327
    SETDIJ:  cpu time      0.9060: real time      0.9083
     EDDAV:  cpu time      0.0566: real time      0.0567
       DOS:  cpu time      0.0001: real time      0.0001
    CHARGE:  cpu time      0.0026: real time      0.0026
    MIXING:  cpu time      0.0001: real time      0.0001
    --------------------------------------------
      LOOP:  cpu time      0.9826: real time      1.0005

 eigenvalue-minimisations  :   216
 total energy-change (2. order) :-0.5062062E-03  (-0.2779263E-03)
 number of electron      55.9999991 magnetization      -0.0000284
 augmentation part       29.7956091 magnetization       0.0000101

 Free energy of the ion-electron system (eV)
  ---------------------------------------------------
  alpha Z        PSCENC =       228.31989324
  Ewald energy   TEWEN  =     -4565.41384850
  -Hartree energ DENC   =     -2005.68888992
  -exchange      EXHF   =       157.72901936
  -V(xc)+E(xc)   XCENC  =       180.21911373
  PAW double counting   =      6562.69580575    -6966.87336225
  entropy T*S    EENTRO =        -0.00000000
  eigenvalues    EBANDS =       -33.92678111
  atomic energy  EATOM  =      6412.99966844
  Solvation  Ediel_sol  =         0.00000000
  ---------------------------------------------------
  free energy    TOTEN  =       -29.93938128 eV

  energy without entropy =      -29.93938128  energy(sigma->0) =      -29.93938128
  exchange ACFDT corr.  =         0.00000000  see jH, gK, PRB 81, 115126


--------------------------------------------------------------------------------------------------------




--------------------------------------- Iteration      1(  28)  ---------------------------------------


    POTLOK:  cpu time      0.0177: real time      0.0323
    SETDIJ:  cpu time      0.9026: real time      0.9049
     EDDAV:  cpu time      0.0529: real time      0.0530
       DOS:  cpu time      0.0001: real time      0.0001
    CHARGE:  cpu time      0.0023: real time      0.0023
    MIXING:  cpu time      0.0001: real time      0.0001
    --------------------------------------------
      LOOP:  cpu time      0.9757: real time      0.9926

 eigenvalue-minimisations  :   192
 total energy-change (2. order) :-0.7629103E-03  (-0.4179775E-03)
 number of electron      55.9999991 magnetization       0.0000171
 augmentation part       29.7953769 magnetization       0.0000727

 Free energy of the ion-electron system (eV)
  ---------------------------------------------------
  alpha Z        PSCENC =       228.31989324
  Ewald energy   TEWEN  =     -4565.41384850
  -Hartree energ DENC   =     -2005.68344388
  -exchange      EXHF   =       157.72954293
  -V(xc)+E(xc)   XCENC  =       180.21916126
  PAW double counting   =      6562.67928652    -6966.85656057
  entropy T*S    EENTRO =        -0.00000000
  eigenvalues    EBANDS =       -33.93384361
  atomic energy  EATOM  =      6412.99966844
  Solvation  Ediel_sol  =         0.00000000
  ---------------------------------------------------
  free energy    TOTEN  =       -29.94014419 eV

  energy without entropy =      -29.94014419  energy(sigma->0) =      -29.94014419
  exchange ACFDT corr.  =         0.00000000  see jH, gK, PRB 81, 115126


--------------------------------------------------------------------------------------------------------




--------------------------------------- Iteration      1(  29)  ---------------------------------------


    POTLOK:  cpu time      0.0175: real time      0.0341
    SETDIJ:  cpu time      0.9021: real time      0.9044
     EDDAV:  cpu time      0.0560: real time      0.0561
       DOS:  cpu time      0.0002: real time      0.0002
    CHARGE:  cpu time      0.0025: real time      0.0025
    MIXING:  cpu time      0.0001: real time      0.0001
    --------------------------------------------
      LOOP:  cpu time      0.9784: real time      0.9974

 eigenvalue-minimisations  :   216
 total energy-change (2. order) :-0.1145448E-02  (-0.6278053E-03)
 number of electron      55.9999991 magnetization      -0.0000102
 augmentation part       29.7951164 magnetization       0.0000438

 Free energy of the ion-electron system (eV)
  ---------------------------------------------------
  alpha Z        PSCENC =       228.31989324
  Ewald energy   TEWEN  =     -4565.41384850
  -Hartree energ DENC   =     -2005.67311474
  -exchange      EXHF   =       157.73010872
  -V(xc)+E(xc)   XCENC  =       180.21915335
  PAW double counting   =      6562.64780159    -6966.82392487
  entropy T*S    EENTRO =        -0.00000000
  eigenvalues    EBANDS =       -33.94702685
  atomic energy  EATOM  =      6412.99966844
  Solvation  Ediel_sol  =         0.00000000
  ---------------------------------------------------
  free energy    TOTEN  =       -29.94128963 eV

  energy without entropy =      -29.94128963  energy(sigma->0) =      -29.94128963
  exchange ACFDT corr.  =         0.00000000  see jH, gK, PRB 81, 115126


--------------------------------------------------------------------------------------------------------




--------------------------------------- Iteration      1(  30)  ---------------------------------------


    POTLOK:  cpu time      0.0170: real time      0.0334
    SETDIJ:  cpu time      0.9080: real time      0.9103
     EDDAV:  cpu time      0.0534: real time      0.0535
       DOS:  cpu time      0.0001: real time      0.0001
    CHARGE:  cpu time      0.0023: real time      0.0023
    MIXING:  cpu time      0.0001: real time      0.0001
    --------------------------------------------
      LOOP:  cpu time      0.9809: real time      0.9997

 eigenvalue-minimisations  :   192
 total energy-change (2. order) :-0.1705726E-02  (-0.9321532E-03)
 number of electron      55.9999991 magnetization       0.0000061
 augmentation part       29.7946571 magnetization       0.0000862

 Free energy of the ion-electron system (eV)
  ---------------------------------------------------
  alpha Z        PSCENC =       228.31989324
  Ewald energy   TEWEN  =     -4565.41384850
  -Hartree energ DENC   =     -2005.65914810
  -exchange      EXHF   =       157.73119097
  -V(xc)+E(xc)   XCENC  =       180.21920746
[...]
  PAW double counting   =      6550.41427165    -6954.71712859
  entropy T*S    EENTRO =        -0.00000000
  eigenvalues    EBANDS =       -37.69131694
  atomic energy  EATOM  =      6412.99966844
  Solvation  Ediel_sol  =         0.00000000
  ---------------------------------------------------
  free energy    TOTEN  =       -30.07146920 eV

  energy without entropy =      -30.07146920  energy(sigma->0) =      -30.07146920
  exchange ACFDT corr.  =         0.00000000  see jH, gK, PRB 81, 115126


--------------------------------------------------------------------------------------------------------




--------------------------------------- Iteration      1(  89)  ---------------------------------------


    POTLOK:  cpu time      0.0177: real time      0.0325
    SETDIJ:  cpu time      0.9053: real time      0.9076
     EDDAV:  cpu time      0.0653: real time      0.0654
       DOS:  cpu time      0.0002: real time      0.0002
    --------------------------------------------
      LOOP:  cpu time      0.9885: real time      1.0058

 eigenvalue-minimisations  :   144
 total energy-change (2. order) :-0.9060438E-05  (-0.5731804E-05)
 number of electron      55.9999990 magnetization       0.0000000
 augmentation part       29.7501752 magnetization      -0.0000142

 Free energy of the ion-electron system (eV)
  ---------------------------------------------------
  alpha Z        PSCENC =       228.31989324
  Ewald energy   TEWEN  =     -4565.41384850
  -Hartree energ DENC   =     -2002.03115989
  -exchange      EXHF   =       157.87332231
  -V(xc)+E(xc)   XCENC  =       180.17549645
  PAW double counting   =      6550.41315169    -6954.71607090
  entropy T*S    EENTRO =        -0.00000000
  eigenvalues    EBANDS =       -37.69193110
  atomic energy  EATOM  =      6412.99966844
  Solvation  Ediel_sol  =         0.00000000
  ---------------------------------------------------
  free energy    TOTEN  =       -30.07147826 eV

  energy without entropy =      -30.07147826  energy(sigma->0) =      -30.07147826
  exchange ACFDT corr.  =         0.00000000  see jH, gK, PRB 81, 115126


--------------------------------------------------------------------------------------------------------




 average (electrostatic) potential at core
  the test charge radii are     0.9430  0.7215
  (the norm of the test charge is              1.0000)
       1 -58.1428       2 -58.1813       3 -58.1873       4 -58.1485       5 -64.0829
       6 -64.0829
 
 
 
 E-fermi :   4.3799     XC(G=0):  -8.9650     alpha+bet :-10.2360

 Fermi energy:         4.3798869789

 spin component 1

 k-point     1 :       0.0000    0.0000    0.0000
  band No.  band energies     occupation 
      1     -16.9653      1.00000
      2     -16.1196      1.00000
      3      -3.4700      1.00000
      4      -3.4138      1.00000
      5      -3.3239      1.00000
      6      -1.2528      1.00000
      7      -0.3472      1.00000
      8      -0.3445      1.00000
      9      -0.3432      1.00000
     10      -0.0274      1.00000
     11      -0.0237      1.00000
     12       0.0409      1.00000
     13       0.3433      1.00000
     14       0.4631      1.00000
     15       0.9773      1.00000
     16       0.9786      1.00000
     17       1.1083      1.00000
     18       1.2524      1.00000
     19       1.2868      1.00000
     20       1.3233      1.00000
     21       1.3383      1.00000
     22       1.4795      1.00000
     23       1.5395      1.00000
     24       1.5788      1.00000
     25       1.6493      1.00000
     26       3.5614      1.00000
     27       3.5965      1.00000
     28       4.2681      1.00000
     29       6.6422      0.00000
     30       6.6831      0.00000
     31       6.8519      0.00000
     32      14.2524      0.00000
     33      14.3652      0.00000
     34      14.4406      0.00000
     35      14.9718      0.00000
     36      15.0886      0.00000
 Fermi energy:         4.3798869789

 spin component 2

 k-point     1 :       0.0000    0.0000    0.0000
  band No.  band energies     occupation 
      1     -16.9653      1.00000
      2     -16.1196      1.00000
      3      -3.4698      1.00000
      4      -3.4139      1.00000
      5      -3.3239      1.00000
      6      -1.2528      1.00000
      7      -0.3469      1.00000
      8      -0.3450      1.00000
      9      -0.3431      1.00000
     10      -0.0273      1.00000
     11      -0.0236      1.00000
     12       0.0410      1.00000
     13       0.3433      1.00000
     14       0.4634      1.00000
     15       0.9773      1.00000
     16       0.9786      1.00000
     17       1.1086      1.00000
     18       1.2529      1.00000
     19       1.2872      1.00000
     20       1.3198      1.00000
     21       1.3402      1.00000
     22       1.4787      1.00000
     23       1.5403      1.00000
     24       1.5789      1.00000
     25       1.6491      1.00000
     26       3.5642      1.00000
     27       3.5938      1.00000
     28       4.2680      1.00000
     29       6.6422      0.00000
     30       6.6831      0.00000
     31       6.8519      0.00000
     32      14.2524      0.00000
     33      14.3651      0.00000
     34      14.4406      0.00000
     35      14.9718      0.00000
     36      15.0879      0.00000


--------------------------------------------------------------------------------------------------------


 soft charge-density along one line, spin component           1
         0         1         2         3         4         5         6         7         8         9
 total charge-density along one line
 
 soft charge-density along one line, spin component           2
         0         1         2         3         4         5         6         7         8         9
 total charge-density along one line
 
 pseudopotential strength for first ion, spin component:           1
 -1.537   0.111  -0.032   0.136   0.049  -6.020  -0.091   0.019
  0.111  -1.529   0.044  -0.111  -0.078  -0.091  -6.028  -0.039
 -0.032   0.044  -1.414   0.025   0.015   0.019  -0.039  -6.112
  0.136  -0.111   0.025  -1.536  -0.054  -0.110   0.091  -0.024
  0.049  -0.078   0.015  -0.054  -1.432  -0.040   0.069  -0.012
 -6.020  -0.091   0.019  -0.110  -0.040  11.352   0.072  -0.012
 -0.091  -6.028  -0.039   0.091   0.069   0.072  11.358   0.031
  0.019  -0.039  -6.112  -0.024  -0.012  -0.012   0.031  11.420
 -0.110   0.091  -0.024  -6.021   0.037   0.086  -0.072   0.020
 -0.040   0.069  -0.012   0.037  -6.097   0.032  -0.055   0.009
  0.040  -0.061  -0.005  -0.039   0.008  -0.022   0.034   0.003
  0.075  -0.114  -0.009  -0.075   0.015  -0.040   0.060   0.006
 -0.000   0.000   0.000  -0.000   0.000   0.000  -0.000   0.000
 -0.000  -0.000   0.000  -0.000  -0.000   0.000   0.000  -0.000
 -0.000  -0.000   0.000   0.000  -0.000  -0.000   0.000  -0.000
 -0.000   0.000   0.000  -0.000   0.000   0.000  -0.000   0.000
 -0.000  -0.000   0.000  -0.000  -0.000   0.000   0.000  -0.000
  0.000  -0.000   0.000   0.000  -0.000  -0.000   0.000  -0.000
 pseudopotential strength for first ion, spin component:           2
 -1.195  -0.054   0.037   0.005  -0.040  -6.305   0.051  -0.039
 -0.054  -1.181   0.015   0.053  -0.025   0.051  -6.316  -0.012
  0.037   0.015  -1.244  -0.015   0.002  -0.039  -0.012  -6.248
  0.005   0.053  -0.015  -1.194   0.052   0.005  -0.051   0.011
 -0.040  -0.025   0.002   0.052  -1.249   0.036   0.020  -0.000
 -6.305   0.051  -0.039   0.005   0.036  11.582  -0.044   0.037
  0.051  -6.316  -0.012  -0.051   0.020  -0.044  11.590   0.009
 -0.039  -0.012  -6.248   0.011  -0.000   0.037   0.009  11.526
  0.005  -0.051   0.011  -6.305  -0.052  -0.009   0.044  -0.008
  0.036   0.020  -0.000  -0.052  -6.247  -0.031  -0.015  -0.001
  0.024  -0.024   0.001  -0.024  -0.002  -0.015   0.016  -0.001
  0.047  -0.047   0.002  -0.047  -0.004  -0.027   0.027  -0.003
 -0.000   0.000   0.000   0.000   0.000   0.000  -0.000  -0.000
  0.000  -0.000  -0.000  -0.000   0.000  -0.000   0.000   0.000
 -0.000   0.000   0.000   0.000  -0.000   0.000  -0.000  -0.000
 -0.000   0.000   0.000   0.000   0.000   0.000   0.000  -0.000
  0.000  -0.000  -0.000  -0.000   0.000  -0.000   0.000   0.000
 -0.000   0.000   0.000   0.000  -0.000   0.000  -0.000  -0.000
 total augmentation occupancy for first ion, spin component:           1
  1.904   0.090  -0.011   0.088   0.019   0.001  -0.035   0.009  -0.034  -0.006  -0.053  -0.069   0.000  -0.000   0.000  -0.000
  0.090   1.900   0.012  -0.090  -0.021  -0.036   0.002  -0.000   0.036   0.000   0.065   0.063   0.000  -0.000   0.000  -0.000
 -0.011   0.012   1.981   0.011   0.007   0.009   0.000  -0.054  -0.000  -0.003   0.005   0.001   0.000  -0.000  -0.000  -0.000
  0.088  -0.090   0.011   1.904  -0.020  -0.034   0.035  -0.001   0.001   0.011   0.053   0.070   0.000  -0.000   0.000  -0.000
  0.019  -0.021   0.007  -0.020   1.972  -0.006  -0.000  -0.003   0.011  -0.051  -0.008  -0.002   0.000   0.000  -0.000  -0.000
  0.001  -0.036   0.009  -0.034  -0.006   0.044  -0.035  -0.008  -0.035   0.000   0.193  -0.036   0.000  -0.000   0.000   0.000
 -0.035   0.002   0.000   0.035  -0.000  -0.035   0.044  -0.003   0.035   0.006  -0.194   0.037  -0.000   0.000   0.000  -0.000
  0.009  -0.000  -0.054  -0.001  -0.003  -0.008  -0.003   0.031  -0.003   0.001  -0.004  -0.000  -0.000   0.000  -0.000   0.000
 -0.034   0.036  -0.000   0.001   0.011  -0.035   0.035  -0.003   0.044  -0.007  -0.193   0.036   0.000  -0.000   0.000  -0.000
 -0.006   0.000  -0.003   0.011  -0.051   0.000   0.006   0.001  -0.007   0.029   0.008   0.000  -0.000  -0.000  -0.000   0.000
 -0.053   0.065   0.005   0.053  -0.008   0.193  -0.194  -0.004  -0.193   0.008   2.452  -0.421  -0.000   0.000  -0.000   0.000
 -0.069   0.063   0.001   0.070  -0.002  -0.036   0.037  -0.000   0.036   0.000  -0.421   0.095   0.000  -0.000   0.000  -0.000
  0.000   0.000   0.000   0.000   0.000   0.000  -0.000  -0.000   0.000  -0.000  -0.000   0.000   0.217  -0.185   0.185  -0.032
 -0.000  -0.000  -0.000  -0.000   0.000  -0.000   0.000   0.000  -0.000  -0.000   0.000  -0.000  -0.185   0.217  -0.185   0.028
  0.000   0.000  -0.000   0.000  -0.000   0.000   0.000  -0.000   0.000  -0.000  -0.000   0.000   0.185  -0.185   0.217  -0.028
 -0.000  -0.000  -0.000  -0.000  -0.000   0.000  -0.000   0.000  -0.000   0.000   0.000  -0.000  -0.032   0.028  -0.028   0.005
  0.000  -0.000   0.000   0.000  -0.000   0.000   0.000  -0.000   0.000   0.000  -0.000   0.000   0.028  -0.032   0.028  -0.005
 -0.000   0.000   0.000  -0.000   0.000   0.000  -0.000   0.000  -0.000   0.000   0.000  -0.000  -0.028   0.028  -0.032   0.005
 total augmentation occupancy for first ion, spin component:           2
  0.056  -0.063   0.016  -0.061  -0.029  -0.034   0.027  -0.010   0.025   0.015   0.008   0.001  -0.000   0.000  -0.000   0.000
 -0.063   0.062  -0.017   0.063   0.030   0.028  -0.036   0.008  -0.028  -0.014  -0.004  -0.005  -0.000   0.000  -0.000   0.000
  0.016  -0.017  -0.002  -0.016  -0.002  -0.011   0.008  -0.007   0.008   0.001   0.016   0.004  -0.000   0.000  -0.000   0.000
 -0.061   0.063  -0.016   0.055   0.028   0.025  -0.027   0.008  -0.034  -0.016  -0.008  -0.001  -0.000  -0.000  -0.000  -0.000
 -0.029   0.030  -0.002   0.028   0.001   0.016  -0.015   0.001  -0.018  -0.009  -0.029  -0.008  -0.000   0.000  -0.000   0.000
 -0.034   0.028  -0.011   0.025   0.016   0.005  -0.005   0.002  -0.004  -0.003   0.013   0.002   0.000   0.000  -0.000   0.000
  0.027  -0.036   0.008  -0.027  -0.015  -0.005   0.006  -0.002   0.005   0.004  -0.011  -0.001   0.000  -0.000  -0.000  -0.000
 -0.010   0.008  -0.007   0.008   0.001   0.002  -0.002   0.001  -0.002   0.001  -0.006   0.001  -0.000   0.000  -0.000   0.000
  0.025  -0.028   0.008  -0.034  -0.018  -0.004   0.005  -0.002   0.005   0.004  -0.013  -0.002  -0.000   0.000  -0.000   0.000
  0.015  -0.014   0.001  -0.016  -0.009  -0.003   0.004   0.001   0.004   0.000   0.010  -0.002  -0.000   0.000  -0.000   0.000
  0.008  -0.004   0.016  -0.008  -0.029   0.013  -0.011  -0.006  -0.013   0.010  -0.163   0.010   0.000  -0.000  -0.000  -0.000
  0.001  -0.005   0.004  -0.001  -0.008   0.002  -0.001   0.001  -0.002  -0.002   0.010  -0.002  -0.000   0.000  -0.000   0.000
 -0.000  -0.000  -0.000  -0.000  -0.000   0.000   0.000  -0.000  -0.000  -0.000   0.000  -0.000  -0.002   0.002  -0.001   0.000
  0.000   0.000   0.000  -0.000   0.000   0.000  -0.000   0.000   0.000   0.000  -0.000   0.000   0.002  -0.002   0.001  -0.000
 -0.000  -0.000  -0.000  -0.000  -0.000  -0.000  -0.000  -0.000  -0.000  -0.000  -0.000  -0.000  -0.001   0.001  -0.000   0.000
  0.000   0.000   0.000  -0.000   0.000   0.000  -0.000   0.000   0.000   0.000  -0.000   0.000   0.000  -0.000   0.000   0.000
 -0.000  -0.000  -0.000   0.000  -0.000  -0.000   0.000  -0.000   0.000  -0.000   0.000  -0.000  -0.000   0.000  -0.000  -0.000
  0.000   0.000   0.000   0.000   0.000   0.000  -0.000   0.000  -0.000   0.000   0.000  -0.000  -0.000   0.000  -0.000   0.000


------------------------ aborting loop because EDIFF is reached ----------------------------------------





 total charge

# of ion       s       p       d       tot
------------------------------------------
    1        0.467   0.281   9.314  10.062
    2        0.467   0.281   9.314  10.062
    3        0.467   0.281   9.314  10.062
    4        0.467   0.281   9.314  10.062
    5        1.548   3.599   0.000   5.147
    6        1.548   3.599   0.000   5.147
--------------------------------------------------
tot          4.964   8.321  37.258  50.542



 magnetization (x)

# of ion       s       p       d       tot
------------------------------------------
    1        0.000  -0.000  -0.000  -0.000
    2        0.000  -0.000  -0.000  -0.000
    3        0.000  -0.000  -0.000  -0.000
    4        0.000  -0.000  -0.000  -0.000
    5       -0.000   0.000   0.000   0.000
    6       -0.000   0.000   0.000   0.000
--------------------------------------------------
tot          0.000   0.000  -0.000  -0.000
 
    CHARGE:  cpu time      0.0029: real time      0.0029
    FORLOC:  cpu time      0.0006: real time      0.0007
    FORHF :  cpu time      0.0329: real time      0.0334
    FORNL :  cpu time      0.0094: real time      0.0101
    FORCOR:  cpu time      0.9273: real time      0.9299
    FORHAR:  cpu time      0.0038: real time      0.0041
    MIXING:  cpu time      0.0001: real time      0.0001
    OFIELD:  cpu time      0.0006: real time      0.0008

 VOLUME and BASIS-vectors are now :
 -----------------------------------------------------------------------------
  energy-cutoff  :      680.00
  volume of cell :       76.59
      direct lattice vectors                 reciprocal lattice vectors
     4.246699320  0.000000000  0.000000000     0.235476996  0.000000000  0.000000000
    -0.000000000  4.246699320  0.000000000     0.000000000  0.235476996  0.000000000
     0.000000000  0.000000000  4.246699320    -0.000000000 -0.000000000  0.235476996

  length of vectors
     4.246699320  4.246699320  4.246699320     0.235476996  0.235476996  0.235476996


 FORCES acting on ions
    electron-ion (+dipol)            ewald-force                    non-local-force                 convergence-correction
 -----------------------------------------------------------------------------------------------
   -.828E-04 -.707E-04 -.961E-05   -.711E-13 -.426E-13 -.142E-13   -.125E-21 0.575E-21 -.208E-22   0.104E-03 0.817E-04 -.512E-04
   0.354E-03 -.138E-03 -.205E-03   -.114E-12 -.284E-13 0.000E+00   -.200E-21 0.357E-21 0.128E-22   -.251E-03 0.604E-04 0.124E-03
   0.246E-03 -.140E-03 0.150E-03   -.853E-13 -.568E-13 0.000E+00   0.108E-22 -.866E-22 0.185E-21   -.151E-03 0.800E-04 -.108E-03
   -.813E-04 0.128E-03 -.813E-04   -.711E-13 -.142E-13 0.000E+00   -.559E-21 0.231E-21 -.191E-21   0.484E-04 -.111E-03 0.663E-04
   -.211E-04 -.104E-02 0.723E-02   0.255E-12 0.128E-12 -.704E-13   -.836E-19 0.533E-18 0.809E-18   0.646E-04 -.270E-02 0.165E-01
   -.420E-04 0.102E-02 -.723E-02   0.857E-13 -.461E-15 0.708E-13   0.133E-18 -.583E-18 -.119E-17   -.422E-04 0.259E-02 -.165E-01
 -----------------------------------------------------------------------------------------------
   0.372E-03 -.240E-03 -.147E-03   -.487E-16 -.146E-13 -.138E-13   0.487E-19 -.490E-19 -.384E-18   -.227E-03 0.159E-05 0.666E-04
 
 
 POSITION                                       TOTAL-FORCE (eV/Angst)
 -----------------------------------------------------------------------------------
      2.12335      2.12335      0.00000        -0.000000     -0.000000     -0.000000
     -0.00000      2.12335      2.12335        -0.000000     -0.000000     -0.000000
      2.12335      0.00000      2.12335        -0.000000     -0.000000     -0.000000
      0.00000      0.00000      0.00000        -0.000000     -0.000000     -0.000000
      3.18502      3.18502      3.18502         0.000000      0.000000     -0.000000
      1.06167      1.06167      1.06167         0.000000      0.000000      0.000000
 -----------------------------------------------------------------------------------
    total drift:                                0.000146     -0.000238     -0.000081


--------------------------------------------------------------------------------------------------------



  FREE ENERGIE OF THE ION-ELECTRON SYSTEM (eV)
  ---------------------------------------------------
  free  energy   TOTEN  =       -30.07147826 eV

  energy  without entropy=      -30.07147826  energy(sigma->0) =      -30.07147826
 


--------------------------------------------------------------------------------------------------------


    POTLOK:  cpu time      0.9297: real time      0.9326


--------------------------------------------------------------------------------------------------------


 writing wavefunctions
     LOOP+:  cpu time     87.3809: real time     89.7344
    4ORBIT:  cpu time      0.0000: real time      0.0000



 total charge

# of ion       s       p       d       tot
------------------------------------------
    1        0.467   0.281   9.314  10.062
    2        0.467   0.281   9.314  10.062
    3        0.467   0.281   9.314  10.062
    4        0.467   0.281   9.314  10.062
    5        1.548   3.599   0.000   5.147
    6        1.548   3.599   0.000   5.147
--------------------------------------------------
tot          4.964   8.321  37.258  50.542



 magnetization (x)

# of ion       s       p       d       tot
------------------------------------------
    1        0.000  -0.000  -0.000  -0.000
    2        0.000  -0.000  -0.000  -0.000
    3        0.000  -0.000  -0.000  -0.000
    4        0.000  -0.000  -0.000  -0.000
    5       -0.000   0.000   0.000   0.000
    6       -0.000   0.000   0.000   0.000
--------------------------------------------------
tot          0.000   0.000  -0.000  -0.000
 

 total amount of memory used by VASP MPI-rank0    33274. kBytes
=======================================================================

   base      :      30000. kBytes
   nonl-proj :        119. kBytes
   fftplans  :        396. kBytes
   grid      :        843. kBytes
   one-center:         31. kBytes
   HF        :         64. kBytes
   nonlr-proj:        480. kBytes
   wavefun   :         32. kBytes
   fock_wrk  :       1309. kBytes
 
  
  
 General timing and accounting informations for this job:
 ========================================================
  
                  Total CPU time used (sec):       94.180
                            User time (sec):       92.808
                          System time (sec):        1.372
                         Elapsed time (sec):       97.786
  
                   Maximum memory used (kb):      271896.
                   Average memory used (kb):          N/A
  
                          Minor page faults:        38429
                          Major page faults:            0
                 Voluntary context switches:         3176
