<?xml version="1.0" encoding="ISO-8859-1"?>
<modeling>
 <generator>
  <i name="program" type="string">vasp </i>
  <i name="version" type="string">6.4.2  </i>
  <i name="subversion" type="string">20Jul23 (build Mar 15 2024 16:31:38) complex                          parallel </i>
  <i name="platform" type="string">LinuxIFC </i>
  <i name="date" type="string">2025 03 26 </i>
  <i name="time" type="string">17:07:32 </i>
 </generator>
 <incar>
  <i type="string" name="PREC">Accurate</i>
  <i type="string" name="ALGO">Normal</i>
  <i type="int" name="ISPIN">     2</i>
  <i type="int" name="NELM">   200</i>
  <i name="EDIFF">      0.00001000</i>
  <i type="int" name="NSW">     0</i>
  <i name="ENCUT">    680.00000000</i>
  <i name="ENAUG">   1360.00000000</i>
  <v name="MAGMOM">      0.60000000      0.60000000      0.60000000      0.60000000      0.60000000      0.60000000</v>
  <i type="logical" name="LREAL"> F  </i>
  <i type="int" name="ISMEAR">     0</i>
  <i name="SIGMA">      0.01000000</i>
  <i type="int" name="LMAXMIX">     4</i>
  <i type="logical" name="LWAVE"> T  </i>
  <i type="logical" name="LCHARG"> T  </i>
  <i type="logical" name="LVTOT"> T  </i>
  <i type="int" name="LORBIT">    11</i>
  <i type="logical" name="LELF"> F  </i>
  <i type="logical" name="LASPH"> T  </i>
  <i type="logical" name="LAECHG"> T  </i>
  <i name="HFSCREEN">      0.20000000</i>
  <i type="logical" name="LHFCALC"> T  </i>
  <i type="string" name="GGA">Pe</i>
  <i type="string" name="PRECFOCK">Fast</i>
  <i type="logical" name="LDAU"> F  </i>
  <i type="logical" name="LMIXTAU"> T  </i>
 </incar>
 <primitive_cell>
  <structure name="primitive_cell" >
   <crystal>
    <varray name="basis" >
     <v>       4.24669932       0.00000000       0.00000000 </v>
     <v>      -0.00000000       4.24669932       0.00000000 </v>
     <v>       0.00000000       0.00000000       4.24669932 </v>
    </varray>
    <i name="volume">     76.58690827 </i>
    <varray name="rec_basis" >
     <v>       0.23547700       0.00000000       0.00000000 </v>
     <v>       0.00000000       0.23547700       0.00000000 </v>
     <v>      -0.00000000      -0.00000000       0.23547700 </v>
    </varray>
   </crystal>
   <varray name="positions" >
    <v>       0.50000000       0.50000000       1.00000000 </v>
    <v>       0.00000000       0.50000000       0.50000000 </v>
    <v>       0.50000000       0.00000000       0.50000000 </v>
    <v>       0.00000000       0.00000000       0.00000000 </v>
    <v>       0.75000000       0.75000000       0.75000000 </v>
    <v>       0.25000000       0.25000000       0.25000000 </v>
   </varray>
  </structure>
  <varray name="primitive_index" >
   <v type="int" >        1 </v>
   <v type="int" >        2 </v>
   <v type="int" >        3 </v>
   <v type="int" >        4 </v>
   <v type="int" >        5 </v>
   <v type="int" >        6 </v>
  </varray>
 </primitive_cell>
 <kpoints>
  <varray name="kpointlist" >
   <v>       0.00000000       0.00000000       0.00000000 </v>
  </varray>
  <varray name="weights" >
   <v>       1.00000000 </v>
  </varray>
 </kpoints>
 <parameters>
  <separator name="general" >
   <i type="string" name="SYSTEM">unknown system</i>
   <i type="logical" name="LCOMPAT"> F  </i>
  </separator>
  <separator name="electronic" >
   <i type="string" name="PREC">accura</i>
   <i name="ENMAX">    680.00000000</i>
   <i name="ENAUG">   1360.00000000</i>
   <i name="EDIFF">      0.00001000</i>
   <i type="int" name="IALGO">    38</i>
   <i type="int" name="IWAVPR">    10</i>
   <i type="int" name="NBANDS">    36</i>
   <i type="int" name="NBANDSLOW">    -1</i>
   <i type="int" name="NBANDSHIGH">    -1</i>
   <i name="NELECT">     56.00000000</i>
   <i type="int" name="TURBO">     0</i>
   <i type="int" name="IRESTART">     0</i>
   <i type="int" name="NREBOOT">     0</i>
   <i type="int" name="NMIN">     0</i>
   <i name="EREF">      0.00000000</i>
   <separator name="electronic smearing" >
    <i type="int" name="ISMEAR">     0</i>
    <i name="SIGMA">      0.01000000</i>
    <i name="KSPACING">      0.50000000</i>
    <i type="logical" name="KGAMMA"> T  </i>
    <i type="logical" name="KBLOWUP"> T  </i>
   </separator>
   <separator name="electronic projectors" >
    <i type="logical" name="LREAL"> F  </i>
    <v name="ROPT">      0.00000000      0.00000000</v>
    <i type="int" name="LMAXPAW">  -100</i>
    <i type="int" name="LMAXMIX">     4</i>
    <i type="logical" name="NLSPLINE"> F  </i>
   </separator>
   <separator name="electronic startup" >
    <i type="int" name="ISTART">     0</i>
    <i type="int" name="ICHARG">     2</i>
    <i type="int" name="INIWAV">     1</i>
   </separator>
   <separator name="electronic spin" >
    <i type="int" name="ISPIN">     2</i>
    <i type="logical" name="LNONCOLLINEAR"> F  </i>
    <v name="MAGMOM">      0.60000000      0.60000000      0.60000000      0.60000000      0.60000000      0.60000000</v>
    <i name="NUPDOWN">     -1.00000000</i>
    <i type="logical" name="LSORBIT"> F  </i>
    <v name="SAXIS">      0.00000000      0.00000000      1.00000000</v>
    <i type="logical" name="LSPIRAL"> F  </i>
    <v name="QSPIRAL">      0.00000000      0.00000000      0.00000000</v>
    <i type="logical" name="LZEROZ"> F  </i>
   </separator>
   <separator name="electronic exchange-correlation" >
    <i type="logical" name="LASPH"> T  </i>
    <i type="logical" name="LMETAGGA"> F  </i>
   </separator>
   <separator name="electronic convergence" >
    <i type="int" name="NELM">   200</i>
    <i type="int" name="NELMDL">    -5</i>
    <i type="int" name="NELMIN">     2</i>
    <i name="ENINI">    680.00000000</i>
    <separator name="electronic convergence detail" >
     <i type="logical" name="LDIAG"> T  </i>
     <i type="logical" name="LSUBROT"> F  </i>
     <i name="WEIMIN">      0.00000000</i>
     <i name="EBREAK">      0.00000007</i>
     <i name="DEPER">      0.30000000</i>
     <i type="int" name="NRMM">     4</i>
     <i name="TIME">      0.40000000</i>
    </separator>
   </separator>
   <separator name="electronic mixer" >
    <i name="AMIX">      0.40000000</i>
    <i name="BMIX">      1.00000000</i>
    <i name="AMIN">      0.10000000</i>
    <i name="AMIX_MAG">      1.60000000</i>
    <i name="BMIX_MAG">      1.00000000</i>
    <separator name="electronic mixer details" >
     <i type="int" name="IMIX">     1</i>
     <i type="logical" name="MIXFIRST"> F  </i>
     <i type="int" name="MAXMIX">   -45</i>
     <i name="WC">    100.00000000</i>
     <i type="int" name="INIMIX">     1</i>
     <i type="int" name="MIXPRE">     1</i>
     <i type="int" name="MREMOVE">     5</i>
    </separator>
   </separator>
   <separator name="electronic dipolcorrection" >
    <i type="logical" name="LDIPOL"> F  </i>
    <i type="logical" name="LMONO"> F  </i>
    <i type="int" name="IDIPOL">     0</i>
    <i name="EPSILON">      1.00000000</i>
    <v name="DIPOL">   -100.00000000   -100.00000000   -100.00000000</v>
    <i name="EFIELD">      0.00000000</i>
   </separator>
  </separator>
  <separator name="grids" >
   <i type="int" name="NGX">    36</i>
   <i type="int" name="NGY">    36</i>
   <i type="int" name="NGZ">    36</i>
   <i type="int" name="NGXF">    72</i>
   <i type="int" name="NGYF">    72</i>
   <i type="int" name="NGZF">    72</i>
   <i type="logical" name="ADDGRID"> F  </i>
  </separator>
  <separator name="ionic" >
   <i type="int" name="NSW">     0</i>
   <i type="int" name="IBRION">    -1</i>
   <i type="int" name="MDALGO">     0</i>
   <i type="int" name="ISIF">     0</i>
   <i name="PSTRESS">      0.00000000</i>
   <i name="EDIFFG">      0.00010000</i>
   <i type="int" name="NFREE">     0</i>
   <i name="POTIM">      0.50000000</i>
   <i name="SMASS">     -3.00000000</i>
   <i name="SCALEE">      1.00000000</i>
  </separator>
  <separator name="ionic md" >
   <i name="TEBEG">      0.00010000</i>
   <i name="TEEND">      0.00010000</i>
   <i type="int" name="NBLOCK">     1</i>
   <i type="int" name="KBLOCK">     1</i>
   <i type="int" name="NPACO">   256</i>
   <i name="APACO">     10.00000000</i>
  </separator>
  <separator name="symmetry" >
   <i type="int" name="ISYM">     3</i>
   <i name="SYMPREC">      0.00001000</i>
  </separator>
  <separator name="dos" >
   <i type="int" name="LORBIT">    11</i>
   <v name="RWIGS">     -1.00000000     -1.00000000</v>
   <i type="int" name="NEDOS">   301</i>
   <i name="EMIN">     10.00000000</i>
   <i name="EMAX">    -10.00000000</i>
   <i name="EFERMI">      0.00000000</i>
  </separator>
  <separator name="writing" >
   <i type="int" name="NWRITE">     2</i>
   <i type="logical" name="LWAVE"> T  </i>
   <i type="logical" name="LDOWNSAMPLE"> F  </i>
   <i type="logical" name="LCHARG"> T  </i>
   <i type="logical" name="LPARD"> F  </i>
   <i type="logical" name="LVTOT"> T  </i>
   <i type="logical" name="LVHAR"> F  </i>
   <i type="logical" name="LELF"> F  </i>
   <i type="logical" name="LOPTICS"> F  </i>
   <v name="STM">      0.00000000      0.00000000      0.00000000      0.00000000      0.00000000      0.00000000      0.00000000</v>
  </separator>
  <separator name="performance" >
   <i type="int" name="NPAR">    12</i>
   <i type="int" name="NSIM">     4</i>
   <i type="int" name="NBLK">    -1</i>
   <i type="logical" name="LPLANE"> T  </i>
   <i type="logical" name="LSCALAPACK"> T  </i>
   <i type="logical" name="LSCAAWARE"> T  </i>
   <i type="logical" name="LSCALU"> F  </i>
   <i type="logical" name="LASYNC"> F  </i>
   <i type="logical" name="LORBITALREAL"> F  </i>
  </separator>
  <separator name="miscellaneous" >
   <i type="int" name="IDIOT">     3</i>
   <i type="int" name="PHON_NSTRUCT">    -1</i>
   <i type="logical" name="LMUSIC"> F  </i>
   <v name="POMASS">     63.54600000     16.00000000</v>
   <v name="DARWINR">      0.00000000      0.00000000</v>
   <v name="DARWINV">      1.00000000      1.00000000</v>
   <i type="logical" name="LCORR"> T  </i>
  </separator>
  <i type="logical" name="GGA_COMPAT"> T  </i>
  <i type="logical" name="LBERRY"> F  </i>
  <i type="int" name="ICORELEVEL">     0</i>
  <i type="logical" name="LDAU"> F  </i>
  <i type="int" name="I_CONSTRAINED_M">     0</i>
  <separator name="electronic exchange-correlation" >
   <i type="string" name="GGA">PE</i>
   <i type="int" name="VOSKOWN">     0</i>
   <i type="logical" name="LHFCALC"> T  </i>
   <i type="string" name="PRECFOCK">fast</i>
   <i type="logical" name="LSYMGRAD"> F  </i>
   <i type="logical" name="LHFONE"> F  </i>
   <i type="logical" name="LRHFCALC"> F  </i>
   <i type="logical" name="LTHOMAS"> F  </i>
   <i type="logical" name="LMODELHF"> F  </i>
   <i type="logical" name="LFOCKACE"> T  </i>
   <i name="ENCUT4O">     -1.00000000</i>
   <i type="int" name="EXXOEP">     0</i>
   <i type="int" name="FOURORBIT">     0</i>
   <i name="AEXX">      0.25000000</i>
   <i name="HFALPHA">     -1.00000000</i>
   <i name="MCALPHA">      0.00000000</i>
   <i name="ALDAX">      0.75000000</i>
   <i name="AGGAX">      0.75000000</i>
   <i name="ALDAC">      1.00000000</i>
   <i name="AGGAC">      1.00000000</i>
   <i type="int" name="NKREDX">     1</i>
   <i type="int" name="NKREDY">     1</i>
   <i type="int" name="NKREDZ">     1</i>
   <i type="logical" name="SHIFTRED"> F  </i>
   <i type="logical" name="ODDONLY"> F  </i>
   <i type="logical" name="EVENONLY"> F  </i>
   <i type="int" name="LMAXFOCK">     4</i>
   <i type="int" name="NMAXFOCKAE">     1</i>
   <i type="logical" name="LFOCKAEDFT"> F  </i>
   <i name="HFSCREEN">      0.20000000</i>
   <i name="HFSCREENC">      0.20000000</i>
   <i type="int" name="NBANDSGWLOW">     1</i>
  </separator>
  <separator name="vdW DFT" >
   <i type="logical" name="LUSE_VDW"> F  </i>
   <i type="int" name="IVDW_NL">     1</i>
   <i type="logical" name="LSPIN_VDW"> F  </i>
   <i name="Zab_VDW">     -0.84910000</i>
   <i name="PARAM1">      0.12340000</i>
   <i name="PARAM2">      1.00000000</i>
   <i name="PARAM3">      0.00000000</i>
  </separator>
  <separator name="model GW" >
   <i type="int" name="MODEL_GW">     0</i>
   <i name="MODEL_EPS0">      7.65869083</i>
   <i name="MODEL_ALPHA">      1.00000000</i>
  </separator>
  <separator name="linear response parameters" >
   <i type="logical" name="LEPSILON"> F  </i>
   <i type="logical" name="LRPA"> F  </i>
   <i type="logical" name="LNABLA"> F  </i>
   <i type="logical" name="LVEL"> F  </i>
   <i name="CSHIFT">      0.10000000</i>
   <i name="OMEGAMAX">     -1.00000000</i>
   <i name="DEG_THRESHOLD">      0.00200000</i>
   <i name="RTIME">     -0.10000000</i>
   <i name="WPLASMAI">      0.00000000</i>
   <v name="DFIELD">      0.00000000      0.00000000      0.00000000</v>
   <v name="WPLASMA">      0.00000000      0.00000000      0.00000000      0.00000000      0.00000000      0.00000000      0.00000000      0.00000000      0.00000000</v>
  </separator>
  <separator name="orbital magnetization" >
   <i type="logical" name="NUCIND"> F  </i>
   <v name="MAGPOS">      0.00000000      0.00000000      0.00000000</v>
   <i type="logical" name="LNICSALL"> T  </i>
   <i type="logical" name="ORBITALMAG"> F  </i>
   <i type="logical" name="LMAGBLOCH"> F  </i>
   <i type="logical" name="LCHIMAG"> F  </i>
   <i type="logical" name="LGAUGE"> T  </i>
   <i type="int" name="MAGATOM">     0</i>
   <v name="MAGDIPOL">      0.00000000      0.00000000      0.00000000</v>
   <v name="AVECCONST">      0.00000000      0.00000000      0.00000000</v>
  </separator>
  <separator name="response functions" >
   <i type="logical" name="LALL_IN_ONE"> F  </i>
   <i type="int" name="IALL_IN_ONE">    -1</i>
   <i type="int" name="NBANDS_WAVE">    -1</i>
   <i type="logical" name="LFINITE_TEMPERATURE"> F  </i>
   <i type="logical" name="LADDER"> F  </i>
   <i type="logical" name="LRPAFORCE"> F  </i>
   <i type="logical" name="LFXC"> F  </i>
   <i type="logical" name="LHARTREE"> T  </i>
   <i type="int" name="IBSE">     0</i>
   <v type="int" name="KPOINT">    -1     0     0     0</v>
   <i type="logical" name="LTCTC"> F  </i>
   <i type="logical" name="LTCTE"> F  </i>
   <i type="logical" name="LTETE"> F  </i>
   <i type="logical" name="LTRIPLET"> F  </i>
   <i type="logical" name="LFXCEPS"> F  </i>
   <i type="logical" name="LFXHEG"> F  </i>
   <i type="int" name="NATURALO">     2</i>
   <i type="logical" name="LHOLEGF"> F  </i>
   <i type="logical" name="L2ORDER"> F  </i>
   <i type="logical" name="LDMP1"> F  </i>
   <i type="logical" name="LMP2LT"> F  </i>
   <i type="logical" name="LSMP2LT"> F  </i>
   <i type="logical" name="LGWLF"> F  </i>
   <i name="ENCUTGW">     -1.60000002</i>
   <i name="ENCUTGWSOFT">     -1.60000002</i>
   <i name="ENCUTLF">     -1.00000000</i>
   <i type="logical" name="LESF_SPLINES"> F  </i>
   <i type="int" name="LMAXMP2">    -1</i>
   <i name="SCISSOR">      0.00000000</i>
   <i type="int" name="NOMEGA">     0</i>
   <i type="int" name="NOMEGAR">     0</i>
   <i type="int" name="NBANDSGW">    -1</i>
   <i type="int" name="NBANDSO">    -1</i>
   <i type="int" name="NBANDSV">    -1</i>
   <i type="int" name="NELMGW">     1</i>
   <i type="int" name="NELMHF">     1</i>
   <i type="int" name="DIM">     3</i>
   <i type="int" name="IESPILON">     4</i>
   <i type="int" name="ANTIRES">     0</i>
   <i name="OMEGAMAX">    -30.00000000</i>
   <i name="OMEGAMIN">    -30.00000000</i>
   <i name="OMEGATL">   -200.00000000</i>
   <i type="int" name="OMEGAGRID">     0</i>
   <i name="CSHIFT">     -0.10000000</i>
   <i type="logical" name="LSELFENERGY"> F  </i>
   <i type="logical" name="LSPECTRAL"> F  </i>
   <i type="logical" name="LSPECTRALGW"> F  </i>
   <i type="logical" name="LSINGLES"> F  </i>
   <i type="logical" name="LFERMIGW"> F  </i>
   <i type="logical" name="ODDONLYGW"> F  </i>
   <i type="logical" name="EVENONLYGW"> F  </i>
   <i type="int" name="NKREDLFX">     1</i>
   <i type="int" name="NKREDLFY">     1</i>
   <i type="int" name="NKREDLFZ">     1</i>
   <i type="int" name="MAXMEM">  2800</i>
   <i type="int" name="TELESCOPE">     0</i>
   <i type="int" name="NTAUPAR">    -1</i>
   <i type="int" name="NOMEGAPAR">    -1</i>
   <i name="DAMP_NEWTON">      0.80000001</i>
   <i name="LAMBDA">      1.00000000</i>
  </separator>
  <separator name="External order field" >
   <i name="OFIELD_KAPPA">      0.00000000</i>
   <v name="OFIELD_K">      0.00000000      0.00000000      0.00000000</v>
   <i name="OFIELD_Q6_NEAR">      0.00000000</i>
   <i name="OFIELD_Q6_FAR">      0.00000000</i>
   <i name="OFIELD_A">      0.00000000</i>
  </separator>
  <separator name="optional k-points parameters" >
   <i type="int" name="KPOINTS_OPT_MODE">     1</i>
   <i type="logical" name="LKPOINTS_OPT"> F  </i>
  </separator>
 </parameters>
 <atominfo>
  <atoms>       6 </atoms>
  <types>       2 </types>
  <array name="atoms" >
   <dimension dim="1">ion</dimension>
   <field type="string">element</field>
   <field type="int">atomtype</field>
   <set>
    <rc><c>Cu</c><c>   1</c></rc>
    <rc><c>Cu</c><c>   1</c></rc>
    <rc><c>Cu</c><c>   1</c></rc>
    <rc><c>Cu</c><c>   1</c></rc>
    <rc><c>O </c><c>   2</c></rc>
    <rc><c>O </c><c>   2</c></rc>
   </set>
  </array>
  <array name="atomtypes" >
   <dimension dim="1">type</dimension>
   <field type="int">atomspertype</field>
   <field type="string">element</field>
   <field>mass</field>
   <field>valence</field>
   <field type="string">pseudopotential</field>
   <set>
    <rc><c>   4</c><c>Cu</c><c>     63.54600000</c><c>     11.00000000</c><c>  PAW_PBE Cu 22Jun2005                  </c></rc>
    <rc><c>   2</c><c>O </c><c>     16.00000000</c><c>      6.00000000</c><c>  PAW_PBE O 08Apr2002                   </c></rc>
   </set>
  </array>
 </atominfo>
 <structure name="initialpos" >
  <crystal>
   <varray name="basis" >
    <v>       4.24669932       0.00000000       0.00000000 </v>
    <v>      -0.00000000       4.24669932       0.00000000 </v>
    <v>       0.00000000       0.00000000       4.24669932 </v>
   </varray>
   <i name="volume">     76.58690827 </i>
   <varray name="rec_basis" >
    <v>       0.23547700       0.00000000       0.00000000 </v>
    <v>       0.00000000       0.23547700       0.00000000 </v>
    <v>      -0.00000000      -0.00000000       0.23547700 </v>
   </varray>
  </crystal>
  <varray name="positions" >
   <v>       0.50000000       0.50000000       0.00000000 </v>
   <v>       0.00000000       0.50000000       0.50000000 </v>
   <v>       0.50000000       0.00000000       0.50000000 </v>
   <v>       0.00000000       0.00000000       0.00000000 </v>
   <v>       0.75000000       0.75000000       0.75000000 </v>
   <v>       0.25000000       0.25000000       0.25000000 </v>
  </varray>
 </structure>
 <calculation>
  <scstep>
   <time name="dav">    0.22    0.57</time>
   <time name="total">    0.64    0.99</time>
   <energy>
    <i name="alphaZ">    228.31989324 </i>
    <i name="ewald">  -4565.41384850 </i>
    <i name="hartreedc">  -2003.93564795 </i>
    <i name="XCdc">    237.38328748 </i>
    <i name="pawpsdc">   5605.66536144 </i>
    <i name="pawaedc">  -7551.83646433 </i>
    <i name="eentropy">     -0.00000000 </i>
    <i name="bandstr">    454.48166073 </i>
    <i name="atom">   6412.99966844 </i>
    <i name="e_fr_energy">  -1182.33608946 </i>
    <i name="e_wo_entrp">  -1182.33608946 </i>
    <i name="e_0_energy">  -1182.33608946 </i>
   </energy>
  </scstep>
  <scstep>
   <time name="dav">    0.04    0.04</time>
   <time name="total">    0.04    0.04</time>
   <energy>
    <i name="e_fr_energy">  -1644.95377848 </i>
    <i name="e_wo_entrp">  -1644.95363712 </i>
    <i name="e_0_energy">  -1644.95370780 </i>
   </energy>
  </scstep>
  <scstep>
   <time name="dav">    0.04    0.05</time>
   <time name="total">    0.04    0.05</time>
   <energy>
    <i name="e_fr_energy">  -1717.68780243 </i>
    <i name="e_wo_entrp">  -1717.68780243 </i>
    <i name="e_0_energy">  -1717.68780243 </i>
   </energy>
  </scstep>
  <scstep>
   <time name="dav">    0.02    0.04</time>
   <time name="total">    0.02    0.04</time>
   <energy>
    <i name="e_fr_energy">  -1719.33135614 </i>
    <i name="e_wo_entrp">  -1719.33135614 </i>
    <i name="e_0_energy">  -1719.33135614 </i>
   </energy>
  </scstep>
  <scstep>
   <time name="dav">    0.20    0.29</time>
   <time name="total">    1.13    1.25</time>
   <energy>
    <i name="e_fr_energy">    -34.99082754 </i>
    <i name="e_wo_entrp">    -34.99082754 </i>
    <i name="e_0_energy">    -34.99082754 </i>
   </energy>
  </scstep>
  <scstep>
   <time name="dav">    0.05    0.05</time>
   <time name="total">    0.98    1.00</time>
   <energy>
    <i name="e_fr_energy">    -29.02251121 </i>
    <i name="e_wo_entrp">    -29.02251121 </i>
    <i name="e_0_energy">    -29.02251121 </i>
   </energy>
  </scstep>
  <scstep>
   <time name="dav">    0.06    0.06</time>
   <time name="total">    0.98    1.00</time>
   <energy>
    <i name="e_fr_energy">    -30.08049018 </i>
    <i name="e_wo_entrp">    -30.08049018 </i>
    <i name="e_0_energy">    -30.08049018 </i>
   </energy>
  </scstep>
  <scstep>
   <time name="dav">    0.06    0.06</time>
   <time name="total">    0.99    1.01</time>
   <energy>
    <i name="e_fr_energy">    -29.93430152 </i>
    <i name="e_wo_entrp">    -29.93430152 </i>
    <i name="e_0_energy">    -29.93430152 </i>
   </energy>
  </scstep>
  <scstep>
   <time name="dav">    0.05    0.05</time>
   <time name="total">    0.98    1.00</time>
   <energy>
    <i name="e_fr_energy">    -29.93526608 </i>
    <i name="e_wo_entrp">    -29.93526608 </i>
    <i name="e_0_energy">    -29.93526608 </i>
   </energy>
  </scstep>
  <scstep>
   <time name="dav">    0.06    0.06</time>
   <time name="total">    0.99    1.00</time>
   <energy>
    <i name="e_fr_energy">    -29.93734860 </i>
    <i name="e_wo_entrp">    -29.93734860 </i>
    <i name="e_0_energy">    -29.93734860 </i>
   </energy>
  </scstep>
  <scstep>
   <time name="dav">    0.05    0.05</time>
   <time name="total">    0.98    1.00</time>
   <energy>
    <i name="e_fr_energy">    -29.93694819 </i>
    <i name="e_wo_entrp">    -29.93694819 </i>
    <i name="e_0_energy">    -29.93694819 </i>
   </energy>
  </scstep>
  <scstep>
   <time name="dav">    0.06    0.06</time>
   <time name="total">    0.98    1.00</time>
   <energy>
    <i name="e_fr_energy">    -29.93750849 </i>
    <i name="e_wo_entrp">    -29.93750849 </i>
    <i name="e_0_energy">    -29.93750849 </i>
   </energy>
  </scstep>
  <scstep>
   <time name="dav">    0.06    0.06</time>
   <time name="total">    0.98    1.00</time>
   <energy>
    <i name="e_fr_energy">    -29.93771027 </i>
    <i name="e_wo_entrp">    -29.93771027 </i>
    <i name="e_0_energy">    -29.93771027 </i>
   </energy>
  </scstep>
  <scstep>
   <time name="dav">    0.06    0.07</time>
   <time name="total">    0.98    1.05</time>
   <energy>
    <i name="e_fr_energy">    -29.93780946 </i>
    <i name="e_wo_entrp">    -29.93780946 </i>
    <i name="e_0_energy">    -29.93780946 </i>
   </energy>
  </scstep>
  <scstep>
   <time name="dav">    0.06    0.06</time>
   <time name="total">    0.98    1.00</time>
   <energy>
    <i name="e_fr_energy">    -29.93786028 </i>
    <i name="e_wo_entrp">    -29.93786028 </i>
    <i name="e_0_energy">    -29.93786028 </i>
   </energy>
  </scstep>
  <scstep>
   <time name="dav">    0.05    0.05</time>
   <time name="total">    0.98    0.99</time>
   <energy>
    <i name="e_fr_energy">    -29.93788728 </i>
    <i name="e_wo_entrp">    -29.93788728 </i>
    <i name="e_0_energy">    -29.93788728 </i>
   </energy>
  </scstep>
  <scstep>
   <time name="dav">    0.05    0.05</time>
   <time name="total">    0.97    0.99</time>
   <energy>
    <i name="e_fr_energy">    -29.93790572 </i>
    <i name="e_wo_entrp">    -29.93790572 </i>
    <i name="e_0_energy">    -29.93790572 </i>
   </energy>
  </scstep>
  <scstep>
   <time name="dav">    0.05    0.05</time>
   <time name="total">    0.99    1.01</time>
   <energy>
    <i name="e_fr_energy">    -29.93792277 </i>
    <i name="e_wo_entrp">    -29.93792277 </i>
    <i name="e_0_energy">    -29.93792277 </i>
   </energy>
  </scstep>
  <scstep>
   <time name="dav">    0.05    0.05</time>
   <time name="total">    1.02    1.04</time>
   <energy>
    <i name="e_fr_energy">    -29.93794332 </i>
    <i name="e_wo_entrp">    -29.93794332 </i>
    <i name="e_0_energy">    -29.93794332 </i>
   </energy>
  </scstep>
  <scstep>
   <time name="dav">    0.06    0.06</time>
   <time name="total">    1.02    1.03</time>
   <energy>
    <i name="e_fr_energy">    -29.93797190 </i>
    <i name="e_wo_entrp">    -29.93797190 </i>
    <i name="e_0_energy">    -29.93797190 </i>
   </energy>
  </scstep>
  <scstep>
   <time name="dav">    0.05    0.05</time>
   <time name="total">    1.00    1.02</time>
   <energy>
    <i name="e_fr_energy">    -29.93801384 </i>
    <i name="e_wo_entrp">    -29.93801384 </i>
    <i name="e_0_energy">    -29.93801384 </i>
   </energy>
  </scstep>
  <scstep>
   <time name="dav">    0.05    0.05</time>
   <time name="total">    0.97    0.99</time>
   <energy>
    <i name="e_fr_energy">    -29.93807657 </i>
    <i name="e_wo_entrp">    -29.93807657 </i>
    <i name="e_0_energy">    -29.93807657 </i>
   </energy>
  </scstep>
  <scstep>
   <time name="dav">    0.05    0.06</time>
   <time name="total">    0.99    1.01</time>
   <energy>
    <i name="e_fr_energy">    -29.93817260 </i>
    <i name="e_wo_entrp">    -29.93817260 </i>
    <i name="e_0_energy">    -29.93817260 </i>
   </energy>
  </scstep>
  <scstep>
   <time name="dav">    0.06    0.06</time>
   <time name="total">    0.99    1.00</time>
   <energy>
    <i name="e_fr_energy">    -29.93831922 </i>
    <i name="e_wo_entrp">    -29.93831922 </i>
    <i name="e_0_energy">    -29.93831922 </i>
   </energy>
  </scstep>
  <scstep>
   <time name="dav">    0.06    0.06</time>
   <time name="total">    0.98    1.00</time>
   <energy>
    <i name="e_fr_energy">    -29.93854042 </i>
    <i name="e_wo_entrp">    -29.93854042 </i>
    <i name="e_0_energy">    -29.93854042 </i>
   </energy>
  </scstep>
  <scstep>
   <time name="dav">    0.05    0.05</time>
   <time name="total">    0.98    1.00</time>
   <energy>
    <i name="e_fr_energy">    -29.93887507 </i>
    <i name="e_wo_entrp">    -29.93887507 </i>
    <i name="e_0_energy">    -29.93887507 </i>
   </energy>
  </scstep>
  <scstep>
   <time name="dav">    0.06    0.06</time>
   <time name="total">    0.98    1.00</time>
   <energy>
    <i name="e_fr_energy">    -29.93938128 </i>
    <i name="e_wo_entrp">    -29.93938128 </i>
    <i name="e_0_energy">    -29.93938128 </i>
   </energy>
  </scstep>
  <scstep>
   <time name="dav">    0.05    0.05</time>
   <time name="total">    0.98    0.99</time>
   <energy>
    <i name="e_fr_energy">    -29.94014419 </i>
    <i name="e_wo_entrp">    -29.94014419 </i>
    <i name="e_0_energy">    -29.94014419 </i>
   </energy>
  </scstep>
  <scstep>
   <time name="dav">    0.06    0.06</time>
   <time name="total">    0.98    1.00</time>
   <energy>
    <i name="e_fr_energy">    -29.94128963 </i>
    <i name="e_wo_entrp">    -29.94128963 </i>
    <i name="e_0_energy">    -29.94128963 </i>
   </energy>
  </scstep>
  <scstep>
   <time name="dav">    0.05    0.05</time>
   <time name="total">    0.98    1.00</time>
   <energy>
    <i name="e_fr_energy">    -29.94299536 </i>
    <i name="e_wo_entrp">    -29.94299536 </i>
    <i name="e_0_energy">    -29.94299536 </i>
   </energy>
  </scstep>
  <scstep>
   <time name="dav">    0.06    0.06</time>
   <time name="total">    0.98    1.00</time>
   <energy>
    <i name="e_fr_energy">    -29.94551099 </i>
    <i name="e_wo_entrp">    -29.94551099 </i>
    <i name="e_0_energy">    -29.94551099 </i>
   </energy>
  </scstep>
  <scstep>
   <time name="dav">    0.05    0.05</time>
   <time name="total">    0.98    1.00</time>
   <energy>
    <i name="e_fr_energy">    -29.94915991 </i>
    <i name="e_wo_entrp">    -29.94915991 </i>
    <i name="e_0_energy">    -29.94915991 </i>
   </energy>
  </scstep>
  <scstep>
   <time name="dav">    0.06    0.06</time>
   <time name="total">    0.98    1.00</time>
   <energy>
    <i name="e_fr_energy">    -29.95433511 </i>
    <i name="e_wo_entrp">    -29.95433511 </i>
    <i name="e_0_energy">    -29.95433511 </i>
   </energy>
  </scstep>
  <scstep>
   <time name="dav">    0.06    0.06</time>
   <time name="total">    0.98    1.00</time>
   <energy>
    <i name="e_fr_energy">    -29.96145044 </i>
    <i name="e_wo_entrp">    -29.96145044 </i>
    <i name="e_0_energy">    -29.96145044 </i>
   </energy>
  </scstep>
  <scstep>
   <time name="dav">    0.06    0.06</time>
   <time name="total">    0.98    1.01</time>
   <energy>
    <i name="e_fr_energy">    -29.97076361 </i>
    <i name="e_wo_entrp">    -29.97076361 </i>
    <i name="e_0_energy">    -29.97076361 </i>
   </energy>
  </scstep>
  <scstep>
   <time name="dav">    0.06    0.06</time>
   <time name="total">    0.98    1.00</time>
   <energy>
    <i name="e_fr_energy">    -29.98226238 </i>
    <i name="e_wo_entrp">    -29.98226238 </i>
    <i name="e_0_energy">    -29.98226238 </i>
   </energy>
  </scstep>
  <scstep>
   <time name="dav">    0.06    0.06</time>
   <time name="total">    0.98    1.00</time>
   <energy>
    <i name="e_fr_energy">    -29.99534608 </i>
    <i name="e_wo_entrp">    -29.99534608 </i>
    <i name="e_0_energy">    -29.99534608 </i>
   </energy>
  </scstep>
  <scstep>
   <time name="dav">    0.06    0.06</time>
   <time name="total">    0.99    1.01</time>
   <energy>
    <i name="e_fr_energy">    -30.00886860 </i>
    <i name="e_wo_entrp">    -30.00886860 </i>
    <i name="e_0_energy">    -30.00886860 </i>
   </energy>
  </scstep>
  <scstep>
   <time name="dav">    0.06    0.06</time>
   <time name="total">    0.99    1.01</time>
   <energy>
    <i name="e_fr_energy">    -30.02146628 </i>
    <i name="e_wo_entrp">    -30.02146628 </i>
    <i name="e_0_energy">    -30.02146628 </i>
   </energy>
  </scstep>
  <scstep>
   <time name="dav">    0.06    0.06</time>
   <time name="total">    0.98    1.00</time>
   <energy>
    <i name="e_fr_energy">    -30.03188345 </i>
    <i name="e_wo_entrp">    -30.03188345 </i>
    <i name="e_0_energy">    -30.03188345 </i>
   </energy>
  </scstep>
  <scstep>
   <time name="dav">    0.06    0.06</time>
   <time name="total">    0.98    1.00</time>
   <energy>
    <i name="e_fr_energy">    -30.03965591 </i>
    <i name="e_wo_entrp">    -30.03965591 </i>
    <i name="e_0_energy">    -30.03965591 </i>
   </energy>
  </scstep>
  <scstep>
   <time name="dav">    0.07    0.07</time>
   <time name="total">    1.00    1.01</time>
   <energy>
    <i name="e_fr_energy">    -30.04494086 </i>
    <i name="e_wo_entrp">    -30.04494086 </i>
    <i name="e_0_energy">    -30.04494086 </i>
   </energy>
  </scstep>
  <scstep>
   <time name="dav">    0.06    0.06</time>
   <time name="total">    0.99    1.01</time>
   <energy>
    <i name="e_fr_energy">    -30.04827844 </i>
    <i name="e_wo_entrp">    -30.04827844 </i>
    <i name="e_0_energy">    -30.04827844 </i>
   </energy>
  </scstep>
  <scstep>
   <time name="dav">    0.07    0.07</time>
   <time name="total">    0.99    1.06</time>
   <energy>
    <i name="e_fr_energy">    -30.05033926 </i>
    <i name="e_wo_entrp">    -30.05033926 </i>
    <i name="e_0_energy">    -30.05033926 </i>
   </energy>
  </scstep>
  <scstep>
   <time name="dav">    0.06    0.06</time>
   <time name="total">    0.99    1.01</time>
   <energy>
    <i name="e_fr_energy">    -30.05166056 </i>
    <i name="e_wo_entrp">    -30.05166056 </i>
    <i name="e_0_energy">    -30.05166056 </i>
   </energy>
  </scstep>
  <scstep>
   <time name="dav">    0.06    0.06</time>
   <time name="total">    0.99    1.01</time>
   <energy>
    <i name="e_fr_energy">    -30.05260276 </i>
    <i name="e_wo_entrp">    -30.05260276 </i>
    <i name="e_0_energy">    -30.05260276 </i>
   </energy>
  </scstep>
  <scstep>
   <time name="dav">    0.06    0.06</time>
   <time name="total">    0.99    1.01</time>
   <energy>
    <i name="e_fr_energy">    -30.05337621 </i>
    <i name="e_wo_entrp">    -30.05337621 </i>
    <i name="e_0_energy">    -30.05337621 </i>
   </energy>
  </scstep>
  <scstep>
   <time name="dav">    0.06    0.06</time>
   <time name="total">    0.99    1.01</time>
   <energy>
    <i name="e_fr_energy">    -30.05410087 </i>
    <i name="e_wo_entrp">    -30.05410087 </i>
    <i name="e_0_energy">    -30.05410087 </i>
   </energy>
  </scstep>
  <scstep>
   <time name="dav">    0.05    0.05</time>
   <time name="total">    0.98    1.00</time>
   <energy>
    <i name="e_fr_energy">    -30.05482897 </i>
    <i name="e_wo_entrp">    -30.05482897 </i>
    <i name="e_0_energy">    -30.05482897 </i>
   </energy>
  </scstep>
  <scstep>
   <time name="dav">    0.07    0.07</time>
   <time name="total">    0.99    1.01</time>
   <energy>
    <i name="e_fr_energy">    -30.05558930 </i>
    <i name="e_wo_entrp">    -30.05558930 </i>
    <i name="e_0_energy">    -30.05558930 </i>
   </energy>
  </scstep>
  <scstep>
   <time name="dav">    0.06    0.06</time>
   <time name="total">    0.99    1.01</time>
   <energy>
    <i name="e_fr_energy">    -30.05638801 </i>
    <i name="e_wo_entrp">    -30.05638801 </i>
    <i name="e_0_energy">    -30.05638801 </i>
   </energy>
  </scstep>
  <scstep>
   <time name="dav">    0.07    0.07</time>
   <time name="total">    1.00    1.02</time>
   <energy>
    <i name="e_fr_energy">    -30.05722876 </i>
    <i name="e_wo_entrp">    -30.05722876 </i>
    <i name="e_0_energy">    -30.05722876 </i>
   </energy>
  </scstep>
  <scstep>
   <time name="dav">    0.06    0.06</time>
   <time name="total">    0.99    1.00</time>
   <energy>
    <i name="e_fr_energy">    -30.05810723 </i>
    <i name="e_wo_entrp">    -30.05810723 </i>
    <i name="e_0_energy">    -30.05810723 </i>
   </energy>
  </scstep>
  <scstep>
   <time name="dav">    0.06    0.06</time>
   <time name="total">    0.99    1.01</time>
   <energy>
    <i name="e_fr_energy">    -30.05901593 </i>
    <i name="e_wo_entrp">    -30.05901593 </i>
    <i name="e_0_energy">    -30.05901593 </i>
   </energy>
  </scstep>
  <scstep>
   <time name="dav">    0.06    0.06</time>
   <time name="total">    0.98    1.00</time>
   <energy>
    <i name="e_fr_energy">    -30.05994518 </i>
    <i name="e_wo_entrp">    -30.05994518 </i>
    <i name="e_0_energy">    -30.05994518 </i>
   </energy>
  </scstep>
  <scstep>
   <time name="dav">    0.07    0.07</time>
   <time name="total">    0.99    1.01</time>
   <energy>
    <i name="e_fr_energy">    -30.06088571 </i>
    <i name="e_wo_entrp">    -30.06088571 </i>
    <i name="e_0_energy">    -30.06088571 </i>
   </energy>
  </scstep>
  <scstep>
   <time name="dav">    0.07    0.07</time>
   <time name="total">    0.99    1.01</time>
   <energy>
    <i name="e_fr_energy">    -30.06182145 </i>
    <i name="e_wo_entrp">    -30.06182145 </i>
    <i name="e_0_energy">    -30.06182145 </i>
   </energy>
  </scstep>
  <scstep>
   <time name="dav">    0.07    0.07</time>
   <time name="total">    1.01    1.03</time>
   <energy>
    <i name="e_fr_energy">    -30.06274498 </i>
    <i name="e_wo_entrp">    -30.06274498 </i>
    <i name="e_0_energy">    -30.06274498 </i>
   </energy>
  </scstep>
  <scstep>
   <time name="dav">    0.07    0.07</time>
   <time name="total">    1.02    1.05</time>
   <energy>
    <i name="e_fr_energy">    -30.06364180 </i>
    <i name="e_wo_entrp">    -30.06364180 </i>
    <i name="e_0_energy">    -30.06364180 </i>
   </energy>
  </scstep>
  <scstep>
   <time name="dav">    0.07    0.07</time>
   <time name="total">    1.03    1.05</time>
   <energy>
    <i name="e_fr_energy">    -30.06450086 </i>
    <i name="e_wo_entrp">    -30.06450086 </i>
    <i name="e_0_energy">    -30.06450086 </i>
   </energy>
  </scstep>
  <scstep>
   <time name="dav">    0.06    0.06</time>
   <time name="total">    1.01    1.03</time>
   <energy>
    <i name="e_fr_energy">    -30.06531420 </i>
    <i name="e_wo_entrp">    -30.06531420 </i>
    <i name="e_0_energy">    -30.06531420 </i>
   </energy>
  </scstep>
  <scstep>
   <time name="dav">    0.07    0.07</time>
   <time name="total">    1.00    1.02</time>
   <energy>
    <i name="e_fr_energy">    -30.06607243 </i>
    <i name="e_wo_entrp">    -30.06607243 </i>
    <i name="e_0_energy">    -30.06607243 </i>
   </energy>
  </scstep>
  <scstep>
   <time name="dav">    0.06    0.06</time>
   <time name="total">    0.99    1.01</time>
   <energy>
    <i name="e_fr_energy">    -30.06677107 </i>
    <i name="e_wo_entrp">    -30.06677107 </i>
    <i name="e_0_energy">    -30.06677107 </i>
   </energy>
  </scstep>
  <scstep>
   <time name="dav">    0.06    0.06</time>
   <time name="total">    0.98    1.00</time>
   <energy>
    <i name="e_fr_energy">    -30.06740644 </i>
    <i name="e_wo_entrp">    -30.06740644 </i>
    <i name="e_0_energy">    -30.06740644 </i>
   </energy>
  </scstep>
  <scstep>
   <time name="dav">    0.06    0.06</time>
   <time name="total">    0.99    1.01</time>
   <energy>
    <i name="e_fr_energy">    -30.06797972 </i>
    <i name="e_wo_entrp">    -30.06797972 </i>
    <i name="e_0_energy">    -30.06797972 </i>
   </energy>
  </scstep>
  <scstep>
   <time name="dav">    0.06    0.06</time>
   <time name="total">    0.99    1.00</time>
   <energy>
    <i name="e_fr_energy">    -30.06848982 </i>
    <i name="e_wo_entrp">    -30.06848982 </i>
    <i name="e_0_energy">    -30.06848982 </i>
   </energy>
  </scstep>
  <scstep>
   <time name="dav">    0.06    0.06</time>
   <time name="total">    0.98    1.00</time>
   <energy>
    <i name="e_fr_energy">    -30.06893780 </i>
    <i name="e_wo_entrp">    -30.06893780 </i>
    <i name="e_0_energy">    -30.06893780 </i>
   </energy>
  </scstep>
  <scstep>
   <time name="dav">    0.06    0.06</time>
   <time name="total">    0.99    1.00</time>
   <energy>
    <i name="e_fr_energy">    -30.06933241 </i>
    <i name="e_wo_entrp">    -30.06933241 </i>
    <i name="e_0_energy">    -30.06933241 </i>
   </energy>
  </scstep>
  <scstep>
   <time name="dav">    0.06    0.16</time>
   <time name="total">    0.98    1.11</time>
   <energy>
    <i name="e_fr_energy">    -30.06967258 </i>
    <i name="e_wo_entrp">    -30.06967258 </i>
    <i name="e_0_energy">    -30.06967258 </i>
   </energy>
  </scstep>
  <scstep>
   <time name="dav">    0.06    0.06</time>
   <time name="total">    0.99    1.00</time>
   <energy>
    <i name="e_fr_energy">    -30.06996517 </i>
    <i name="e_wo_entrp">    -30.06996517 </i>
    <i name="e_0_energy">    -30.06996517 </i>
   </energy>
  </scstep>
  <scstep>
   <time name="dav">    0.06    0.06</time>
   <time name="total">    0.99    1.00</time>
   <energy>
    <i name="e_fr_energy">    -30.07021679 </i>
    <i name="e_wo_entrp">    -30.07021679 </i>
    <i name="e_0_energy">    -30.07021679 </i>
   </energy>
  </scstep>
  <scstep>
   <time name="dav">    0.08    0.08</time>
   <time name="total">    1.00    1.02</time>
   <energy>
    <i name="e_fr_energy">    -30.07043080 </i>
    <i name="e_wo_entrp">    -30.07043080 </i>
    <i name="e_0_energy">    -30.07043080 </i>
   </energy>
  </scstep>
  <scstep>
   <time name="dav">    0.06    0.06</time>
   <time name="total">    0.99    1.01</time>
   <energy>
    <i name="e_fr_energy">    -30.07061027 </i>
    <i name="e_wo_entrp">    -30.07061027 </i>
    <i name="e_0_energy">    -30.07061027 </i>
   </energy>
  </scstep>
  <scstep>
   <time name="dav">    0.06    0.07</time>
   <time name="total">    1.00    1.01</time>
   <energy>
    <i name="e_fr_energy">    -30.07076378 </i>
    <i name="e_wo_entrp">    -30.07076378 </i>
    <i name="e_0_energy">    -30.07076378 </i>
   </energy>
  </scstep>
  <scstep>
   <time name="dav">    0.06    0.06</time>
   <time name="total">    0.98    1.00</time>
   <energy>
    <i name="e_fr_energy">    -30.07089204 </i>
    <i name="e_wo_entrp">    -30.07089204 </i>
    <i name="e_0_energy">    -30.07089204 </i>
   </energy>
  </scstep>
  <scstep>
   <time name="dav">    0.06    0.06</time>
   <time name="total">    0.98    1.00</time>
   <energy>
    <i name="e_fr_energy">    -30.07099925 </i>
    <i name="e_wo_entrp">    -30.07099925 </i>
    <i name="e_0_energy">    -30.07099925 </i>
   </energy>
  </scstep>
  <scstep>
   <time name="dav">    0.06    0.06</time>
   <time name="total">    0.98    1.00</time>
   <energy>
    <i name="e_fr_energy">    -30.07108870 </i>
    <i name="e_wo_entrp">    -30.07108870 </i>
    <i name="e_0_energy">    -30.07108870 </i>
   </energy>
  </scstep>
  <scstep>
   <time name="dav">    0.06    0.06</time>
   <time name="total">    0.98    1.00</time>
   <energy>
    <i name="e_fr_energy">    -30.07116370 </i>
    <i name="e_wo_entrp">    -30.07116370 </i>
    <i name="e_0_energy">    -30.07116370 </i>
   </energy>
  </scstep>
  <scstep>
   <time name="dav">    0.06    0.06</time>
   <time name="total">    0.98    1.00</time>
   <energy>
    <i name="e_fr_energy">    -30.07122567 </i>
    <i name="e_wo_entrp">    -30.07122567 </i>
    <i name="e_0_energy">    -30.07122567 </i>
   </energy>
  </scstep>
  <scstep>
   <time name="dav">    0.06    0.06</time>
   <time name="total">    0.98    1.00</time>
   <energy>
    <i name="e_fr_energy">    -30.07127723 </i>
    <i name="e_wo_entrp">    -30.07127723 </i>
    <i name="e_0_energy">    -30.07127723 </i>
   </energy>
  </scstep>
  <scstep>
   <time name="dav">    0.05    0.05</time>
   <time name="total">    0.98    1.00</time>
   <energy>
    <i name="e_fr_energy">    -30.07131886 </i>
    <i name="e_wo_entrp">    -30.07131886 </i>
    <i name="e_0_energy">    -30.07131886 </i>
   </energy>
  </scstep>
  <scstep>
   <time name="dav">    0.05    0.05</time>
   <time name="total">    0.97    0.99</time>
   <energy>
    <i name="e_fr_energy">    -30.07135216 </i>
    <i name="e_wo_entrp">    -30.07135216 </i>
    <i name="e_0_energy">    -30.07135216 </i>
   </energy>
  </scstep>
  <scstep>
   <time name="dav">    0.05    0.05</time>
   <time name="total">    0.98    0.99</time>
   <energy>
    <i name="e_fr_energy">    -30.07137930 </i>
    <i name="e_wo_entrp">    -30.07137930 </i>
    <i name="e_0_energy">    -30.07137930 </i>
   </energy>
  </scstep>
  <scstep>
   <time name="dav">    0.06    0.06</time>
   <time name="total">    0.98    1.00</time>
   <energy>
    <i name="e_fr_energy">    -30.07140787 </i>
    <i name="e_wo_entrp">    -30.07140787 </i>
    <i name="e_0_energy">    -30.07140787 </i>
   </energy>
  </scstep>
  <scstep>
   <time name="dav">    0.05    0.05</time>
   <time name="total">    0.98    1.02</time>
   <energy>
    <i name="e_fr_energy">    -30.07142801 </i>
    <i name="e_wo_entrp">    -30.07142801 </i>
    <i name="e_0_energy">    -30.07142801 </i>
   </energy>
  </scstep>
  <scstep>
   <time name="dav">    0.05    0.05</time>
   <time name="total">    0.98    1.00</time>
   <energy>
    <i name="e_fr_energy">    -30.07144332 </i>
    <i name="e_wo_entrp">    -30.07144332 </i>
    <i name="e_0_energy">    -30.07144332 </i>
   </energy>
  </scstep>
  <scstep>
   <time name="dav">    0.05    0.05</time>
   <time name="total">    0.98    0.99</time>
   <energy>
    <i name="e_fr_energy">    -30.07145791 </i>
    <i name="e_wo_entrp">    -30.07145791 </i>
    <i name="e_0_energy">    -30.07145791 </i>
   </energy>
  </scstep>
  <scstep>
   <time name="dav">    0.05    0.05</time>
   <time name="total">    0.98    1.00</time>
   <energy>
    <i name="e_fr_energy">    -30.07146920 </i>
    <i name="e_wo_entrp">    -30.07146920 </i>
    <i name="e_0_energy">    -30.07146920 </i>
   </energy>
  </scstep>
  <scstep>
   <time name="dav">    0.07    0.07</time>
   <time name="total">    0.99    1.01</time>
   <energy>
    <i name="alphaZ">    228.31989324 </i>
    <i name="ewald">  -4565.41384850 </i>
    <i name="hartreedc">  -2002.03115989 </i>
    <i name="XCdc">    180.17549645 </i>
    <i name="pawpsdc">   6550.41315169 </i>
    <i name="pawaedc">  -6954.71607090 </i>
    <i name="eentropy">     -0.00000000 </i>
    <i name="bandstr">    -37.69193110 </i>
    <i name="atom">   6412.99966844 </i>
    <i name="e_fr_energy">    -30.07147826 </i>
    <i name="e_wo_entrp">    -30.07147826 </i>
    <i name="e_0_energy">    -30.07147826 </i>
   </energy>
  </scstep>
  <structure>
   <crystal>
    <varray name="basis" >
     <v>       4.24669932       0.00000000       0.00000000 </v>
     <v>      -0.00000000       4.24669932       0.00000000 </v>
     <v>       0.00000000       0.00000000       4.24669932 </v>
    </varray>
    <i name="volume">     76.58690827 </i>
    <varray name="rec_basis" >
     <v>       0.23547700       0.00000000       0.00000000 </v>
     <v>       0.00000000       0.23547700       0.00000000 </v>
     <v>      -0.00000000      -0.00000000       0.23547700 </v>
    </varray>
   </crystal>
   <varray name="positions" >
    <v>       0.50000000       0.50000000       0.00000000 </v>
    <v>       0.00000000       0.50000000       0.50000000 </v>
    <v>       0.50000000       0.00000000       0.50000000 </v>
    <v>       0.00000000       0.00000000       0.00000000 </v>
    <v>       0.75000000       0.75000000       0.75000000 </v>
    <v>       0.25000000       0.25000000       0.25000000 </v>
   </varray>
  </structure>
  <varray name="forces" >
   <v>      -0.00000000      -0.00000000      -0.00000000 </v>
   <v>      -0.00000000      -0.00000000      -0.00000000 </v>
   <v>      -0.00000000      -0.00000000      -0.00000000 </v>
   <v>      -0.00000000      -0.00000000      -0.00000000 </v>
   <v>       0.00000000       0.00000000      -0.00000000 </v>
   <v>       0.00000000       0.00000000       0.00000000 </v>
  </varray>
  <energy>
   <i name="e_fr_energy">    -30.07147826 </i>
   <i name="e_wo_entrp">    -30.07147826 </i>
   <i name="e_0_energy">    -30.07147826 </i>
  </energy>
  <time name="totalsc">   87.38   89.73</time>
  <eigenvalues>
   <array>
    <dimension dim="1">band</dimension>
    <dimension dim="2">kpoint</dimension>
    <dimension dim="3">spin</dimension>
    <field>eigene</field>
    <field>occ</field>
    <set>
     <set comment="spin 1">
      <set comment="kpoint 1">
       <r>  -16.9653    1.0000 </r>
       <r>  -16.1196    1.0000 </r>
       <r>   -3.4700    1.0000 </r>
       <r>   -3.4138    1.0000 </r>
       <r>   -3.3239    1.0000 </r>
       <r>   -1.2528    1.0000 </r>
       <r>   -0.3472    1.0000 </r>
       <r>   -0.3445    1.0000 </r>
       <r>   -0.3432    1.0000 </r>
       <r>   -0.0274    1.0000 </r>
       <r>   -0.0237    1.0000 </r>
       <r>    0.0409    1.0000 </r>
       <r>    0.3433    1.0000 </r>
       <r>    0.4631    1.0000 </r>
       <r>    0.9773    1.0000 </r>
       <r>    0.9786    1.0000 </r>
       <r>    1.1083    1.0000 </r>
       <r>    1.2524    1.0000 </r>
       <r>    1.2868    1.0000 </r>
       <r>    1.3233    1.0000 </r>
       <r>    1.3383    1.0000 </r>
       <r>    1.4795    1.0000 </r>
       <r>    1.5395    1.0000 </r>
       <r>    1.5788    1.0000 </r>
       <r>    1.6493    1.0000 </r>
       <r>    3.5614    1.0000 </r>
       <r>    3.5965    1.0000 </r>
       <r>    4.2681    1.0000 </r>
       <r>    6.6422    0.0000 </r>
       <r>    6.6831    0.0000 </r>
       <r>    6.8519    0.0000 </r>
       <r>   14.2524    0.0000 </r>
       <r>   14.3652    0.0000 </r>
       <r>   14.4406    0.0000 </r>
       <r>   14.9718    0.0000 </r>
       <r>   15.0886    0.0000 </r>
      </set>
     </set>
     <set comment="spin 2">
      <set comment="kpoint 1">
       <r>  -16.9653    1.0000 </r>
       <r>  -16.1196    1.0000 </r>
       <r>   -3.4698    1.0000 </r>
       <r>   -3.4139    1.0000 </r>
       <r>   -3.3239    1.0000 </r>
       <r>   -1.2528    1.0000 </r>
       <r>   -0.3469    1.0000 </r>
       <r>   -0.3450    1.0000 </r>
       <r>   -0.3431    1.0000 </r>
       <r>   -0.0273    1.0000 </r>
       <r>   -0.0236    1.0000 </r>
       <r>    0.0410    1.0000 </r>
       <r>    0.3433    1.0000 </r>
       <r>    0.4634    1.0000 </r>
       <r>    0.9773    1.0000 </r>
       <r>    0.9786    1.0000 </r>
       <r>    1.1086    1.0000 </r>
       <r>    1.2529    1.0000 </r>
       <r>    1.2872    1.0000 </r>
       <r>    1.3198    1.0000 </r>
       <r>    1.3402    1.0000 </r>
       <r>    1.4787    1.0000 </r>
       <r>    1.5403    1.0000 </r>
       <r>    1.5789    1.0000 </r>
       <r>    1.6491    1.0000 </r>
       <r>    3.5642    1.0000 </r>
       <r>    3.5938    1.0000 </r>
       <r>    4.2680    1.0000 </r>
       <r>    6.6422    0.0000 </r>
       <r>    6.6831    0.0000 </r>
       <r>    6.8519    0.0000 </r>
       <r>   14.2524    0.0000 </r>
       <r>   14.3651    0.0000 </r>
       <r>   14.4406    0.0000 </r>
       <r>   14.9718    0.0000 </r>
       <r>   15.0879    0.0000 </r>
      </set>
     </set>
    </set>
   </array>
  </eigenvalues>
  <separator name="orbital magnetization" >
   <v name="MAGDIPOLOUT">      0.00000000      0.00000000      0.00000000</v>
  </separator>
  <dos>
   <i name="efermi">      4.37988698 </i>
   <total>
    <array>
     <dimension dim="1">gridpoints</dimension>
     <dimension dim="2">spin</dimension>
     <field>energy</field>
     <field>total</field>
     <field>integrated</field>
     <set>
      <set comment="spin 1">
       <r>   -18.5680     0.0000     0.0000 </r>
       <r>   -18.4505     0.0000     0.0000 </r>
       <r>   -18.3330     0.0000     0.0000 </r>
       <r>   -18.2154     0.0000     0.0000 </r>
       <r>   -18.0979     0.0000     0.0000 </r>
       <r>   -17.9804     0.0000     0.0000 </r>
       <r>   -17.8629     0.0000     0.0000 </r>
       <r>   -17.7453     0.0000     0.0000 </r>
       <r>   -17.6278     0.0000     0.0000 </r>
       <r>   -17.5103     0.0000     0.0000 </r>
       <r>   -17.3927     0.0000     0.0000 </r>
       <r>   -17.2752     0.0000     0.0000 </r>
       <r>   -17.1577     0.0000     0.0000 </r>
       <r>   -17.0401     0.0000     0.0000 </r>
       <r>   -16.9226     8.5084     1.0000 </r>
       <r>   -16.8051     0.0000     1.0000 </r>
       <r>   -16.6875     0.0000     1.0000 </r>
       <r>   -16.5700     0.0000     1.0000 </r>
       <r>   -16.4525     0.0000     1.0000 </r>
       <r>   -16.3350     0.0000     1.0000 </r>
       <r>   -16.2174     0.0000     1.0000 </r>
       <r>   -16.0999     8.4857     1.9973 </r>
       <r>   -15.9824     0.0000     2.0000 </r>
       <r>   -15.8648     0.0000     2.0000 </r>
       <r>   -15.7473     0.0000     2.0000 </r>
       <r>   -15.6298     0.0000     2.0000 </r>
       <r>   -15.5122     0.0000     2.0000 </r>
       <r>   -15.3947     0.0000     2.0000 </r>
       <r>   -15.2772     0.0000     2.0000 </r>
       <r>   -15.1596     0.0000     2.0000 </r>
       <r>   -15.0421     0.0000     2.0000 </r>
       <r>   -14.9246     0.0000     2.0000 </r>
       <r>   -14.8070     0.0000     2.0000 </r>
       <r>   -14.6895     0.0000     2.0000 </r>
       <r>   -14.5720     0.0000     2.0000 </r>
       <r>   -14.4545     0.0000     2.0000 </r>
       <r>   -14.3369     0.0000     2.0000 </r>
       <r>   -14.2194     0.0000     2.0000 </r>
       <r>   -14.1019     0.0000     2.0000 </r>
       <r>   -13.9843     0.0000     2.0000 </r>
       <r>   -13.8668     0.0000     2.0000 </r>
       <r>   -13.7493     0.0000     2.0000 </r>
       <r>   -13.6317     0.0000     2.0000 </r>
       <r>   -13.5142     0.0000     2.0000 </r>
       <r>   -13.3967     0.0000     2.0000 </r>
       <r>   -13.2791     0.0000     2.0000 </r>
       <r>   -13.1616     0.0000     2.0000 </r>
       <r>   -13.0441     0.0000     2.0000 </r>
       <r>   -12.9266     0.0000     2.0000 </r>
       <r>   -12.8090     0.0000     2.0000 </r>
       <r>   -12.6915     0.0000     2.0000 </r>
       <r>   -12.5740     0.0000     2.0000 </r>
       <r>   -12.4564     0.0000     2.0000 </r>
       <r>   -12.3389     0.0000     2.0000 </r>
       <r>   -12.2214     0.0000     2.0000 </r>
       <r>   -12.1038     0.0000     2.0000 </r>
       <r>   -11.9863     0.0000     2.0000 </r>
       <r>   -11.8688     0.0000     2.0000 </r>
       <r>   -11.7512     0.0000     2.0000 </r>
       <r>   -11.6337     0.0000     2.0000 </r>
       <r>   -11.5162     0.0000     2.0000 </r>
       <r>   -11.3986     0.0000     2.0000 </r>
       <r>   -11.2811     0.0000     2.0000 </r>
       <r>   -11.1636     0.0000     2.0000 </r>
       <r>   -11.0461     0.0000     2.0000 </r>
       <r>   -10.9285     0.0000     2.0000 </r>
       <r>   -10.8110     0.0000     2.0000 </r>
       <r>   -10.6935     0.0000     2.0000 </r>
       <r>   -10.5759     0.0000     2.0000 </r>
       <r>   -10.4584     0.0000     2.0000 </r>
       <r>   -10.3409     0.0000     2.0000 </r>
       <r>   -10.2233     0.0000     2.0000 </r>
       <r>   -10.1058     0.0000     2.0000 </r>
       <r>    -9.9883     0.0000     2.0000 </r>
       <r>    -9.8707     0.0000     2.0000 </r>
       <r>    -9.7532     0.0000     2.0000 </r>
       <r>    -9.6357     0.0000     2.0000 </r>
       <r>    -9.5182     0.0000     2.0000 </r>
       <r>    -9.4006     0.0000     2.0000 </r>
       <r>    -9.2831     0.0000     2.0000 </r>
       <r>    -9.1656     0.0000     2.0000 </r>
       <r>    -9.0480     0.0000     2.0000 </r>
       <r>    -8.9305     0.0000     2.0000 </r>
       <r>    -8.8130     0.0000     2.0000 </r>
       <r>    -8.6954     0.0000     2.0000 </r>
       <r>    -8.5779     0.0000     2.0000 </r>
       <r>    -8.4604     0.0000     2.0000 </r>
       <r>    -8.3428     0.0000     2.0000 </r>
       <r>    -8.2253     0.0000     2.0000 </r>
       <r>    -8.1078     0.0000     2.0000 </r>
       <r>    -7.9903     0.0000     2.0000 </r>
       <r>    -7.8727     0.0000     2.0000 </r>
       <r>    -7.7552     0.0000     2.0000 </r>
       <r>    -7.6377     0.0000     2.0000 </r>
       <r>    -7.5201     0.0000     2.0000 </r>
       <r>    -7.4026     0.0000     2.0000 </r>
       <r>    -7.2851     0.0000     2.0000 </r>
       <r>    -7.1675     0.0000     2.0000 </r>
       <r>    -7.0500     0.0000     2.0000 </r>
       <r>    -6.9325     0.0000     2.0000 </r>
       <r>    -6.8149     0.0000     2.0000 </r>
       <r>    -6.6974     0.0000     2.0000 </r>
       <r>    -6.5799     0.0000     2.0000 </r>
       <r>    -6.4623     0.0000     2.0000 </r>
       <r>    -6.3448     0.0000     2.0000 </r>
       <r>    -6.2273     0.0000     2.0000 </r>
       <r>    -6.1098     0.0000     2.0000 </r>
       <r>    -5.9922     0.0000     2.0000 </r>
       <r>    -5.8747     0.0000     2.0000 </r>
       <r>    -5.7572     0.0000     2.0000 </r>
       <r>    -5.6396     0.0000     2.0000 </r>
       <r>    -5.5221     0.0000     2.0000 </r>
       <r>    -5.4046     0.0000     2.0000 </r>
       <r>    -5.2870     0.0000     2.0000 </r>
       <r>    -5.1695     0.0000     2.0000 </r>
       <r>    -5.0520     0.0000     2.0000 </r>
       <r>    -4.9344     0.0000     2.0000 </r>
       <r>    -4.8169     0.0000     2.0000 </r>
       <r>    -4.6994     0.0000     2.0000 </r>
       <r>    -4.5819     0.0000     2.0000 </r>
       <r>    -4.4643     0.0000     2.0000 </r>
       <r>    -4.3468     0.0000     2.0000 </r>
       <r>    -4.2293     0.0000     2.0000 </r>
       <r>    -4.1117     0.0000     2.0000 </r>
       <r>    -3.9942     0.0000     2.0000 </r>
       <r>    -3.8767     0.0000     2.0000 </r>
       <r>    -3.7591     0.0000     2.0000 </r>
       <r>    -3.6416     0.0000     2.0000 </r>
       <r>    -3.5241     0.0000     2.0000 </r>
       <r>    -3.4065    15.7095     3.8464 </r>
       <r>    -3.2890     8.5084     5.0000 </r>
       <r>    -3.1715     0.0000     5.0000 </r>
       <r>    -3.0539     0.0000     5.0000 </r>
       <r>    -2.9364     0.0000     5.0000 </r>
       <r>    -2.8189     0.0000     5.0000 </r>
       <r>    -2.7014     0.0000     5.0000 </r>
       <r>    -2.5838     0.0000     5.0000 </r>
       <r>    -2.4663     0.0000     5.0000 </r>
       <r>    -2.3488     0.0000     5.0000 </r>
       <r>    -2.2312     0.0000     5.0000 </r>
       <r>    -2.1137     0.0000     5.0000 </r>
       <r>    -1.9962     0.0000     5.0000 </r>
       <r>    -1.8786     0.0000     5.0000 </r>
       <r>    -1.7611     0.0000     5.0000 </r>
       <r>    -1.6436     0.0000     5.0000 </r>
       <r>    -1.5260     0.0000     5.0000 </r>
       <r>    -1.4085     0.0000     5.0000 </r>
       <r>    -1.2910     0.0000     5.0000 </r>
       <r>    -1.1735     8.5084     6.0000 </r>
       <r>    -1.0559     0.0000     6.0000 </r>
       <r>    -0.9384     0.0000     6.0000 </r>
       <r>    -0.8209     0.0000     6.0000 </r>
       <r>    -0.7033     0.0000     6.0000 </r>
       <r>    -0.5858     0.0000     6.0000 </r>
       <r>    -0.4683     0.0000     6.0000 </r>
       <r>    -0.3507     5.4880     6.6450 </r>
       <r>    -0.2332     0.0000     9.0000 </r>
       <r>    -0.1157     0.0000     9.0000 </r>
       <r>     0.0019    17.0153    10.9998 </r>
       <r>     0.1194     8.5084    12.0000 </r>
       <r>     0.2369     0.0000    12.0000 </r>
       <r>     0.3545     8.0175    12.9423 </r>
       <r>     0.4720     7.6123    13.8947 </r>
       <r>     0.5895     0.0000    14.0000 </r>
       <r>     0.7070     0.0000    14.0000 </r>
       <r>     0.8246     0.0000    14.0000 </r>
       <r>     0.9421     0.0000    14.0000 </r>
       <r>     1.0596     0.0000    16.0000 </r>
       <r>     1.1772     8.5084    17.0000 </r>
       <r>     1.2947    15.9025    18.8690 </r>
       <r>     1.4122     8.5084    21.0000 </r>
       <r>     1.5298     9.2187    22.0835 </r>
       <r>     1.6473    11.7906    24.3858 </r>
       <r>     1.7648     0.0000    25.0000 </r>
       <r>     1.8824     0.0000    25.0000 </r>
       <r>     1.9999     0.0000    25.0000 </r>
       <r>     2.1174     0.0000    25.0000 </r>
       <r>     2.2349     0.0000    25.0000 </r>
       <r>     2.3525     0.0000    25.0000 </r>
       <r>     2.4700     0.0000    25.0000 </r>
       <r>     2.5875     0.0000    25.0000 </r>
       <r>     2.7051     0.0000    25.0000 </r>
       <r>     2.8226     0.0000    25.0000 </r>
       <r>     2.9401     0.0000    25.0000 </r>
       <r>     3.0577     0.0000    25.0000 </r>
       <r>     3.1752     0.0000    25.0000 </r>
       <r>     3.2927     0.0000    25.0000 </r>
       <r>     3.4103     0.0000    25.0000 </r>
       <r>     3.5278     0.0000    25.0000 </r>
       <r>     3.6453     8.5084    27.0000 </r>
       <r>     3.7628     0.0000    27.0000 </r>
       <r>     3.8804     0.0000    27.0000 </r>
       <r>     3.9979     0.0000    27.0000 </r>
       <r>     4.1154     0.0000    27.0000 </r>
       <r>     4.2330     0.0000    27.0000 </r>
       <r>     4.3505     0.0000    28.0000 </r>
       <r>     4.4680     0.0000    28.0000 </r>
       <r>     4.5856     0.0000    28.0000 </r>
       <r>     4.7031     0.0000    28.0000 </r>
       <r>     4.8206     0.0000    28.0000 </r>
       <r>     4.9382     0.0000    28.0000 </r>
       <r>     5.0557     0.0000    28.0000 </r>
       <r>     5.1732     0.0000    28.0000 </r>
       <r>     5.2908     0.0000    28.0000 </r>
       <r>     5.4083     0.0000    28.0000 </r>
       <r>     5.5258     0.0000    28.0000 </r>
       <r>     5.6433     0.0000    28.0000 </r>
       <r>     5.7609     0.0000    28.0000 </r>
       <r>     5.8784     0.0000    28.0000 </r>
       <r>     5.9959     0.0000    28.0000 </r>
       <r>     6.1135     0.0000    28.0000 </r>
       <r>     6.2310     0.0000    28.0000 </r>
       <r>     6.3485     0.0000    28.0000 </r>
       <r>     6.4661     0.0000    28.0000 </r>
       <r>     6.5836     0.0000    28.0000 </r>
       <r>     6.7011    16.9706    29.9946 </r>
       <r>     6.8187     0.0000    30.0000 </r>
       <r>     6.9362     0.0000    31.0000 </r>
       <r>     7.0537     0.0000    31.0000 </r>
       <r>     7.1712     0.0000    31.0000 </r>
       <r>     7.2888     0.0000    31.0000 </r>
       <r>     7.4063     0.0000    31.0000 </r>
       <r>     7.5238     0.0000    31.0000 </r>
       <r>     7.6414     0.0000    31.0000 </r>
       <r>     7.7589     0.0000    31.0000 </r>
       <r>     7.8764     0.0000    31.0000 </r>
       <r>     7.9940     0.0000    31.0000 </r>
       <r>     8.1115     0.0000    31.0000 </r>
       <r>     8.2290     0.0000    31.0000 </r>
       <r>     8.3466     0.0000    31.0000 </r>
       <r>     8.4641     0.0000    31.0000 </r>
       <r>     8.5816     0.0000    31.0000 </r>
       <r>     8.6992     0.0000    31.0000 </r>
       <r>     8.8167     0.0000    31.0000 </r>
       <r>     8.9342     0.0000    31.0000 </r>
       <r>     9.0517     0.0000    31.0000 </r>
       <r>     9.1693     0.0000    31.0000 </r>
       <r>     9.2868     0.0000    31.0000 </r>
       <r>     9.4043     0.0000    31.0000 </r>
       <r>     9.5219     0.0000    31.0000 </r>
       <r>     9.6394     0.0000    31.0000 </r>
       <r>     9.7569     0.0000    31.0000 </r>
       <r>     9.8745     0.0000    31.0000 </r>
       <r>     9.9920     0.0000    31.0000 </r>
       <r>    10.1095     0.0000    31.0000 </r>
       <r>    10.2271     0.0000    31.0000 </r>
       <r>    10.3446     0.0000    31.0000 </r>
       <r>    10.4621     0.0000    31.0000 </r>
       <r>    10.5796     0.0000    31.0000 </r>
       <r>    10.6972     0.0000    31.0000 </r>
       <r>    10.8147     0.0000    31.0000 </r>
       <r>    10.9322     0.0000    31.0000 </r>
       <r>    11.0498     0.0000    31.0000 </r>
       <r>    11.1673     0.0000    31.0000 </r>
       <r>    11.2848     0.0000    31.0000 </r>
       <r>    11.4024     0.0000    31.0000 </r>
       <r>    11.5199     0.0000    31.0000 </r>
       <r>    11.6374     0.0000    31.0000 </r>
       <r>    11.7550     0.0000    31.0000 </r>
       <r>    11.8725     0.0000    31.0000 </r>
       <r>    11.9900     0.0000    31.0000 </r>
       <r>    12.1076     0.0000    31.0000 </r>
       <r>    12.2251     0.0000    31.0000 </r>
       <r>    12.3426     0.0000    31.0000 </r>
       <r>    12.4601     0.0000    31.0000 </r>
       <r>    12.5777     0.0000    31.0000 </r>
       <r>    12.6952     0.0000    31.0000 </r>
       <r>    12.8127     0.0000    31.0000 </r>
       <r>    12.9303     0.0000    31.0000 </r>
       <r>    13.0478     0.0000    31.0000 </r>
       <r>    13.1653     0.0000    31.0000 </r>
       <r>    13.2829     0.0000    31.0000 </r>
       <r>    13.4004     0.0000    31.0000 </r>
       <r>    13.5179     0.0000    31.0000 </r>
       <r>    13.6355     0.0000    31.0000 </r>
       <r>    13.7530     0.0000    31.0000 </r>
       <r>    13.8705     0.0000    31.0000 </r>
       <r>    13.9880     0.0000    31.0000 </r>
       <r>    14.1056     0.0000    31.0000 </r>
       <r>    14.2231     0.0001    31.0000 </r>
       <r>    14.3406     0.0022    32.0003 </r>
       <r>    14.4582     8.4522    33.9934 </r>
       <r>    14.5757     0.0000    34.0000 </r>
       <r>    14.6932     0.0000    34.0000 </r>
       <r>    14.8108     0.0000    34.0000 </r>
       <r>    14.9283     0.0000    34.0000 </r>
       <r>    15.0458     8.5084    35.0000 </r>
       <r>    15.1634     8.5084    36.0000 </r>
       <r>    15.2809     0.0000    36.0000 </r>
       <r>    15.3984     0.0000    36.0000 </r>
       <r>    15.5159     0.0000    36.0000 </r>
       <r>    15.6335     0.0000    36.0000 </r>
       <r>    15.7510     0.0000    36.0000 </r>
       <r>    15.8685     0.0000    36.0000 </r>
       <r>    15.9861     0.0000    36.0000 </r>
       <r>    16.1036     0.0000    36.0000 </r>
       <r>    16.2211     0.0000    36.0000 </r>
       <r>    16.3387     0.0000    36.0000 </r>
       <r>    16.4562     0.0000    36.0000 </r>
       <r>    16.5737     0.0000    36.0000 </r>
       <r>    16.6913     0.0000    36.0000 </r>
      </set>
      <set comment="spin 2">
       <r>   -18.5680     0.0000     0.0000 </r>
       <r>   -18.4505     0.0000     0.0000 </r>
       <r>   -18.3330     0.0000     0.0000 </r>
       <r>   -18.2154     0.0000     0.0000 </r>
       <r>   -18.0979     0.0000     0.0000 </r>
       <r>   -17.9804     0.0000     0.0000 </r>
       <r>   -17.8629     0.0000     0.0000 </r>
       <r>   -17.7453     0.0000     0.0000 </r>
       <r>   -17.6278     0.0000     0.0000 </r>
       <r>   -17.5103     0.0000     0.0000 </r>
       <r>   -17.3927     0.0000     0.0000 </r>
       <r>   -17.2752     0.0000     0.0000 </r>
       <r>   -17.1577     0.0000     0.0000 </r>
       <r>   -17.0401     0.0000     0.0000 </r>
       <r>   -16.9226     8.5084     1.0000 </r>
       <r>   -16.8051     0.0000     1.0000 </r>
       <r>   -16.6875     0.0000     1.0000 </r>
       <r>   -16.5700     0.0000     1.0000 </r>
       <r>   -16.4525     0.0000     1.0000 </r>
       <r>   -16.3350     0.0000     1.0000 </r>
       <r>   -16.2174     0.0000     1.0000 </r>
       <r>   -16.0999     8.4857     1.9973 </r>
       <r>   -15.9824     0.0000     2.0000 </r>
       <r>   -15.8648     0.0000     2.0000 </r>
       <r>   -15.7473     0.0000     2.0000 </r>
       <r>   -15.6298     0.0000     2.0000 </r>
       <r>   -15.5122     0.0000     2.0000 </r>
       <r>   -15.3947     0.0000     2.0000 </r>
       <r>   -15.2772     0.0000     2.0000 </r>
       <r>   -15.1596     0.0000     2.0000 </r>
       <r>   -15.0421     0.0000     2.0000 </r>
       <r>   -14.9246     0.0000     2.0000 </r>
       <r>   -14.8070     0.0000     2.0000 </r>
       <r>   -14.6895     0.0000     2.0000 </r>
       <r>   -14.5720     0.0000     2.0000 </r>
       <r>   -14.4545     0.0000     2.0000 </r>
       <r>   -14.3369     0.0000     2.0000 </r>
       <r>   -14.2194     0.0000     2.0000 </r>
       <r>   -14.1019     0.0000     2.0000 </r>
       <r>   -13.9843     0.0000     2.0000 </r>
       <r>   -13.8668     0.0000     2.0000 </r>
       <r>   -13.7493     0.0000     2.0000 </r>
       <r>   -13.6317     0.0000     2.0000 </r>
       <r>   -13.5142     0.0000     2.0000 </r>
       <r>   -13.3967     0.0000     2.0000 </r>
       <r>   -13.2791     0.0000     2.0000 </r>
       <r>   -13.1616     0.0000     2.0000 </r>
       <r>   -13.0441     0.0000     2.0000 </r>
       <r>   -12.9266     0.0000     2.0000 </r>
       <r>   -12.8090     0.0000     2.0000 </r>
       <r>   -12.6915     0.0000     2.0000 </r>
       <r>   -12.5740     0.0000     2.0000 </r>
       <r>   -12.4564     0.0000     2.0000 </r>
       <r>   -12.3389     0.0000     2.0000 </r>
       <r>   -12.2214     0.0000     2.0000 </r>
       <r>   -12.1038     0.0000     2.0000 </r>
       <r>   -11.9863     0.0000     2.0000 </r>
       <r>   -11.8688     0.0000     2.0000 </r>
       <r>   -11.7512     0.0000     2.0000 </r>
       <r>   -11.6337     0.0000     2.0000 </r>
       <r>   -11.5162     0.0000     2.0000 </r>
       <r>   -11.3986     0.0000     2.0000 </r>
       <r>   -11.2811     0.0000     2.0000 </r>
       <r>   -11.1636     0.0000     2.0000 </r>
       <r>   -11.0461     0.0000     2.0000 </r>
       <r>   -10.9285     0.0000     2.0000 </r>
       <r>   -10.8110     0.0000     2.0000 </r>
       <r>   -10.6935     0.0000     2.0000 </r>
       <r>   -10.5759     0.0000     2.0000 </r>
       <r>   -10.4584     0.0000     2.0000 </r>
       <r>   -10.3409     0.0000     2.0000 </r>
       <r>   -10.2233     0.0000     2.0000 </r>
       <r>   -10.1058     0.0000     2.0000 </r>
       <r>    -9.9883     0.0000     2.0000 </r>
       <r>    -9.8707     0.0000     2.0000 </r>
       <r>    -9.7532     0.0000     2.0000 </r>
       <r>    -9.6357     0.0000     2.0000 </r>
       <r>    -9.5182     0.0000     2.0000 </r>
       <r>    -9.4006     0.0000     2.0000 </r>
       <r>    -9.2831     0.0000     2.0000 </r>
       <r>    -9.1656     0.0000     2.0000 </r>
       <r>    -9.0480     0.0000     2.0000 </r>
       <r>    -8.9305     0.0000     2.0000 </r>
       <r>    -8.8130     0.0000     2.0000 </r>
       <r>    -8.6954     0.0000     2.0000 </r>
       <r>    -8.5779     0.0000     2.0000 </r>
       <r>    -8.4604     0.0000     2.0000 </r>
       <r>    -8.3428     0.0000     2.0000 </r>
       <r>    -8.2253     0.0000     2.0000 </r>
       <r>    -8.1078     0.0000     2.0000 </r>
       <r>    -7.9903     0.0000     2.0000 </r>
       <r>    -7.8727     0.0000     2.0000 </r>
       <r>    -7.7552     0.0000     2.0000 </r>
       <r>    -7.6377     0.0000     2.0000 </r>
       <r>    -7.5201     0.0000     2.0000 </r>
       <r>    -7.4026     0.0000     2.0000 </r>
       <r>    -7.2851     0.0000     2.0000 </r>
       <r>    -7.1675     0.0000     2.0000 </r>
       <r>    -7.0500     0.0000     2.0000 </r>
       <r>    -6.9325     0.0000     2.0000 </r>
       <r>    -6.8149     0.0000     2.0000 </r>
       <r>    -6.6974     0.0000     2.0000 </r>
       <r>    -6.5799     0.0000     2.0000 </r>
       <r>    -6.4623     0.0000     2.0000 </r>
       <r>    -6.3448     0.0000     2.0000 </r>
       <r>    -6.2273     0.0000     2.0000 </r>
       <r>    -6.1098     0.0000     2.0000 </r>
       <r>    -5.9922     0.0000     2.0000 </r>
       <r>    -5.8747     0.0000     2.0000 </r>
       <r>    -5.7572     0.0000     2.0000 </r>
       <r>    -5.6396     0.0000     2.0000 </r>
       <r>    -5.5221     0.0000     2.0000 </r>
       <r>    -5.4046     0.0000     2.0000 </r>
       <r>    -5.2870     0.0000     2.0000 </r>
       <r>    -5.1695     0.0000     2.0000 </r>
       <r>    -5.0520     0.0000     2.0000 </r>
       <r>    -4.9344     0.0000     2.0000 </r>
       <r>    -4.8169     0.0000     2.0000 </r>
       <r>    -4.6994     0.0000     2.0000 </r>
       <r>    -4.5819     0.0000     2.0000 </r>
       <r>    -4.4643     0.0000     2.0000 </r>
       <r>    -4.3468     0.0000     2.0000 </r>
       <r>    -4.2293     0.0000     2.0000 </r>
       <r>    -4.1117     0.0000     2.0000 </r>
       <r>    -3.9942     0.0000     2.0000 </r>
       <r>    -3.8767     0.0000     2.0000 </r>
       <r>    -3.7591     0.0000     2.0000 </r>
       <r>    -3.6416     0.0000     2.0000 </r>
       <r>    -3.5241     0.0000     2.0000 </r>
       <r>    -3.4065    15.7523     3.8514 </r>
       <r>    -3.2890     8.5084     5.0000 </r>
       <r>    -3.1715     0.0000     5.0000 </r>
       <r>    -3.0539     0.0000     5.0000 </r>
       <r>    -2.9364     0.0000     5.0000 </r>
       <r>    -2.8189     0.0000     5.0000 </r>
       <r>    -2.7014     0.0000     5.0000 </r>
       <r>    -2.5838     0.0000     5.0000 </r>
       <r>    -2.4663     0.0000     5.0000 </r>
       <r>    -2.3488     0.0000     5.0000 </r>
       <r>    -2.2312     0.0000     5.0000 </r>
       <r>    -2.1137     0.0000     5.0000 </r>
       <r>    -1.9962     0.0000     5.0000 </r>
       <r>    -1.8786     0.0000     5.0000 </r>
       <r>    -1.7611     0.0000     5.0000 </r>
       <r>    -1.6436     0.0000     5.0000 </r>
       <r>    -1.5260     0.0000     5.0000 </r>
       <r>    -1.4085     0.0000     5.0000 </r>
       <r>    -1.2910     0.0000     5.0000 </r>
       <r>    -1.1735     8.5084     6.0000 </r>
       <r>    -1.0559     0.0000     6.0000 </r>
       <r>    -0.9384     0.0000     6.0000 </r>
       <r>    -0.8209     0.0000     6.0000 </r>
       <r>    -0.7033     0.0000     6.0000 </r>
       <r>    -0.5858     0.0000     6.0000 </r>
       <r>    -0.4683     0.0000     6.0000 </r>
       <r>    -0.3507     5.4709     6.6430 </r>
       <r>    -0.2332     0.0000     9.0000 </r>
       <r>    -0.1157     0.0000     9.0000 </r>
       <r>     0.0019    17.0153    10.9998 </r>
       <r>     0.1194     8.5084    12.0000 </r>
       <r>     0.2369     0.0000    12.0000 </r>
       <r>     0.3545     8.0260    12.9433 </r>
       <r>     0.4720     7.5468    13.8870 </r>
       <r>     0.5895     0.0000    14.0000 </r>
       <r>     0.7070     0.0000    14.0000 </r>
       <r>     0.8246     0.0000    14.0000 </r>
       <r>     0.9421     0.0000    14.0000 </r>
       <r>     1.0596     0.0000    16.0000 </r>
       <r>     1.1772     8.5084    17.0000 </r>
       <r>     1.2947    15.7883    18.8556 </r>
       <r>     1.4122     8.5084    21.0000 </r>
       <r>     1.5298     9.0913    22.0685 </r>
       <r>     1.6473    11.8829    24.3966 </r>
       <r>     1.7648     0.0000    25.0000 </r>
       <r>     1.8824     0.0000    25.0000 </r>
       <r>     1.9999     0.0000    25.0000 </r>
       <r>     2.1174     0.0000    25.0000 </r>
       <r>     2.2349     0.0000    25.0000 </r>
       <r>     2.3525     0.0000    25.0000 </r>
       <r>     2.4700     0.0000    25.0000 </r>
       <r>     2.5875     0.0000    25.0000 </r>
       <r>     2.7051     0.0000    25.0000 </r>
       <r>     2.8226     0.0000    25.0000 </r>
       <r>     2.9401     0.0000    25.0000 </r>
       <r>     3.0577     0.0000    25.0000 </r>
       <r>     3.1752     0.0000    25.0000 </r>
       <r>     3.2927     0.0000    25.0000 </r>
       <r>     3.4103     0.0000    25.0000 </r>
       <r>     3.5278     0.0000    25.0000 </r>
       <r>     3.6453     8.5084    27.0000 </r>
       <r>     3.7628     0.0000    27.0000 </r>
       <r>     3.8804     0.0000    27.0000 </r>
       <r>     3.9979     0.0000    27.0000 </r>
       <r>     4.1154     0.0000    27.0000 </r>
       <r>     4.2330     0.0000    27.0000 </r>
       <r>     4.3505     0.0000    28.0000 </r>
       <r>     4.4680     0.0000    28.0000 </r>
       <r>     4.5856     0.0000    28.0000 </r>
       <r>     4.7031     0.0000    28.0000 </r>
       <r>     4.8206     0.0000    28.0000 </r>
       <r>     4.9382     0.0000    28.0000 </r>
       <r>     5.0557     0.0000    28.0000 </r>
       <r>     5.1732     0.0000    28.0000 </r>
       <r>     5.2908     0.0000    28.0000 </r>
       <r>     5.4083     0.0000    28.0000 </r>
       <r>     5.5258     0.0000    28.0000 </r>
       <r>     5.6433     0.0000    28.0000 </r>
       <r>     5.7609     0.0000    28.0000 </r>
       <r>     5.8784     0.0000    28.0000 </r>
       <r>     5.9959     0.0000    28.0000 </r>
       <r>     6.1135     0.0000    28.0000 </r>
       <r>     6.2310     0.0000    28.0000 </r>
       <r>     6.3485     0.0000    28.0000 </r>
       <r>     6.4661     0.0000    28.0000 </r>
       <r>     6.5836     0.0000    28.0000 </r>
       <r>     6.7011    16.9704    29.9945 </r>
       <r>     6.8187     0.0000    30.0000 </r>
       <r>     6.9362     0.0000    31.0000 </r>
       <r>     7.0537     0.0000    31.0000 </r>
       <r>     7.1712     0.0000    31.0000 </r>
       <r>     7.2888     0.0000    31.0000 </r>
       <r>     7.4063     0.0000    31.0000 </r>
       <r>     7.5238     0.0000    31.0000 </r>
       <r>     7.6414     0.0000    31.0000 </r>
       <r>     7.7589     0.0000    31.0000 </r>
       <r>     7.8764     0.0000    31.0000 </r>
       <r>     7.9940     0.0000    31.0000 </r>
       <r>     8.1115     0.0000    31.0000 </r>
       <r>     8.2290     0.0000    31.0000 </r>
       <r>     8.3466     0.0000    31.0000 </r>
       <r>     8.4641     0.0000    31.0000 </r>
       <r>     8.5816     0.0000    31.0000 </r>
       <r>     8.6992     0.0000    31.0000 </r>
       <r>     8.8167     0.0000    31.0000 </r>
       <r>     8.9342     0.0000    31.0000 </r>
       <r>     9.0517     0.0000    31.0000 </r>
       <r>     9.1693     0.0000    31.0000 </r>
       <r>     9.2868     0.0000    31.0000 </r>
       <r>     9.4043     0.0000    31.0000 </r>
       <r>     9.5219     0.0000    31.0000 </r>
       <r>     9.6394     0.0000    31.0000 </r>
       <r>     9.7569     0.0000    31.0000 </r>
       <r>     9.8745     0.0000    31.0000 </r>
       <r>     9.9920     0.0000    31.0000 </r>
       <r>    10.1095     0.0000    31.0000 </r>
       <r>    10.2271     0.0000    31.0000 </r>
       <r>    10.3446     0.0000    31.0000 </r>
       <r>    10.4621     0.0000    31.0000 </r>
       <r>    10.5796     0.0000    31.0000 </r>
       <r>    10.6972     0.0000    31.0000 </r>
       <r>    10.8147     0.0000    31.0000 </r>
       <r>    10.9322     0.0000    31.0000 </r>
       <r>    11.0498     0.0000    31.0000 </r>
       <r>    11.1673     0.0000    31.0000 </r>
       <r>    11.2848     0.0000    31.0000 </r>
       <r>    11.4024     0.0000    31.0000 </r>
       <r>    11.5199     0.0000    31.0000 </r>
       <r>    11.6374     0.0000    31.0000 </r>
       <r>    11.7550     0.0000    31.0000 </r>
       <r>    11.8725     0.0000    31.0000 </r>
       <r>    11.9900     0.0000    31.0000 </r>
       <r>    12.1076     0.0000    31.0000 </r>
       <r>    12.2251     0.0000    31.0000 </r>
       <r>    12.3426     0.0000    31.0000 </r>
       <r>    12.4601     0.0000    31.0000 </r>
       <r>    12.5777     0.0000    31.0000 </r>
       <r>    12.6952     0.0000    31.0000 </r>
       <r>    12.8127     0.0000    31.0000 </r>
       <r>    12.9303     0.0000    31.0000 </r>
       <r>    13.0478     0.0000    31.0000 </r>
       <r>    13.1653     0.0000    31.0000 </r>
       <r>    13.2829     0.0000    31.0000 </r>
       <r>    13.4004     0.0000    31.0000 </r>
       <r>    13.5179     0.0000    31.0000 </r>
       <r>    13.6355     0.0000    31.0000 </r>
       <r>    13.7530     0.0000    31.0000 </r>
       <r>    13.8705     0.0000    31.0000 </r>
       <r>    13.9880     0.0000    31.0000 </r>
       <r>    14.1056     0.0000    31.0000 </r>
       <r>    14.2231     0.0001    31.0000 </r>
       <r>    14.3406     0.0023    32.0003 </r>
       <r>    14.4582     8.4528    33.9935 </r>
       <r>    14.5757     0.0000    34.0000 </r>
       <r>    14.6932     0.0000    34.0000 </r>
       <r>    14.8108     0.0000    34.0000 </r>
       <r>    14.9283     0.0000    34.0000 </r>
       <r>    15.0458     8.5084    35.0000 </r>
       <r>    15.1634     8.5084    36.0000 </r>
       <r>    15.2809     0.0000    36.0000 </r>
       <r>    15.3984     0.0000    36.0000 </r>
       <r>    15.5159     0.0000    36.0000 </r>
       <r>    15.6335     0.0000    36.0000 </r>
       <r>    15.7510     0.0000    36.0000 </r>
       <r>    15.8685     0.0000    36.0000 </r>
       <r>    15.9861     0.0000    36.0000 </r>
       <r>    16.1036     0.0000    36.0000 </r>
       <r>    16.2211     0.0000    36.0000 </r>
       <r>    16.3387     0.0000    36.0000 </r>
       <r>    16.4562     0.0000    36.0000 </r>
       <r>    16.5737     0.0000    36.0000 </r>
       <r>    16.6913     0.0000    36.0000 </r>
      </set>
     </set>
    </array>
   </total>
   <partial>
    <array>
     <dimension dim="1">gridpoints</dimension>
     <dimension dim="2">spin</dimension>
     <dimension dim="3">ion</dimension>
     <field>energy</field>
     <field>    s</field>
     <field>   py</field>
     <field>   pz</field>
     <field>   px</field>
     <field>  dxy</field>
     <field>  dyz</field>
     <field>  dz2</field>
     <field>  dxz</field>
     <field>x2-y2</field>
     <set>
      <set comment="ion 1">
       <set comment="spin 1">
        <r>   -18.5680     0.0000     0.0000     0.0000     0.0000     0.0000     0.0000     0.0000     0.0000     0.0000 </r>
        <r>   -18.4505     0.0000     0.0000     0.0000     0.0000     0.0000     0.0000     0.0000     0.0000     0.0000 </r>
        <r>   -18.3330     0.0000     0.0000     0.0000     0.0000     0.0000     0.0000     0.0000     0.0000     0.0000 </r>
[...]
        <r>  0.0284  0.0000  0.0000  0.0000  0.0036  0.0269  0.0059  0.0025  0.0264 </r>
        <r>  0.0166  0.0000  0.0000  0.0000  0.0145  0.0524  0.0097  0.0143  0.0302 </r>
        <r>  0.0000  0.0003  0.0004  0.1841  0.0000  0.0000  0.0000  0.0000  0.0000 </r>
        <r>  0.0000  0.0003  0.0004  0.1841  0.0000  0.0000  0.0000  0.0000  0.0000 </r>
       </set>
       <set comment="band 5">
        <r>  0.0434  0.0000  0.0000  0.0000  0.0310  0.0087  0.0061  0.0311  0.0185 </r>
        <r>  0.0000  0.0000  0.0000  0.0000  0.0066  0.0000  0.0479  0.0065  0.0162 </r>
        <r>  0.0432  0.0000  0.0000  0.0000  0.0308  0.0082  0.0064  0.0308  0.0190 </r>
        <r>  0.0000  0.0000  0.0000  0.0000  0.0064  0.0000  0.0476  0.0065  0.0156 </r>
        <r>  0.0000  0.0943  0.0943  0.0000  0.0000  0.0000  0.0000  0.0000  0.0000 </r>
        <r>  0.0000  0.0943  0.0943  0.0000  0.0000  0.0000  0.0000  0.0000  0.0000 </r>
       </set>
       <set comment="band 6">
        <r>  0.0387  0.0000  0.0000  0.0000  0.0213  0.0250  0.0004  0.0212  0.0016 </r>
        <r>  0.0635  0.0000  0.0000  0.0000  0.0428  0.0290  0.0008  0.0425  0.0022 </r>
        <r>  0.0385  0.0000  0.0000  0.0000  0.0213  0.0251  0.0006  0.0215  0.0014 </r>
        <r>  0.0622  0.0000  0.0000  0.0000  0.0413  0.0279  0.0008  0.0415  0.0024 </r>
        <r>  0.0089  0.0000  0.0000  0.0041  0.0000  0.0000  0.0000  0.0000  0.0000 </r>
        <r>  0.0089  0.0000  0.0000  0.0041  0.0000  0.0000  0.0000  0.0000  0.0000 </r>
       </set>
       <set comment="band 7">
        <r>  0.0000  0.0096  0.0000  0.0001  0.0000  0.0000  0.0000  0.0000  0.0000 </r>
        <r>  0.0000  0.0274  0.0350  0.0339  0.0000  0.0000  0.0000  0.0000  0.0000 </r>
        <r>  0.0000  0.0017  0.0207  0.0035  0.0000  0.0000  0.0000  0.0000  0.0000 </r>
        <r>  0.0000  0.0010  0.0028  0.0186  0.0000  0.0000  0.0000  0.0000  0.0000 </r>
        <r>  0.0000  0.1703  0.0723  0.0837  0.0000  0.0000  0.0000  0.0000  0.0000 </r>
        <r>  0.0000  0.1703  0.0723  0.0837  0.0000  0.0000  0.0000  0.0000  0.0000 </r>
       </set>
       <set comment="band 8">
        <r>  0.0000  0.0005  0.0015  0.0069  0.0000  0.0000  0.0000  0.0000  0.0000 </r>
        <r>  0.0000  0.0004  0.0029  0.0043  0.0000  0.0000  0.0000  0.0000  0.0000 </r>
        <r>  0.0000  0.0375  0.0176  0.0211  0.0000  0.0000  0.0000  0.0000  0.0000 </r>
        <r>  0.0000  0.0337  0.0123  0.0155  0.0000  0.0000  0.0000  0.0000  0.0000 </r>
        <r>  0.0000  0.0016  0.1979  0.1267  0.0000  0.0000  0.0000  0.0000  0.0000 </r>
        <r>  0.0000  0.0016  0.1979  0.1267  0.0000  0.0000  0.0000  0.0000  0.0000 </r>
       </set>
       <set comment="band 9">
        <r>  0.0000  0.0291  0.0377  0.0317  0.0000  0.0000  0.0000  0.0000  0.0000 </r>
        <r>  0.0000  0.0102  0.0000  0.0001  0.0000  0.0000  0.0000  0.0000  0.0000 </r>
        <r>  0.0000  0.0001  0.0010  0.0142  0.0000  0.0000  0.0000  0.0000  0.0000 </r>
        <r>  0.0000  0.0032  0.0228  0.0042  0.0000  0.0000  0.0000  0.0000  0.0000 </r>
        <r>  0.0000  0.1544  0.0561  0.1156  0.0000  0.0000  0.0000  0.0000  0.0000 </r>
        <r>  0.0000  0.1544  0.0561  0.1156  0.0000  0.0000  0.0000  0.0000  0.0000 </r>
       </set>
       <set comment="band 10">
        <r>  0.0000  0.0000  0.0000  0.0000  0.0350  0.0957  0.0030  0.0344  0.0106 </r>
        <r>  0.0001  0.0000  0.0000  0.0000  0.0342  0.2030  0.0000  0.0343  0.0001 </r>
        <r>  0.0000  0.0000  0.0000  0.0000  0.0357  0.1011  0.0041  0.0364  0.0105 </r>
        <r>  0.0001  0.0000  0.0000  0.0000  0.0353  0.1879  0.0000  0.0354  0.0000 </r>
        <r>  0.0000  0.0000  0.0000  0.0000  0.0000  0.0000  0.0000  0.0000  0.0000 </r>
        <r>  0.0000  0.0000  0.0000  0.0000  0.0000  0.0000  0.0000  0.0000  0.0000 </r>
       </set>
       <set comment="band 11">
        <r>  0.0000  0.0000  0.0000  0.0000  0.0072  0.0000  0.1045  0.0071  0.0365 </r>
        <r>  0.0025  0.0000  0.0000  0.0000  0.0775  0.0292  0.0273  0.0775  0.0786 </r>
        <r>  0.0000  0.0000  0.0000  0.0000  0.0072  0.0000  0.1136  0.0073  0.0361 </r>
        <r>  0.0028  0.0000  0.0000  0.0000  0.0730  0.0331  0.0257  0.0729  0.0802 </r>
        <r>  0.0000  0.0010  0.0010  0.0000  0.0000  0.0000  0.0000  0.0000  0.0000 </r>
        <r>  0.0000  0.0010  0.0010  0.0000  0.0000  0.0000  0.0000  0.0000  0.0000 </r>
       </set>
       <set comment="band 12">
        <r>  0.0000  0.0000  0.0000  0.0000  0.0906  0.0000  0.0014  0.0917  0.0004 </r>
        <r>  0.0000  0.0000  0.0000  0.0000  0.1327  0.0000  0.0010  0.1338  0.0004 </r>
        <r>  0.0000  0.0000  0.0000  0.0000  0.0963  0.0000  0.0013  0.0950  0.0006 </r>
        <r>  0.0000  0.0000  0.0000  0.0000  0.1249  0.0000  0.0015  0.1236  0.0005 </r>
        <r>  0.0000  0.0000  0.0000  0.0000  0.0000  0.0000  0.0000  0.0000  0.0000 </r>
        <r>  0.0000  0.0000  0.0000  0.0000  0.0000  0.0000  0.0000  0.0000  0.0000 </r>
       </set>
       <set comment="band 13">
        <r>  0.0023  0.0000  0.0000  0.0000  0.0019  0.1333  0.0310  0.0023  0.0929 </r>
        <r>  0.0001  0.0000  0.0000  0.0000  0.0096  0.0466  0.0239  0.0062  0.0917 </r>
        <r>  0.0022  0.0000  0.0000  0.0000  0.0009  0.1367  0.0340  0.0006  0.1019 </r>
        <r>  0.0002  0.0000  0.0000  0.0000  0.0069  0.0452  0.0309  0.0104  0.0735 </r>
        <r>  0.0005  0.0000  0.0000  0.0091  0.0000  0.0000  0.0000  0.0000  0.0000 </r>
        <r>  0.0005  0.0000  0.0000  0.0091  0.0000  0.0000  0.0000  0.0000  0.0000 </r>
       </set>
       <set comment="band 14">
        <r>  0.0002  0.0000  0.0000  0.0000  0.0457  0.0019  0.0032  0.0415  0.0106 </r>
        <r>  0.0000  0.0000  0.0000  0.0000  0.0668  0.0001  0.1741  0.0711  0.0494 </r>
        <r>  0.0003  0.0000  0.0000  0.0000  0.0422  0.0004  0.0024  0.0465  0.0065 </r>
        <r>  0.0000  0.0000  0.0000  0.0000  0.0735  0.0001  0.1417  0.0692  0.0554 </r>
        <r>  0.0000  0.0050  0.0050  0.0000  0.0000  0.0000  0.0000  0.0000  0.0000 </r>
        <r>  0.0000  0.0050  0.0050  0.0000  0.0000  0.0000  0.0000  0.0000  0.0000 </r>
       </set>
       <set comment="band 15">
        <r>  0.0002  0.0000  0.0000  0.0000  0.0130  0.0041  0.0198  0.0107  0.1542 </r>
        <r>  0.0001  0.0000  0.0000  0.0000  0.0201  0.0200  0.0032  0.0224  0.2107 </r>
        <r>  0.0002  0.0000  0.0000  0.0000  0.0145  0.0060  0.0195  0.0117  0.1944 </r>
        <r>  0.0000  0.0000  0.0000  0.0000  0.0174  0.0168  0.0033  0.0266  0.1827 </r>
        <r>  0.0001  0.0000  0.0000  0.0000  0.0000  0.0000  0.0000  0.0000  0.0000 </r>
        <r>  0.0001  0.0000  0.0000  0.0000  0.0000  0.0000  0.0000  0.0000  0.0000 </r>
       </set>
       <set comment="band 16">
        <r>  0.0000  0.0000  0.0000  0.0000  0.0001  0.0002  0.1053  0.0026  0.0012 </r>
        <r>  0.0000  0.0000  0.0000  0.0000  0.0041  0.0019  0.3256  0.0004  0.0405 </r>
        <r>  0.0000  0.0000  0.0000  0.0000  0.0003  0.0007  0.1017  0.0028  0.0023 </r>
        <r>  0.0000  0.0000  0.0000  0.0000  0.0078  0.0012  0.3385  0.0000  0.0355 </r>
        <r>  0.0000  0.0000  0.0000  0.0000  0.0000  0.0000  0.0000  0.0000  0.0000 </r>
        <r>  0.0000  0.0000  0.0000  0.0000  0.0000  0.0000  0.0000  0.0000  0.0000 </r>
       </set>
       <set comment="band 17">
        <r>  0.0000  0.0000  0.0000  0.0000  0.0488  0.0002  0.0256  0.0360  0.0081 </r>
        <r>  0.0002  0.0000  0.0000  0.0000  0.0158  0.2601  0.0252  0.0180  0.0650 </r>
        <r>  0.0000  0.0000  0.0000  0.0000  0.0382  0.0003  0.0292  0.0515  0.0101 </r>
        <r>  0.0004  0.0000  0.0000  0.0000  0.0127  0.2466  0.0163  0.0106  0.0588 </r>
        <r>  0.0000  0.0001  0.0001  0.0000  0.0000  0.0000  0.0000  0.0000  0.0000 </r>
        <r>  0.0000  0.0001  0.0001  0.0000  0.0000  0.0000  0.0000  0.0000  0.0000 </r>
       </set>
       <set comment="band 18">
        <r>  0.0005  0.0000  0.0000  0.0000  0.0166  0.0001  0.0228  0.0249  0.1400 </r>
        <r>  0.0000  0.0000  0.0000  0.0000  0.0954  0.0001  0.0863  0.1127  0.0270 </r>
        <r>  0.0006  0.0000  0.0000  0.0000  0.0177  0.0003  0.0628  0.0087  0.0908 </r>
        <r>  0.0000  0.0000  0.0000  0.0000  0.0956  0.0000  0.0759  0.0790  0.0219 </r>
        <r>  0.0000  0.0013  0.0013  0.0000  0.0000  0.0000  0.0000  0.0000  0.0000 </r>
        <r>  0.0000  0.0013  0.0013  0.0000  0.0000  0.0000  0.0000  0.0000  0.0000 </r>
       </set>
       <set comment="band 19">
        <r>  0.0000  0.0000  0.0000  0.0000  0.0457  0.0533  0.0061  0.0935  0.0092 </r>
        <r>  0.0029  0.0000  0.0000  0.0000  0.0691  0.0154  0.0385  0.0502  0.0921 </r>
        <r>  0.0000  0.0000  0.0000  0.0000  0.1143  0.0738  0.0001  0.0503  0.0143 </r>
        <r>  0.0026  0.0000  0.0000  0.0000  0.0527  0.0565  0.0161  0.0602  0.0409 </r>
        <r>  0.0005  0.0000  0.0000  0.0087  0.0000  0.0000  0.0000  0.0000  0.0000 </r>
        <r>  0.0005  0.0000  0.0000  0.0087  0.0000  0.0000  0.0000  0.0000  0.0000 </r>
       </set>
       <set comment="band 20">
        <r>  0.0000  0.0000  0.0000  0.0000  0.0064  0.0005  0.0477  0.0013  0.0037 </r>
        <r>  0.0000  0.0000  0.0000  0.0000  0.0013  0.0322  0.0967  0.0050  0.0140 </r>
        <r>  0.0000  0.0000  0.0000  0.0000  0.0238  0.0016  0.3228  0.0627  0.1212 </r>
        <r>  0.0002  0.0000  0.0000  0.0000  0.0033  0.0193  0.0025  0.0207  0.1958 </r>
        <r>  0.0000  0.0002  0.0003  0.0002  0.0000  0.0000  0.0000  0.0000  0.0000 </r>
        <r>  0.0000  0.0002  0.0003  0.0002  0.0000  0.0000  0.0000  0.0000  0.0000 </r>
       </set>
       <set comment="band 21">
        <r>  0.0000  0.0000  0.0000  0.0000  0.0532  0.0006  0.3342  0.0279  0.1046 </r>
        <r>  0.0000  0.0000  0.0000  0.0000  0.0028  0.0383  0.0000  0.0019  0.1369 </r>
        <r>  0.0000  0.0000  0.0000  0.0000  0.0042  0.0003  0.0098  0.0103  0.0100 </r>
        <r>  0.0001  0.0000  0.0000  0.0000  0.0123  0.0287  0.1483  0.0012  0.0571 </r>
        <r>  0.0000  0.0003  0.0003  0.0001  0.0000  0.0000  0.0000  0.0000  0.0000 </r>
        <r>  0.0000  0.0003  0.0003  0.0001  0.0000  0.0000  0.0000  0.0000  0.0000 </r>
       </set>
       <set comment="band 22">
        <r>  0.0000  0.0000  0.0000  0.0000  0.1079  0.0000  0.0022  0.0987  0.0005 </r>
        <r>  0.0000  0.0000  0.0000  0.0000  0.0643  0.0894  0.0047  0.0264  0.0081 </r>
        <r>  0.0000  0.0000  0.0000  0.0000  0.1716  0.0000  0.0105  0.1827  0.0029 </r>
        <r>  0.0000  0.0000  0.0000  0.0000  0.0320  0.0998  0.0017  0.0730  0.0096 </r>
        <r>  0.0000  0.0000  0.0000  0.0000  0.0000  0.0000  0.0000  0.0000  0.0000 </r>
        <r>  0.0000  0.0000  0.0000  0.0000  0.0000  0.0000  0.0000  0.0000  0.0000 </r>
       </set>
       <set comment="band 23">
        <r>  0.0000  0.0000  0.0000  0.0000  0.1669  0.0002  0.0194  0.1860  0.0152 </r>
        <r>  0.0000  0.0000  0.0000  0.0000  0.0810  0.0011  0.0044  0.1170  0.0027 </r>
        <r>  0.0000  0.0000  0.0000  0.0000  0.0972  0.0002  0.0247  0.0826  0.0025 </r>
        <r>  0.0000  0.0000  0.0000  0.0000  0.1082  0.0012  0.0043  0.0721  0.0006 </r>
        <r>  0.0000  0.0000  0.0000  0.0000  0.0000  0.0000  0.0000  0.0000  0.0000 </r>
        <r>  0.0000  0.0000  0.0000  0.0000  0.0000  0.0000  0.0000  0.0000  0.0000 </r>
       </set>
       <set comment="band 24">
        <r>  0.0007  0.0000  0.0000  0.0000  0.0566  0.3642  0.0045  0.0437  0.0089 </r>
        <r>  0.0000  0.0000  0.0000  0.0000  0.0034  0.0000  0.0175  0.0053  0.0047 </r>
        <r>  0.0008  0.0000  0.0000  0.0000  0.0363  0.3339  0.0022  0.0447  0.0104 </r>
        <r>  0.0000  0.0000  0.0000  0.0000  0.0095  0.0000  0.0202  0.0063  0.0080 </r>
        <r>  0.0000  0.0015  0.0015  0.0000  0.0000  0.0000  0.0000  0.0000  0.0000 </r>
        <r>  0.0000  0.0015  0.0015  0.0000  0.0000  0.0000  0.0000  0.0000  0.0000 </r>
       </set>
       <set comment="band 25">
        <r>  0.0035  0.0000  0.0000  0.0000  0.0141  0.0448  0.0696  0.0070  0.2083 </r>
        <r>  0.0000  0.0000  0.0000  0.0000  0.0567  0.0000  0.0011  0.0529  0.0007 </r>
        <r>  0.0033  0.0000  0.0000  0.0000  0.0086  0.0444  0.0645  0.0155  0.1938 </r>
        <r>  0.0000  0.0000  0.0000  0.0000  0.0701  0.0000  0.0016  0.0736  0.0003 </r>
        <r>  0.0000  0.0121  0.0121  0.0000  0.0000  0.0000  0.0000  0.0000  0.0000 </r>
        <r>  0.0000  0.0121  0.0121  0.0000  0.0000  0.0000  0.0000  0.0000  0.0000 </r>
       </set>
       <set comment="band 26">
        <r>  0.0079  0.0000  0.0000  0.0000  0.0060  0.0015  0.0514  0.0027  0.0609 </r>
        <r>  0.0663  0.0000  0.0000  0.0000  0.0922  0.0765  0.0039  0.0918  0.0112 </r>
        <r>  0.0080  0.0000  0.0000  0.0000  0.0026  0.0015  0.1032  0.0059  0.0052 </r>
        <r>  0.0416  0.0000  0.0000  0.0000  0.0201  0.0039  0.0181  0.0203  0.0550 </r>
        <r>  0.0019  0.0376  0.0375  0.0084  0.0000  0.0000  0.0000  0.0000  0.0000 </r>
        <r>  0.0019  0.0376  0.0375  0.0084  0.0000  0.0000  0.0000  0.0000  0.0000 </r>
       </set>
       <set comment="band 27">
        <r>  0.0492  0.0000  0.0000  0.0000  0.0003  0.0100  0.0557  0.0040  0.0246 </r>
        <r>  0.0004  0.0000  0.0000  0.0000  0.0135  0.0397  0.0167  0.0136  0.0502 </r>
        <r>  0.0498  0.0000  0.0000  0.0000  0.0041  0.0100  0.0003  0.0003  0.0768 </r>
        <r>  0.0264  0.0000  0.0000  0.0000  0.0869  0.1145  0.0029  0.0871  0.0083 </r>
        <r>  0.0115  0.0058  0.0059  0.0532  0.0000  0.0000  0.0000  0.0000  0.0000 </r>
        <r>  0.0115  0.0058  0.0059  0.0532  0.0000  0.0000  0.0000  0.0000  0.0000 </r>
       </set>
       <set comment="band 28">
        <r>  0.0624  0.0000  0.0000  0.0000  0.0886  0.0879  0.0029  0.0886  0.0084 </r>
        <r>  0.0000  0.0000  0.0000  0.0000  0.0004  0.0000  0.0540  0.0005  0.0184 </r>
        <r>  0.0624  0.0000  0.0000  0.0000  0.0858  0.0845  0.0029  0.0858  0.0091 </r>
        <r>  0.0000  0.0000  0.0000  0.0000  0.0005  0.0000  0.0558  0.0005  0.0182 </r>
        <r>  0.0000  0.0233  0.0233  0.0000  0.0000  0.0000  0.0000  0.0000  0.0000 </r>
        <r>  0.0000  0.0233  0.0233  0.0000  0.0000  0.0000  0.0000  0.0000  0.0000 </r>
       </set>
       <set comment="band 29">
        <r>  0.0000  0.0146  0.0146  0.0592  0.0000  0.0000  0.0000  0.0000  0.0000 </r>
        <r>  0.0000  0.0145  0.0145  0.0570  0.0000  0.0000  0.0000  0.0000  0.0000 </r>
        <r>  0.0000  0.0147  0.0147  0.0595  0.0000  0.0000  0.0000  0.0000  0.0000 </r>
        <r>  0.0000  0.0145  0.0145  0.0569  0.0000  0.0000  0.0000  0.0000  0.0000 </r>
        <r>  0.0000  0.0000  0.0000  0.0000  0.0000  0.0000  0.0000  0.0000  0.0000 </r>
        <r>  0.0000  0.0000  0.0000  0.0000  0.0000  0.0000  0.0000  0.0000  0.0000 </r>
       </set>
       <set comment="band 30">
        <r>  0.0000  0.0451  0.0451  0.0000  0.0000  0.0000  0.0000  0.0000  0.0000 </r>
        <r>  0.0000  0.0421  0.0421  0.0000  0.0000  0.0000  0.0000  0.0000  0.0000 </r>
        <r>  0.0000  0.0452  0.0453  0.0000  0.0000  0.0000  0.0000  0.0000  0.0000 </r>
        <r>  0.0000  0.0421  0.0421  0.0000  0.0000  0.0000  0.0000  0.0000  0.0000 </r>
        <r>  0.0000  0.0000  0.0000  0.0000  0.0000  0.0000  0.0000  0.0000  0.0000 </r>
        <r>  0.0000  0.0000  0.0000  0.0000  0.0000  0.0000  0.0000  0.0000  0.0000 </r>
       </set>
       <set comment="band 31">
        <r>  0.0022  0.0000  0.0000  0.0000  0.0871  0.0935  0.0034  0.0870  0.0110 </r>
        <r>  0.0445  0.0000  0.0000  0.0000  0.0134  0.0119  0.0018  0.0133  0.0048 </r>
        <r>  0.0018  0.0000  0.0000  0.0000  0.0901  0.0963  0.0036  0.0902  0.0100 </r>
        <r>  0.0434  0.0000  0.0000  0.0000  0.0139  0.0124  0.0016  0.0140  0.0054 </r>
        <r>  0.0467  0.0000  0.0000  0.0072  0.0000  0.0000  0.0000  0.0000  0.0000 </r>
        <r>  0.0467  0.0000  0.0000  0.0072  0.0000  0.0000  0.0000  0.0000  0.0000 </r>
       </set>
       <set comment="band 32">
        <r>  0.0000  0.0000  0.0000  0.0000  0.0044  0.0000  0.0128  0.0040  0.0046 </r>
        <r>  0.1159  0.0000  0.0000  0.0000  0.0199  0.0065  0.0011  0.0199  0.0035 </r>
        <r>  0.0000  0.0000  0.0000  0.0000  0.0040  0.0000  0.0133  0.0044  0.0041 </r>
        <r>  0.1083  0.0000  0.0000  0.0000  0.0193  0.0055  0.0013  0.0194  0.0039 </r>
        <r>  0.0000  0.0622  0.0622  0.0001  0.0000  0.0000  0.0000  0.0000  0.0000 </r>
        <r>  0.0000  0.0622  0.0622  0.0001  0.0000  0.0000  0.0000  0.0000  0.0000 </r>
       </set>
       <set comment="band 33">
        <r>  0.0548  0.0000  0.0000  0.0000  0.0043  0.0250  0.0028  0.0047  0.0073 </r>
        <r>  0.0524  0.0000  0.0000  0.0000  0.0025  0.0195  0.0027  0.0026  0.0080 </r>
        <r>  0.0576  0.0000  0.0000  0.0000  0.0051  0.0255  0.0022  0.0047  0.0078 </r>
        <r>  0.0597  0.0000  0.0000  0.0000  0.0033  0.0206  0.0025  0.0032  0.0076 </r>
        <r>  0.0001  0.0000  0.0001  0.1266  0.0000  0.0000  0.0000  0.0000  0.0000 </r>
        <r>  0.0001  0.0000  0.0001  0.1266  0.0000  0.0000  0.0000  0.0000  0.0000 </r>
       </set>
       <set comment="band 34">
        <r>  0.1158  0.0000  0.0000  0.0000  0.0255  0.0096  0.0014  0.0255  0.0042 </r>
        <r>  0.0000  0.0000  0.0000  0.0000  0.0039  0.0000  0.0098  0.0038  0.0034 </r>
        <r>  0.1136  0.0000  0.0000  0.0000  0.0253  0.0092  0.0015  0.0253  0.0044 </r>
        <r>  0.0000  0.0000  0.0000  0.0000  0.0038  0.0000  0.0100  0.0039  0.0032 </r>
        <r>  0.0000  0.0640  0.0640  0.0000  0.0000  0.0000  0.0000  0.0000  0.0000 </r>
        <r>  0.0000  0.0640  0.0640  0.0000  0.0000  0.0000  0.0000  0.0000  0.0000 </r>
       </set>
       <set comment="band 35">
        <r>  0.0000  0.0281  0.0273  0.1101  0.0000  0.0000  0.0000  0.0000  0.0000 </r>
        <r>  0.0000  0.0264  0.0263  0.0000  0.0000  0.0000  0.0000  0.0000  0.0000 </r>
        <r>  0.0000  0.0275  0.0279  0.1101  0.0000  0.0000  0.0000  0.0000  0.0000 </r>
        <r>  0.0000  0.0258  0.0256  0.0000  0.0000  0.0000  0.0000  0.0000  0.0000 </r>
        <r>  0.0000  0.0000  0.0000  0.0000  0.0000  0.0000  0.0000  0.0000  0.0000 </r>
        <r>  0.0000  0.0000  0.0000  0.0000  0.0000  0.0000  0.0000  0.0000  0.0000 </r>
       </set>
       <set comment="band 36">
        <r>  0.0000  0.0018  0.0018  0.0000  0.0000  0.0000  0.0000  0.0000  0.0000 </r>
        <r>  0.0000  0.0026  0.0801  0.0544  0.0000  0.0000  0.0000  0.0000  0.0000 </r>
        <r>  0.0000  0.0790  0.0787  0.0000  0.0000  0.0000  0.0000  0.0000  0.0000 </r>
        <r>  0.0000  0.0802  0.0026  0.0543  0.0000  0.0000  0.0000  0.0000  0.0000 </r>
        <r>  0.0000  0.0000  0.0000  0.0000  0.0000  0.0000  0.0000  0.0000  0.0000 </r>
        <r>  0.0000  0.0000  0.0000  0.0000  0.0000  0.0000  0.0000  0.0000  0.0000 </r>
       </set>
      </set>
     </set>
    </set>
   </array>
  </projected>
 </calculation>
 <structure name="finalpos" >
  <crystal>
   <varray name="basis" >
    <v>       4.24669932       0.00000000       0.00000000 </v>
    <v>      -0.00000000       4.24669932       0.00000000 </v>
    <v>       0.00000000       0.00000000       4.24669932 </v>
   </varray>
   <i name="volume">     76.58690827 </i>
   <varray name="rec_basis" >
    <v>       0.23547700       0.00000000       0.00000000 </v>
    <v>       0.00000000       0.23547700       0.00000000 </v>
    <v>      -0.00000000      -0.00000000       0.23547700 </v>
   </varray>
  </crystal>
  <varray name="positions" >
   <v>       0.50000000       0.50000000       0.00000000 </v>
   <v>       0.00000000       0.50000000       0.50000000 </v>
   <v>       0.50000000       0.00000000       0.50000000 </v>
   <v>       0.00000000       0.00000000       0.00000000 </v>
   <v>       0.75000000       0.75000000       0.75000000 </v>
   <v>       0.25000000       0.25000000       0.25000000 </v>
  </varray>
 </structure>
</modeling>
