 vasp.6.4.2 20Jul23 (build Mar 15 2024 16:31:38) complex                        
  
 executed on             LinuxIFC date 2025.03.19  15:45:47
 running  120 mpi-ranks, on    3 nodes
 distrk:  each k-point on  120 cores,    1 groups
 distr:  one band on NCORE=  10 cores,   12 groups


--------------------------------------------------------------------------------------------------------


 INCAR:
   ALGO = Fast
   CSHIFT = 1e-05
   EDIFF = 1e-05
   ENAUG = 1360
   ENCUT = 680
   GGA = Ps
   ICHARG = 11
   ISMEAR = -5
   ISPIN = 1
   ISYM = 2
   LAECHG = True
   LASPH = True
   LCHARG = False
   LELF = False
   LMAXMIX = 6
   LMIXTAU = True
   LOPTICS = True
   LORBIT = 11
   LREAL = False
   LVTOT = True
   LWAVE = True
   NBANDS = 173
   NCORE = 10
   NEDOS = 2000
   NELM = 200
   NSW = 0
   PREC = Accurate
   SIGMA = 0.05

 POTCAR:    PAW_PBE H 15Jun2001                   
 POTCAR:    PAW_PBE Pb_d 06Sep2000                
 POTCAR:    PAW_PBE C 08Apr2002                   
 POTCAR:    PAW_PBE I 08Apr2002                   
 POTCAR:    PAW_PBE N 08Apr2002                   
 WARNING: For LVTOT=.TRUE., VASP.5.x writes the TOTAL local potential to the
     file LOCPOT. If you want only the Hartree contributions, use LVHAR=.TRUE.
     instead. 

 POTCAR:    PAW_PBE H 15Jun2001                   
   VRHFIN =H: ultrasoft test                                                                        
   LEXCH  = PE                                                                                      
   EATOM  =    12.4884 eV,    0.9179 Ry                                                             
                                                                                                    
   TITEL  = PAW_PBE H 15Jun2001                                                                     
   LULTRA =        F    use ultrasoft PP ?                                                          
   IUNSCR =        0    unscreen: 0-lin 1-nonlin 2-no                                               
   RPACOR =    0.000    partial core radius                                                         
   POMASS =    1.000; ZVAL   =    1.000    mass and valenz                                          
   RCORE  =    1.100    outmost cutoff radius                                                       
   RWIGS  =    0.700; RWIGS  =    0.370    wigner-seitz radius (au A)                               
   ENMAX  =  250.000; ENMIN  =  200.000 eV                                                          
   RCLOC  =    0.701    cutoff for local pot                                                        
   LCOR   =        T    correct aug charges                                                         
   LPAW   =        T    paw PP                                                                      
   EAUG   =  400.000                                                                                
   RMAX   =    1.123    core radius for proj-oper                                                   
   RAUG   =    1.200    factor for augmentation sphere                                              
   RDEP   =    1.112    radius for radial grids                                                     
   RDEPT  =    0.926    core radius for aug-charge                                                  
                                                                                                    
   Atomic configuration                                                                             
    2 entries                                                                                       
     n  l   j            E        occ.                                                              
     1  0  0.50        -6.4927   1.0000                                                             
     2  1  0.50        -3.4015   0.0000                                                             
   Description                                                                                      
     l       E           TYP  RCUT    TYP  RCUT                                                     
     0     -6.4927494     23  1.100                                                                 
     0      6.8029130     23  1.100                                                                 
     1     -4.0817478     23  1.100                                                                 
  local pseudopotential read in
  atomic valenz-charges read in
  non local Contribution for L=           0  read in
    real space projection operators read in
  non local Contribution for L=           0  read in
    real space projection operators read in
  non local Contribution for L=           1  read in
    real space projection operators read in
    PAW grid and wavefunctions read in
 
   number of l-projection  operators is LMAX  =           3
   number of lm-projection operators is LMMAX =           5
 
 POTCAR:    PAW_PBE Pb_d 06Sep2000                
   VRHFIN =Pb:                                                                                      
   LEXCH  = PE                                                                                      
   EATOM  =  1661.6185 eV,  122.1255 Ry                                                             
                                                                                                    
   TITEL  = PAW_PBE Pb_d 06Sep2000                                                                  
   LULTRA =        F    use ultrasoft PP ?                                                          
   IUNSCR =        1    unscreen: 0-lin 1-nonlin 2-no                                               
   RPACOR =    2.200    partial core radius                                                         
   POMASS =  207.200; ZVAL   =   14.000    mass and valenz                                          
   RCORE  =    2.500    outmost cutoff radius                                                       
   RWIGS  =    3.260; RWIGS  =    1.725    wigner-seitz radius (au A)                               
   ENMAX  =  237.835; ENMIN  =  178.376 eV                                                          
   ICORE  =        3    local potential                                                             
   LCOR   =        T    correct aug charges                                                         
   LPAW   =        T    paw PP                                                                      
   EAUG   =  391.914                                                                                
   DEXC   =    0.000                                                                                
   RMAX   =    2.565    core radius for proj-oper                                                   
   RAUG   =    1.300    factor for augmentation sphere                                              
   RDEP   =    2.643    radius for radial grids                                                     
   RDEPT  =    2.092    core radius for aug-charge                                                  
                                                                                                    
   Atomic configuration                                                                             
   16 entries                                                                                       
     n  l   j            E        occ.                                                              
     1  0  0.50    -88091.8466   2.0000                                                             
     2  0  0.50    -15753.4197   2.0000                                                             
     2  1  1.50    -13508.1797   6.0000                                                             
     3  0  0.50     -3781.7194   2.0000                                                             
     3  1  1.50     -3138.2529   6.0000                                                             
     3  2  2.50     -2483.2977  10.0000                                                             
     4  0  0.50      -856.2895   2.0000                                                             
     4  1  1.50      -645.4942   6.0000                                                             
     4  2  2.50      -401.8768  10.0000                                                             
     4  3  3.50      -132.9059  14.0000                                                             
     5  0  0.50      -144.0950   2.0000                                                             
     5  1  1.50       -85.7879   6.0000                                                             
     5  2  2.50       -21.1769  10.0000                                                             
     6  0  0.50       -12.0372   2.0000                                                             
     6  1  1.50        -3.4971   2.0000                                                             
     5  3  2.50        -2.7212   0.0000                                                             
   Description                                                                                      
     l       E           TYP  RCUT    TYP  RCUT                                                     
     2    -21.1768523     23  2.500                                                                 
     2      1.3605826     23  2.500                                                                 
     0    -12.0371562     23  2.500                                                                 
     0     13.6058260     23  2.500                                                                 
     1     -3.4971339     23  2.500                                                                 
     1     13.6058260     23  2.500                                                                 
     3     -1.3605826      7  2.500                                                                 
  local pseudopotential read in
  partial core-charges read in
  partial kinetic energy density read in
  atomic valenz-charges read in
  non local Contribution for L=           2  read in
    real space projection operators read in
  non local Contribution for L=           2  read in
    real space projection operators read in
  non local Contribution for L=           0  read in
    real space projection operators read in
  non local Contribution for L=           0  read in
    real space projection operators read in
  non local Contribution for L=           1  read in
    real space projection operators read in
  non local Contribution for L=           1  read in
    real space projection operators read in
    PAW grid and wavefunctions read in
 
   number of l-projection  operators is LMAX  =           6
   number of lm-projection operators is LMMAX =          18
 
 POTCAR:    PAW_PBE C 08Apr2002                   
   VRHFIN =C: s2p2                                                                                  
   LEXCH  = PE                                                                                      
   EATOM  =   147.1560 eV,   10.8157 Ry                                                             
                                                                                                    
   TITEL  = PAW_PBE C 08Apr2002                                                                     
   LULTRA =        F    use ultrasoft PP ?                                                          
   IUNSCR =        1    unscreen: 0-lin 1-nonlin 2-no                                               
   RPACOR =    1.200    partial core radius                                                         
   POMASS =   12.011; ZVAL   =    4.000    mass and valenz                                          
   RCORE  =    1.500    outmost cutoff radius                                                       
   RWIGS  =    1.630; RWIGS  =    0.863    wigner-seitz radius (au A)                               
   ENMAX  =  400.000; ENMIN  =  300.000 eV                                                          
   ICORE  =        2    local potential                                                             
   LCOR   =        T    correct aug charges                                                         
   LPAW   =        T    paw PP                                                                      
   EAUG   =  644.873                                                                                
   DEXC   =    0.000                                                                                
   RMAX   =    1.529    core radius for proj-oper                                                   
   RAUG   =    1.300    factor for augmentation sphere                                              
   RDEP   =    1.501    radius for radial grids                                                     
   RDEPT  =    1.300    core radius for aug-charge                                                  
                                                                                                    
   Atomic configuration                                                                             
    4 entries                                                                                       
     n  l   j            E        occ.                                                              
     1  0  0.50      -273.3789   2.0000                                                             
     2  0  0.50       -13.7508   2.0000                                                             
     2  1  0.50        -5.2854   2.0000                                                             
     3  2  1.50        -5.4423   0.0000                                                             
   Description                                                                                      
     l       E           TYP  RCUT    TYP  RCUT                                                     
     0    -13.7508458     23  1.200                                                                 
     0     -8.2022199     23  1.200                                                                 
     1     -5.2854383     23  1.500                                                                 
     1     34.0145650     23  1.500                                                                 
     2     -5.4423304      7  1.500                                                                 
  local pseudopotential read in
  partial core-charges read in
  partial kinetic energy density read in
  atomic valenz-charges read in
  non local Contribution for L=           0  read in
    real space projection operators read in
  non local Contribution for L=           0  read in
    real space projection operators read in
  non local Contribution for L=           1  read in
    real space projection operators read in
  non local Contribution for L=           1  read in
    real space projection operators read in
    PAW grid and wavefunctions read in
 
   number of l-projection  operators is LMAX  =           4
   number of lm-projection operators is LMMAX =           8
 
 POTCAR:    PAW_PBE I 08Apr2002                   
   VRHFIN =I : s2p5                                                                                 
   LEXCH  = PE                                                                                      
   EATOM  =   315.8678 eV,   23.2156 Ry                                                             
                                                                                                    
   TITEL  = PAW_PBE I 08Apr2002                                                                     
   LULTRA =        F    use ultrasoft PP ?                                                          
   IUNSCR =        1    unscreen: 0-lin 1-nonlin 2-no                                               
   RPACOR =    2.200    partial core radius                                                         
   POMASS =  126.904; ZVAL   =    7.000    mass and valenz                                          
   RCORE  =    2.300    outmost cutoff radius                                                       
   RWIGS  =    2.810; RWIGS  =    1.487    wigner-seitz radius (au A)                               
   ENMAX  =  175.647; ENMIN  =  131.735 eV                                                          
   ICORE  =        3    local potential                                                             
   LCOR   =        T    correct aug charges                                                         
   LPAW   =        T    paw PP                                                                      
   EAUG   =  370.139                                                                                
   DEXC   =    0.000                                                                                
   RMAX   =    2.359    core radius for proj-oper                                                   
   RAUG   =    1.300    factor for augmentation sphere                                              
   RDEP   =    2.392    radius for radial grids                                                     
   RDEPT  =    2.170    core radius for aug-charge                                                  
                                                                                                    
   Atomic configuration                                                                             
   13 entries                                                                                       
     n  l   j            E        occ.                                                              
     1  0  0.50    -32976.3739   2.0000                                                             
     2  0  0.50     -5094.5933   2.0000                                                             
     2  1  1.50     -4572.0131   6.0000                                                             
     3  0  0.50     -1028.2813   2.0000                                                             
     3  1  1.50      -859.0250   6.0000                                                             
     3  2  2.50      -605.7620  10.0000                                                             
     4  0  0.50      -180.5540   2.0000                                                             
     4  1  1.50      -127.5306   6.0000                                                             
     4  2  2.50       -50.2720  10.0000                                                             
     5  0  0.50       -17.4058   2.0000                                                             
     5  1  0.50        -7.0851   5.0000                                                             
     5  2  1.50        -7.0750   0.0000                                                             
     4  3  2.50        -7.0750   0.0000                                                             
   Description                                                                                      
     l       E           TYP  RCUT    TYP  RCUT                                                     
     0    -17.4058016     23  2.300                                                                 
     0    -18.7663842     23  2.300                                                                 
     1     -7.0850686     23  2.300                                                                 
     1     -4.2150896     23  2.300                                                                 
     2     -7.0750295     23  2.300                                                                 
     3     -1.3605826     23  2.300                                                                 
  local pseudopotential read in
  partial core-charges read in
  partial kinetic energy density read in
  atomic valenz-charges read in
  non local Contribution for L=           0  read in
    real space projection operators read in
  non local Contribution for L=           0  read in
    real space projection operators read in
  non local Contribution for L=           1  read in
    real space projection operators read in
  non local Contribution for L=           1  read in
    real space projection operators read in
  non local Contribution for L=           2  read in
    real space projection operators read in
    PAW grid and wavefunctions read in
 
   number of l-projection  operators is LMAX  =           5
   number of lm-projection operators is LMMAX =          13
 
 POTCAR:    PAW_PBE N 08Apr2002                   
   VRHFIN =N: s2p3                                                                                  
   LEXCH  = PE                                                                                      
   EATOM  =   264.5486 eV,   19.4438 Ry                                                             
                                                                                                    
   TITEL  = PAW_PBE N 08Apr2002                                                                     
   LULTRA =        F    use ultrasoft PP ?                                                          
   IUNSCR =        1    unscreen: 0-lin 1-nonlin 2-no                                               
   RPACOR =    1.200    partial core radius                                                         
   POMASS =   14.001; ZVAL   =    5.000    mass and valenz                                          
   RCORE  =    1.500    outmost cutoff radius                                                       
   RWIGS  =    1.400; RWIGS  =    0.741    wigner-seitz radius (au A)                               
   ENMAX  =  400.000; ENMIN  =  300.000 eV                                                          
   ICORE  =        2    local potential                                                             
   LCOR   =        T    correct aug charges                                                         
   LPAW   =        T    paw PP                                                                      
   EAUG   =  627.112                                                                                
   DEXC   =    0.000                                                                                
   RMAX   =    1.529    core radius for proj-oper                                                   
   RAUG   =    1.300    factor for augmentation sphere                                              
   RDEP   =    1.514    radius for radial grids                                                     
   RDEPT  =    1.338    core radius for aug-charge                                                  
                                                                                                    
   Atomic configuration                                                                             
    4 entries                                                                                       
     n  l   j            E        occ.                                                              
     1  0  0.50      -384.7179   2.0000                                                             
     2  0  0.50       -18.5828   2.0000                                                             
     2  1  0.50        -7.0898   3.0000                                                             
     3  2  1.50        -6.8029   0.0000                                                             
   Description                                                                                      
     l       E           TYP  RCUT    TYP  RCUT                                                     
     0    -18.5828119     23  1.200                                                                 
     0    -13.5018863     23  1.200                                                                 
     1     -7.0897853     23  1.500                                                                 
     1      9.5240782     23  1.500                                                                 
     2     -6.8029130      7  1.500                                                                 
  local pseudopotential read in
  partial core-charges read in
  partial kinetic energy density read in
  atomic valenz-charges read in
  non local Contribution for L=           0  read in
    real space projection operators read in
  non local Contribution for L=           0  read in
    real space projection operators read in
  non local Contribution for L=           1  read in
    real space projection operators read in
  non local Contribution for L=           1  read in
    real space projection operators read in
    PAW grid and wavefunctions read in
 
   number of l-projection  operators is LMAX  =           4
   number of lm-projection operators is LMMAX =           8
 
 -----------------------------------------------------------------------------
|                                                                             |
|               ----> ADVICE to this user running VASP <----                  |
|                                                                             |
|     You have a (more or less) 'large supercell' and for larger cells it     |
|     might be more efficient to use real-space projection operators.         |
|     Therefore, try LREAL= Auto in the INCAR file.                           |
|     Mind: For very accurate calculation, you might also keep the            |
|     reciprocal projection scheme (i.e. LREAL=.FALSE.).                      |
|                                                                             |
 -----------------------------------------------------------------------------

 -----------------------------------------------------------------------------
|                                                                             |
|               ----> ADVICE to this user running VASP <----                  |
|                                                                             |
|     You enforced a specific xc type in the INCAR file but a different       |
|     type was found in the POTCAR file.                                      |
|     I HOPE YOU KNOW WHAT YOU ARE DOING!                                     |
|                                                                             |
 -----------------------------------------------------------------------------

  PAW_PBE H 15Jun2001                   :
 energy of atom  1       EATOM=  -12.4884
 kinetic energy error for atom=    0.0002 (will be added to EATOM!!)
  PAW_PBE Pb_d 06Sep2000                :
 energy of atom  2       EATOM=-1661.6185
 kinetic energy error for atom=    0.0012 (will be added to EATOM!!)
  PAW_PBE C 08Apr2002                   :
 energy of atom  3       EATOM= -147.1560
 kinetic energy error for atom=    0.0037 (will be added to EATOM!!)
  PAW_PBE I 08Apr2002                   :
 energy of atom  4       EATOM= -315.8678
 kinetic energy error for atom=    0.0004 (will be added to EATOM!!)
  PAW_PBE N 08Apr2002                   :
 energy of atom  5       EATOM= -264.5486
 kinetic energy error for atom=    0.0069 (will be added to EATOM!!)
 
 
 POSCAR: H24 Pb4 C4 I12 N4
  positions in direct lattice
  No initial velocities read in
 exchange correlation table for  LEXCH =       14
   RHO(1)=    0.500       N(1)  =     2000
   RHO(2)=  100.500       N(2)  =     4000
 


--------------------------------------------------------------------------------------------------------


 ion  position               nearest neighbor table
   1  0.388  0.411  0.321-  32 1.09
   2  0.612  0.589  0.679-  31 1.09
   3  0.888  0.089  0.679-  30 1.09
   4  0.112  0.911  0.321-  29 1.09
   5  0.612  0.589  0.821-  31 1.09
   6  0.388  0.411  0.179-  32 1.09
   7  0.112  0.911  0.179-  29 1.09
   8  0.888  0.089  0.821-  30 1.09
   9  0.603  0.578  0.315-  47 1.03
  10  0.397  0.422  0.685-  48 1.03
  11  0.103  0.922  0.685-  45 1.03
  12  0.897  0.078  0.315-  46 1.03
  13  0.397  0.422  0.815-  48 1.03
  14  0.603  0.578  0.185-  47 1.03
  15  0.897  0.078  0.185-  46 1.03
  16  0.103  0.922  0.815-  45 1.03
  17  0.543  0.332  0.250-  32 1.09
  18  0.457  0.668  0.750-  31 1.09
  19  0.043  0.168  0.750-  30 1.09
  20  0.957  0.832  0.250-  29 1.09
  21  0.460  0.654  0.250-  47 1.03
  22  0.540  0.346  0.750-  48 1.03
  23  0.960  0.846  0.750-  45 1.03
  24  0.040  0.154  0.250-  46 1.03
  25  0.000  0.500  0.000-  41 3.23  42 3.23  33 3.24  34 3.24  35 3.25  36 3.25
  26  0.500  0.000  0.000-  43 3.23  44 3.23  35 3.24  36 3.24  33 3.25  34 3.25
  27  0.000  0.500  0.500-  41 3.23  42 3.23  37 3.24  38 3.24  39 3.25  40 3.25
  28  0.500  0.000  0.500-  43 3.23  44 3.23  39 3.24  40 3.24  37 3.25  38 3.25
  29  0.042  0.919  0.250-  20 1.09   7 1.09   4 1.09  46 1.50
  30  0.958  0.081  0.750-  19 1.09   8 1.09   3 1.09  45 1.50
  31  0.542  0.581  0.750-  18 1.09   5 1.09   2 1.09  48 1.50
  32  0.458  0.419  0.250-  17 1.09   6 1.09   1 1.09  47 1.50
  33  0.197  0.199  0.018-  25 3.24  26 3.25
  34  0.803  0.801  0.982-  25 3.24  26 3.25
  35  0.697  0.301  0.982-  26 3.24  25 3.25
  36  0.303  0.699  0.018-  26 3.24  25 3.25
  37  0.803  0.801  0.518-  27 3.24  28 3.25
  38  0.197  0.199  0.482-  27 3.24  28 3.25
  39  0.303  0.699  0.482-  28 3.24  27 3.25
  40  0.697  0.301  0.518-  28 3.24  27 3.25
  41  0.942  0.478  0.250-  25 3.23  27 3.23
  42  0.058  0.522  0.750-  25 3.23  27 3.23
  43  0.442  0.022  0.750-  26 3.23  28 3.23
  44  0.558  0.978  0.250-  26 3.23  28 3.23
  45  0.035  0.934  0.750-  11 1.03  16 1.03  23 1.03  30 1.50
  46  0.965  0.066  0.250-  12 1.03  15 1.03  24 1.03  29 1.50
  47  0.535  0.566  0.250-   9 1.03  14 1.03  21 1.03  32 1.50
  48  0.465  0.434  0.750-  10 1.03  13 1.03  22 1.03  31 1.50
 
  LATTYP: Found a simple orthorhombic cell.
 ALAT       =     8.9195190000
 B/A-ratio  =     1.0104386795
 C/A-ratio  =     1.4284127877
  
  Lattice vectors:
  
 A1 = (   8.9195190000,   0.0000000000,   0.0000000000)
 A2 = (  -0.0000000000,   9.0126270000,   0.0000000000)
 A3 = (   0.0000000000,   0.0000000000,  12.7407550000)


Analysis of symmetry for initial positions (statically):
=====================================================================
 Subroutine PRICEL returns:
 Original cell was already a primitive cell.
 

 Routine SETGRP: Setting up the symmetry group for a 
 simple orthorhombic supercell.


 Subroutine GETGRP returns: Found  8 space group operations
 (whereof  2 operations were pure point group operations)
 out of a pool of  8 trial point group operations.


The static configuration has the point symmetry S_2 .
 The point group associated with its full space group is D_2h.


Analysis of symmetry for dynamics (positions and initial velocities):
=====================================================================
 Subroutine PRICEL returns:
 Original cell was already a primitive cell.
 

 Routine SETGRP: Setting up the symmetry group for a 
 simple orthorhombic supercell.


 Subroutine GETGRP returns: Found  8 space group operations
 (whereof  2 operations were pure point group operations)
 out of a pool of  8 trial point group operations.


The dynamic configuration has the point symmetry S_2 .
 The point group associated with its full space group is D_2h.


 Subroutine INISYM returns: Found  8 space group operations
 (whereof  2 operations are pure point group operations),
 and found     1 'primitive' translations


----------------------------------------------------------------------------------------

                                     Primitive cell                                     

  volume of cell :    1024.2076

  direct lattice vectors                    reciprocal lattice vectors
     8.919519000  0.000000000  0.000000000     0.112113669  0.000000000  0.000000000
    -0.000000000  9.012627000  0.000000000     0.000000000  0.110955441  0.000000000
     0.000000000  0.000000000 12.740755000    -0.000000000 -0.000000000  0.078488284

  length of vectors
     8.919519000  9.012627000 12.740755000     0.112113669  0.110955441  0.078488284

  position of ions in fractional coordinates (direct lattice)
     0.388408000  0.410677000  0.320741000
     0.611592000  0.589323000  0.679259000
     0.888408000  0.089323000  0.679259000
     0.111592000  0.910677000  0.320741000
     0.611592000  0.589323000  0.820741000
     0.388408000  0.410677000  0.179259000
     0.111592000  0.910677000  0.179259000
     0.888408000  0.089323000  0.820741000
     0.602561000  0.577773000  0.315093000
     0.397439000  0.422227000  0.684907000
     0.102561000  0.922227000  0.684907000
     0.897439000  0.077773000  0.315093000
     0.397439000  0.422227000  0.815093000
     0.602561000  0.577773000  0.184907000
     0.897439000  0.077773000  0.184907000
     0.102561000  0.922227000  0.815093000
     0.543180000  0.331775000  0.250000000
     0.456820000  0.668225000  0.750000000
     0.043180000  0.168225000  0.750000000
     0.956820000  0.831775000  0.250000000
     0.460150000  0.653692000  0.250000000
     0.539850000  0.346308000  0.750000000
     0.960150000  0.846308000  0.750000000
     0.039850000  0.153692000  0.250000000
     0.000000000  0.500000000  1.000000000
     0.500000000  0.000000000  1.000000000
     0.000000000  0.500000000  0.500000000
     0.500000000  0.000000000  0.500000000
     0.042431000  0.918718000  0.250000000
     0.957569000  0.081282000  0.750000000
     0.542431000  0.581282000  0.750000000
     0.457569000  0.418718000  0.250000000
     0.197198000  0.198644000  0.018389000
     0.802802000  0.801356000  0.981611000
     0.697198000  0.301356000  0.981611000
     0.302802000  0.698644000  0.018389000
     0.802802000  0.801356000  0.518389000
     0.197198000  0.198644000  0.481611000
     0.302802000  0.698644000  0.481611000
     0.697198000  0.301356000  0.518389000
     0.942067000  0.478144000  0.250000000
     0.057933000  0.521856000  0.750000000
     0.442067000  0.021856000  0.750000000
     0.557933000  0.978144000  0.250000000
     0.034877000  0.934074000  0.750000000
     0.965123000  0.065926000  0.250000000
     0.534877000  0.565926000  0.250000000
     0.465123000  0.434074000  0.750000000

  ion indices of the primitive-cell ions
   primitive index   ion index
                 1           1
                 2           2
                 3           3
                 4           4
                 5           5
                 6           6
                 7           7
                 8           8
                 9           9
                10          10
                11          11
                12          12
                13          13
                14          14
                15          15
                16          16
                17          17
                18          18
                19          19
                20          20
                21          21
                22          22
                23          23
                24          24
                25          25
                26          26
                27          27
                28          28
                29          29
                30          30
                31          31
                32          32
                33          33
                34          34
                35          35
                36          36
                37          37
                38          38
                39          39
                40          40
                41          41
                42          42
                43          43
                44          44
                45          45
                46          46
                47          47
                48          48

----------------------------------------------------------------------------------------

 
 
 KPOINTS: pymatgen with grid density = 1162 / numb

Automatic generation of k-mesh.
 Grid dimensions read from file:
 generate k-points for:    3    3    2

 Generating k-lattice:

  Cartesian coordinates                     Fractional coordinates (reciprocal lattice)
     0.037371223  0.000000000  0.000000000     0.333333333  0.000000000  0.000000000
     0.000000000  0.036985147  0.000000000     0.000000000  0.333333333  0.000000000
    -0.000000000 -0.000000000  0.039244142    -0.000000000 -0.000000000  0.500000000

  Length of vectors
     0.037371223  0.036985147  0.039244142

  Shift w.r.t. Gamma in fractional coordinates (k-lattice)
     0.000000000  0.000000000  0.000000000

 TETIRR: Found     51 inequivalent tetrahedra from      108
 
 Subroutine IBZKPT returns following result:
 ===========================================
 
 Found      8 irreducible k-points:
 
 Following reciprocal coordinates:
            Coordinates               Weight
  0.000000  0.000000  0.000000      1.000000
  0.333333  0.000000  0.000000      2.000000
  0.000000  0.333333  0.000000      2.000000
  0.333333  0.333333  0.000000      4.000000
 -0.000000  0.000000  0.500000      1.000000
  0.333333  0.000000  0.500000      2.000000
 -0.000000  0.333333  0.500000      2.000000
  0.333333  0.333333  0.500000      4.000000
 
 Following cartesian coordinates:
            Coordinates               Weight
  0.000000  0.000000  0.000000      1.000000
  0.037371  0.000000  0.000000      2.000000
  0.000000  0.036985  0.000000      2.000000
  0.037371  0.036985  0.000000      4.000000
 -0.000000 -0.000000  0.039244      1.000000
  0.037371 -0.000000  0.039244      2.000000
 -0.000000  0.036985  0.039244      2.000000
  0.037371  0.036985  0.039244      4.000000
 
 -----------------------------------------------------------------------------
|                                                                             |
|           W    W    AA    RRRRR   N    N  II  N    N   GGGG   !!!           |
|           W    W   A  A   R    R  NN   N  II  NN   N  G    G  !!!           |
|           W    W  A    A  R    R  N N  N  II  N N  N  G       !!!           |
|           W WW W  AAAAAA  RRRRR   N  N N  II  N  N N  G  GGG   !            |
|           WW  WW  A    A  R   R   N   NN  II  N   NN  G    G                |
|           W    W  A    A  R    R  N    N  II  N    N   GGGG   !!!           |
|                                                                             |
|     The number of bands has been changed from the values supplied in        |
|     the INCAR file. This is a result of running the parallel version.       |
|     The orbitals not found in the WAVECAR file will be initialized with     |
|     random numbers, which is usually adequate. For correlated               |
|     calculations, however, you should redo the groundstate calculation.     |
|     I found NBANDS = 173. Now, NBANDS = 180.                                |
|                                                                             |
 -----------------------------------------------------------------------------



--------------------------------------------------------------------------------------------------------




 Dimension of arrays:
   k-points           NKPTS =      8   k-points in BZ     NKDIM =      8   number of bands    NBANDS=    180
   number of dos      NEDOS =   2000   number of ions     NIONS =     48
   non local maximal  LDIM  =      6   non local SUM 2l+1 LMDIM =     18
   total plane-waves  NPLWV = 691200
   max r-space proj   IRMAX =      1   max aug-charges    IRDMAX=  39233
   dimension x,y,z NGX =    80 NGY =   80 NGZ =  108
   dimension x,y,z NGXF=   160 NGYF=  160 NGZF=  216
   support grid    NGXF=   160 NGYF=  160 NGZF=  216
   ions per type =              24   4   4  12   4
   NGX,Y,Z   is equivalent  to a cutoff of  14.91, 14.76, 14.09 a.u.
   NGXF,Y,Z  is equivalent  to a cutoff of  29.82, 29.51, 28.18 a.u.

 SYSTEM =  unknown system                          
 POSCAR =  H24 Pb4 C4 I12 N4                       

 Startparameter for this run:
   NWRITE =      2    write-flag & timer
   PREC   = accura    normal or accurate (medium, high low for compatibility)
   ISTART =      0    job   : 0-new  1-cont  2-samecut
   ICHARG =     11    charge: 1-file 2-atom 10-const
   ISPIN  =      1    spin polarized calculation?
   LNONCOLLINEAR =      F non collinear calculations
   LSORBIT =      F    spin-orbit coupling
   INIWAV =      1    electr: 0-lowe 1-rand  2-diag
   LASPH  =      T    aspherical Exc in radial PAW
 Electronic Relaxation 1
   ENCUT  =  680.0 eV  49.98 Ry    7.07 a.u.  18.96 19.16 27.09*2*pi/ulx,y,z
   ENINI  =  680.0     initial cutoff
   ENAUG  = 1360.0 eV  augmentation charge cutoff
   NELM   =    200;   NELMIN=  2; NELMDL= -5     # of ELM steps 
   EDIFF  = 0.1E-04   stopping-criterion for ELM
   LREAL  =      F    real-space projection
   NLSPLINE    = F    spline interpolate recip. space projectors
   LCOMPAT=      F    compatible to vasp.4.4
   GGA_COMPAT  = T    GGA compatible to vasp.4.4-vasp.4.6
   LMAXPAW     = -100 max onsite density
   LMAXMIX     =    6 max onsite mixed and CHGCAR
   VOSKOWN=      0    Vosko Wilk Nusair interpolation
   ROPT   =    0.00000   0.00000   0.00000   0.00000
   ROPT   =    0.00000
 Ionic relaxation
   EDIFFG = 0.1E-03   stopping-criterion for IOM
   NSW    =      0    number of steps for IOM
   NBLOCK =      1;   KBLOCK =      1    inner block; outer block 
   IBRION =     -1    ionic relax: 0-MD 1-quasi-New 2-CG
   NFREE  =      0    steps in history (QN), initial steepest desc. (CG)
   ISIF   =      2    stress and relaxation
   IWAVPR =     10    prediction:  0-non 1-charg 2-wave 3-comb
   ISYM   =      2    0-nonsym 1-usesym 2-fastsym
   LCORR  =      T    Harris-Foulkes like correction to forces

   POTIM  = 0.5000    time-step for ionic-motion
   TEIN   =    0.0    initial temperature
   TEBEG  =    0.0;   TEEND  =   0.0 temperature during run
   SMASS  =  -3.00    Nose mass-parameter (am)
   estimated Nose-frequenzy (Omega)   =  0.10E-29 period in steps = 0.13E+47 mass=  -0.182E-26a.u.
   SCALEE = 1.0000    scale energy and forces
   NPACO  =    256;   APACO  = 10.0  distance and # of slots for P.C.
   PSTRESS=    0.0 pullay stress

  Mass of Ions in am
   POMASS =   1.00207.20 12.01126.90 14.00
  Ionic Valenz
   ZVAL   =   1.00 14.00  4.00  7.00  5.00
  Atomic Wigner-Seitz radii
   RWIGS  =  -1.00 -1.00 -1.00 -1.00 -1.00
  virtual crystal weights 
   VCA    =   1.00  1.00  1.00  1.00  1.00
   NELECT =     200.0000    total number of electrons
   NUPDOWN=      -1.0000    fix difference up-down

 DOS related values:
   EMIN   =  10.00;   EMAX   =-10.00  energy-range for DOS
   EFERMI =   0.00;   METHOD = LEGACY      
   ISMEAR =    -5;   SIGMA  =   0.05  broadening in eV -4-tet -1-fermi 0-gaus

 Electronic relaxation 2 (details)
   IALGO  =     68    algorithm
   LDIAG  =      T    sub-space diagonalisation (order eigenvalues)
   LSUBROT=      F    optimize rotation matrix (better conditioning)
   TURBO    =      0    0=normal 1=particle mesh
   IRESTART =      0    0=no restart 2=restart with 2 vectors
   NREBOOT  =      0    no. of reboots
   NMIN     =      0    reboot dimension
   EREF     =   0.00    reference energy to select bands
   IMIX   =      4    mixing-type and parameters
     AMIX     =   0.40;   BMIX     =  1.00
     AMIX_MAG =   1.60;   BMIX_MAG =  1.00
     AMIN     =   0.10
     WC   =   100.;   INIMIX=   1;  MIXPRE=   1;  MAXMIX= -45

 Intra band minimization:
   WEIMIN = 0.0000     energy-eigenvalue tresh-hold
   EBREAK =  0.14E-07  absolut break condition
   DEPER  =   0.30     relativ break condition  

   TIME   =   0.40     timestep for ELM

  volume/ion in A,a.u.               =      21.34       143.99
  Fermi-wavevector in a.u.,A,eV,Ry     =   0.949778  1.794820 12.273523  0.902078
  Thomas-Fermi vector in A             =   2.078093
 
 Write flags
   LWAVE        =      T    write WAVECAR
   LDOWNSAMPLE  =      F    k-point downsampling of WAVECAR
   LCHARG       =      F    write CHGCAR
   LVTOT        =      T    write LOCPOT, total local potential
   LVHAR        =      F    write LOCPOT, Hartree potential only
   LELF         =      F    write electronic localiz. function (ELF)
   LORBIT       =     11    0 simple, 1 ext, 2 COOP (PROOUT), +10 PAW based schemes


 Dipole corrections
   LMONO  =      F    monopole corrections only (constant potential shift)
   LDIPOL =      F    correct potential (dipole corrections)
   IDIPOL =      0    1-x, 2-y, 3-z, 4-all directions 
   EPSILON=  1.0000000 bulk dielectric constant

 Exchange correlation treatment:
   GGA     =    PS    GGA type
   LEXCH   =    14    internal setting for exchange type
   LIBXC   =     F    Libxc                    
   VOSKOWN =     0    Vosko Wilk Nusair interpolation
   LHFCALC =     F    Hartree Fock is set to
   LHFONE  =     F    Hartree Fock one center treatment
   AEXX    =    0.0000 exact exchange contribution

 Linear response parameters
   LEPSILON=     F    determine dielectric tensor
   LRPA    =     F    only Hartree local field effects (RPA)
   LNABLA  =     F    use nabla operator in PAW spheres
   LVEL    =     F    velocity operator in full k-point grid
   CSHIFT  =0.0000    complex shift for real part using Kramers Kronig
   OMEGAMAX=  -1.0    maximum frequency
   DEG_THRESHOLD= 0.2000000E-02 threshold for treating states as degnerate
   RTIME   =   -0.100 relaxation time in fs
  (WPLASMAI=    0.000 imaginary part of plasma frequency in eV, 0.658/RTIME)
   DFIELD  = 0.0000000 0.0000000 0.0000000 field for delta impulse in time
 
  Optional k-point grid parameters
   LKPOINTS_OPT  =     F    use optional k-point grid
   KPOINTS_OPT_MODE=     1    mode for optional k-point grid
 
 Orbital magnetization related:
   ORBITALMAG=     F  switch on orbital magnetization
   LCHIMAG   =     F  perturbation theory with respect to B field
   DQ        =  0.001000  dq finite difference perturbation B field
   LLRAUG    =     F  two centre corrections for induced B field
   LBONE     =     F  B-component reconstruction in AE one-centre
   LVGVCALC  =     T  calculate vGv susceptibility
   LVGVAPPL  =     F  apply vGv susceptibility instead of pGv for G=0

 Random number generation:
   RANDOM_GENERATOR = DEFAULT
   PCG_SEED         = not used


--------------------------------------------------------------------------------------------------------


 Static calculation
 charge density and potential remain constant during run
 non-spin polarized calculation
 RMM-DIIS sequential band-by-band and
  variant of blocked Davidson during initial phase
 perform sub-space diagonalisation
    before iterative eigenvector-optimisation
 no mixing
 using additional bands           80
 reciprocal scheme for non local part
 use partial core corrections
 calculate Harris-corrections to forces 
   (improved forces if not selfconsistent)
 use gradient corrections 
 WARNING: stress and forces are not correct
  (second derivative of E(xc) not defined)
 use of overlap-Matrix (Vanderbilt PP)
 Fermi weights with tetrahedron method with Bloechl corrections


--------------------------------------------------------------------------------------------------------


  energy-cutoff  :      680.00
  volume of cell :     1024.21
      direct lattice vectors                 reciprocal lattice vectors
     8.919519000  0.000000000  0.000000000     0.112113669  0.000000000  0.000000000
    -0.000000000  9.012627000  0.000000000     0.000000000  0.110955441  0.000000000
     0.000000000  0.000000000 12.740755000    -0.000000000 -0.000000000  0.078488284

  length of vectors
     8.919519000  9.012627000 12.740755000     0.112113669  0.110955441  0.078488284


 
 k-points in units of 2pi/SCALE and weight: pymatgen with grid density = 1162 / numb
   0.00000000  0.00000000  0.00000000       0.056
   0.03737122  0.00000000  0.00000000       0.111
   0.00000000  0.03698515  0.00000000       0.111
   0.03737122  0.03698515  0.00000000       0.222
  -0.00000000 -0.00000000  0.03924414       0.056
   0.03737122 -0.00000000  0.03924414       0.111
  -0.00000000  0.03698515  0.03924414       0.111
   0.03737122  0.03698515  0.03924414       0.222
 
 k-points in reciprocal lattice and weights: pymatgen with grid density = 1162 / numb
   0.00000000  0.00000000  0.00000000       0.056
   0.33333333  0.00000000  0.00000000       0.111
   0.00000000  0.33333333  0.00000000       0.111
   0.33333333  0.33333333  0.00000000       0.222
  -0.00000000  0.00000000  0.50000000       0.056
   0.33333333  0.00000000  0.50000000       0.111
  -0.00000000  0.33333333  0.50000000       0.111
   0.33333333  0.33333333  0.50000000       0.222
 
 position of ions in fractional coordinates (direct lattice) 
   0.38840800  0.41067700  0.32074100
   0.61159200  0.58932300  0.67925900
   0.88840800  0.08932300  0.67925900
   0.11159200  0.91067700  0.32074100
   0.61159200  0.58932300  0.82074100
   0.38840800  0.41067700  0.17925900
   0.11159200  0.91067700  0.17925900
   0.88840800  0.08932300  0.82074100
   0.60256100  0.57777300  0.31509300
   0.39743900  0.42222700  0.68490700
   0.10256100  0.92222700  0.68490700
   0.89743900  0.07777300  0.31509300
   0.39743900  0.42222700  0.81509300
   0.60256100  0.57777300  0.18490700
   0.89743900  0.07777300  0.18490700
   0.10256100  0.92222700  0.81509300
   0.54318000  0.33177500  0.25000000
   0.45682000  0.66822500  0.75000000
   0.04318000  0.16822500  0.75000000
   0.95682000  0.83177500  0.25000000
   0.46015000  0.65369200  0.25000000
   0.53985000  0.34630800  0.75000000
   0.96015000  0.84630800  0.75000000
   0.03985000  0.15369200  0.25000000
   0.00000000  0.50000000  0.00000000
   0.50000000  0.00000000  0.00000000
   0.00000000  0.50000000  0.50000000
   0.50000000  0.00000000  0.50000000
   0.04243100  0.91871800  0.25000000
   0.95756900  0.08128200  0.75000000
   0.54243100  0.58128200  0.75000000
   0.45756900  0.41871800  0.25000000
   0.19719800  0.19864400  0.01838900
   0.80280200  0.80135600  0.98161100
   0.69719800  0.30135600  0.98161100
   0.30280200  0.69864400  0.01838900
   0.80280200  0.80135600  0.51838900
   0.19719800  0.19864400  0.48161100
   0.30280200  0.69864400  0.48161100
   0.69719800  0.30135600  0.51838900
   0.94206700  0.47814400  0.25000000
   0.05793300  0.52185600  0.75000000
   0.44206700  0.02185600  0.75000000
   0.55793300  0.97814400  0.25000000
   0.03487700  0.93407400  0.75000000
   0.96512300  0.06592600  0.25000000
   0.53487700  0.56592600  0.25000000
   0.46512300  0.43407400  0.75000000
 
 position of ions in cartesian coordinates  (Angst):
   3.46441254  3.70127862  4.08648250
   5.45510646  5.31134838  8.65427250
   7.92417204  0.80503488  8.65427250
   0.99534696  8.20759212  4.08648250
   5.45510646  5.31134838 10.45686000
   3.46441254  3.70127862  2.28389500
   0.99534696  8.20759212  2.28389500
   7.92417204  0.80503488 10.45686000
   5.37455429  5.20725254  4.01452272
   3.54496471  3.80537446  8.72623228
   0.91479479  8.31168796  8.72623228
   8.00472421  0.70093904  4.01452272
   3.54496471  3.80537446 10.38490022
   5.37455429  5.20725254  2.35585478
   8.00472421  0.70093904  2.35585478
   0.91479479  8.31168796 10.38490022
   4.84490433  2.99016432  3.18518875
   4.07461467  6.02246268  9.55556625
   0.38514483  1.51614918  9.55556625
   8.53437417  7.49647782  3.18518875
   4.10431667  5.89148217  3.18518875
   4.81520233  3.12114483  9.55556625
   8.56407617  7.62745833  9.55556625
   0.35544283  1.38516867  3.18518875
  -0.00000000  4.50631350  0.00000000
   4.45975950  0.00000000  0.00000000
  -0.00000000  4.50631350  6.37037750
   4.45975950  0.00000000  6.37037750
   0.37846411  8.28006265  3.18518875
   8.54105489  0.73256435  9.55556625
   4.83822361  5.23887785  9.55556625
   4.08129539  3.77374915  3.18518875
   1.75891131  1.79030428  0.23428974
   7.16060769  7.22232272 12.50646526
   6.21867081  2.71600922 12.50646526
   2.70084819  6.29661778  0.23428974
   7.16060769  7.22232272  6.60466724
   1.75891131  1.79030428  6.13608776
   2.70084819  6.29661778  6.13608776
   6.21867081  2.71600922  6.60466724
   8.40278451  4.30933352  3.18518875
   0.51673449  4.70329348  9.55556625
   3.94302501  0.19697998  9.55556625
   4.97649399  8.81564702  3.18518875
   0.31108606  8.41846055  9.55556625
   8.60843294  0.59416645  3.18518875
   4.77084556  5.10047995  3.18518875
   4.14867344  3.91214705  9.55556625
 


--------------------------------------------------------------------------------------------------------


 k-point   1 :   0.0000 0.0000 0.0000  plane waves:   41225
 k-point   2 :   0.3333 0.0000 0.0000  plane waves:   41206
 k-point   3 :   0.0000 0.3333 0.0000  plane waves:   41198
 k-point   4 :   0.3333 0.3333 0.0000  plane waves:   41256
 k-point   5 :  -0.0000 0.0000 0.5000  plane waves:   41234
 k-point   6 :   0.3333 0.0000 0.5000  plane waves:   41294
 k-point   7 :  -0.0000 0.3333 0.5000  plane waves:   41248
 k-point   8 :   0.3333 0.3333 0.5000  plane waves:   41234

 maximum and minimum number of plane-waves per node :      4166     4054

 maximum number of plane-waves:     41294
 maximum index in each direction: 
   IXMAX=   18   IYMAX=   19   IZMAX=   27
   IXMIN=  -19   IYMIN=  -19   IZMIN=  -27


 parallel 3D FFT for wavefunctions:
    minimum data exchange during FFTs selected (reduces bandwidth)
 parallel 3D FFT for charge:
    minimum data exchange during FFTs selected (reduces bandwidth)


 total amount of memory used by VASP MPI-rank0    77727. kBytes
=======================================================================

   base      :      30000. kBytes
   nonl-proj :      27025. kBytes
   fftplans  :       4216. kBytes
   grid      :       8345. kBytes
   one-center:         77. kBytes
   wavefun   :       8064. kBytes
 
     INWAV:  cpu time      0.0000: real time      0.0002
 initial charge density was supplied:
 number of electron     199.9999994 magnetization 
 keeping initial charge density in first step


--------------------------------------------------------------------------------------------------------


 Maximum index for augmentation-charges         1267 (set IRDMAX)


--------------------------------------------------------------------------------------------------------


 First call to EWALD:  gamma=   0.176
 Maximum number of real-space cells 3x 3x 2
 Maximum number of reciprocal cells 2x 3x 3

    FEWALD:  cpu time      0.0030: real time      0.0032


--------------------------------------- Ionic step        1  -------------------------------------------




--------------------------------------- Iteration      1(   1)  ---------------------------------------


    POTLOK:  cpu time      0.0590: real time      0.0612
    SETDIJ:  cpu time      0.1316: real time      0.1324
     EDDAV:  cpu time      2.9143: real time      2.9282
 BZINTS: Fermi energy:   11.352883;  200.000000 electrons
         Band energy: 0.410771E+03;  BLOECHL correction:   -0.033240
       DOS:  cpu time      0.0239: real time      0.0241
    --------------------------------------------
      LOOP:  cpu time      3.1289: real time      3.1460

 eigenvalue-minimisations  :  2880
 total energy-change (2. order) : 0.1620345E+04  (-0.9056573E+04)
 number of electron     199.9999994 magnetization 
 augmentation part      199.9999994 magnetization 

 Free energy of the ion-electron system (eV)
  ---------------------------------------------------
  alpha Z        PSCENC =       180.38090441
  Ewald energy   TEWEN  =     -7816.47850740
  -Hartree energ DENC   =     -4111.71680530
  -exchange      EXHF   =         0.00000000
  -V(xc)+E(xc)   XCENC  =       207.65122979
  PAW double counting   =     14128.32826919   -13753.08920028
  entropy T*S    EENTRO =         0.00000000
  eigenvalues    EBANDS =       410.77146994
  atomic energy  EATOM  =     12374.49751190
  Solvation  Ediel_sol  =         0.00000000
  ---------------------------------------------------
  free energy    TOTEN  =      1620.34487225 eV

  energy without entropy =     1620.34487225  energy(sigma->0) =     1620.34487225


--------------------------------------------------------------------------------------------------------




--------------------------------------- Iteration      1(   2)  ---------------------------------------


     EDDAV:  cpu time      3.0052: real time      3.0151
 BZINTS: Fermi energy:    3.251191;  200.000000 electrons
         Band energy:-0.116630E+04;  BLOECHL correction:    0.000000
       DOS:  cpu time      0.0151: real time      0.0151
    --------------------------------------------
      LOOP:  cpu time      3.0203: real time      3.0302

 eigenvalue-minimisations  :  3108
 total energy-change (2. order) :-0.1577070E+04  (-0.1457659E+04)
 number of electron     199.9999994 magnetization 
 augmentation part      199.9999994 magnetization 

 Free energy of the ion-electron system (eV)
  ---------------------------------------------------
  alpha Z        PSCENC =       180.38090441
  Ewald energy   TEWEN  =     -7816.47850740
  -Hartree energ DENC   =     -4111.71680530
  -exchange      EXHF   =         0.00000000
  -V(xc)+E(xc)   XCENC  =       207.65122979
  PAW double counting   =     14128.32826919   -13753.08920028
  entropy T*S    EENTRO =         0.00000000
  eigenvalues    EBANDS =     -1166.29815665
  atomic energy  EATOM  =     12374.49751190
  Solvation  Ediel_sol  =         0.00000000
  ---------------------------------------------------
  free energy    TOTEN  =        43.27524566 eV

  energy without entropy =       43.27524566  energy(sigma->0) =       43.27524566


--------------------------------------------------------------------------------------------------------




--------------------------------------- Iteration      1(   3)  ---------------------------------------


     EDDAV:  cpu time      3.4617: real time      3.4835
 BZINTS: Fermi energy:    1.198166;  200.000000 electrons
         Band energy:-0.140202E+04;  BLOECHL correction:    0.000000
       DOS:  cpu time      0.0184: real time      0.0185
    --------------------------------------------
      LOOP:  cpu time      3.4801: real time      3.5019

 eigenvalue-minimisations  :  3756
 total energy-change (2. order) :-0.2357198E+03  (-0.2306229E+03)
 number of electron     199.9999994 magnetization 
 augmentation part      199.9999994 magnetization 

 Free energy of the ion-electron system (eV)
  ---------------------------------------------------
  alpha Z        PSCENC =       180.38090441
  Ewald energy   TEWEN  =     -7816.47850740
  -Hartree energ DENC   =     -4111.71680530
  -exchange      EXHF   =         0.00000000
  -V(xc)+E(xc)   XCENC  =       207.65122979
  PAW double counting   =     14128.32826919   -13753.08920028
  entropy T*S    EENTRO =         0.00000000
  eigenvalues    EBANDS =     -1402.01792759
  atomic energy  EATOM  =     12374.49751190
  Solvation  Ediel_sol  =         0.00000000
  ---------------------------------------------------
  free energy    TOTEN  =      -192.44452529 eV

  energy without entropy =     -192.44452529  energy(sigma->0) =     -192.44452529


--------------------------------------------------------------------------------------------------------




--------------------------------------- Iteration      1(   4)  ---------------------------------------


     EDDAV:  cpu time      3.6354: real time      3.6597
 BZINTS: Fermi energy:    1.105221;  200.000000 electrons
         Band energy:-0.141682E+04;  BLOECHL correction:    0.000000
       DOS:  cpu time      0.0179: real time      0.0180
    --------------------------------------------
      LOOP:  cpu time      3.6532: real time      3.6776

 eigenvalue-minimisations  :  3840
 total energy-change (2. order) :-0.1480242E+02  (-0.1474375E+02)
 number of electron     199.9999994 magnetization 
 augmentation part      199.9999994 magnetization 

 Free energy of the ion-electron system (eV)
  ---------------------------------------------------
  alpha Z        PSCENC =       180.38090441
  Ewald energy   TEWEN  =     -7816.47850740
  -Hartree energ DENC   =     -4111.71680530
  -exchange      EXHF   =         0.00000000
  -V(xc)+E(xc)   XCENC  =       207.65122979
  PAW double counting   =     14128.32826919   -13753.08920028
  entropy T*S    EENTRO =         0.00000000
  eigenvalues    EBANDS =     -1416.82034440
  atomic energy  EATOM  =     12374.49751190
  Solvation  Ediel_sol  =         0.00000000
  ---------------------------------------------------
  free energy    TOTEN  =      -207.24694210 eV

  energy without entropy =     -207.24694210  energy(sigma->0) =     -207.24694210


--------------------------------------------------------------------------------------------------------




--------------------------------------- Iteration      1(   5)  ---------------------------------------


     EDDAV:  cpu time      3.8182: real time      3.8416
 BZINTS: Fermi energy:    1.093856;  200.000000 electrons
         Band energy:-0.141743E+04;  BLOECHL correction:    0.000000
       DOS:  cpu time      0.0158: real time      0.0158
    --------------------------------------------
      LOOP:  cpu time      3.8339: real time      3.8574

 eigenvalue-minimisations  :  4080
 total energy-change (2. order) :-0.6106920E+00  (-0.6103467E+00)
 number of electron     199.9999994 magnetization 
 augmentation part      199.9999994 magnetization 

 Free energy of the ion-electron system (eV)
  ---------------------------------------------------
  alpha Z        PSCENC =       180.38090441
  Ewald energy   TEWEN  =     -7816.47850740
  -Hartree energ DENC   =     -4111.71680530
  -exchange      EXHF   =         0.00000000
  -V(xc)+E(xc)   XCENC  =       207.65122979
  PAW double counting   =     14128.32826919   -13753.08920028
  entropy T*S    EENTRO =         0.00000000
  eigenvalues    EBANDS =     -1417.43103642
  atomic energy  EATOM  =     12374.49751190
  Solvation  Ediel_sol  =         0.00000000
  ---------------------------------------------------
  free energy    TOTEN  =      -207.85763411 eV

  energy without entropy =     -207.85763411  energy(sigma->0) =     -207.85763411


--------------------------------------------------------------------------------------------------------




--------------------------------------- Iteration      1(   6)  ---------------------------------------


    EDDIAG:  cpu time      0.5398: real time      0.5558
  RMM-DIIS:  cpu time      2.1850: real time      2.1905
    ORTHCH:  cpu time      0.0988: real time      0.0993
 BZINTS: Fermi energy:    1.091494;  200.000000 electrons
         Band energy:-0.141744E+04;  BLOECHL correction:    0.000000
       DOS:  cpu time      0.0160: real time      0.0160
    --------------------------------------------
      LOOP:  cpu time      2.8396: real time      2.8616

 eigenvalue-minimisations  :  3717
 total energy-change (2. order) :-0.1372386E-01  (-0.1372386E-01)
 number of electron     199.9999994 magnetization 
 augmentation part      199.9999994 magnetization 

 Free energy of the ion-electron system (eV)
  ---------------------------------------------------
  alpha Z        PSCENC =       180.38090441
  Ewald energy   TEWEN  =     -7816.47850740
  -Hartree energ DENC   =     -4111.71680530
  -exchange      EXHF   =         0.00000000
  -V(xc)+E(xc)   XCENC  =       207.65122979
  PAW double counting   =     14128.32826919   -13753.08920028
  entropy T*S    EENTRO =         0.00000000
  eigenvalues    EBANDS =     -1417.44476028
  atomic energy  EATOM  =     12374.49751190
  Solvation  Ediel_sol  =         0.00000000
  ---------------------------------------------------
  free energy    TOTEN  =      -207.87135797 eV

  energy without entropy =     -207.87135797  energy(sigma->0) =     -207.87135797


--------------------------------------------------------------------------------------------------------




--------------------------------------- Iteration      1(   7)  ---------------------------------------


    EDDIAG:  cpu time      0.5423: real time      0.5571
  RMM-DIIS:  cpu time      3.1748: real time      3.1833
    ORTHCH:  cpu time      0.0997: real time      0.0999
 BZINTS: Fermi energy:    1.086984;  200.000000 electrons
         Band energy:-0.141745E+04;  BLOECHL correction:    0.000000
       DOS:  cpu time      0.0155: real time      0.0156
    --------------------------------------------
      LOOP:  cpu time      3.8323: real time      3.8559

 eigenvalue-minimisations  :  5207
 total energy-change (2. order) :-0.6008940E-02  (-0.6660699E-02)
 number of electron     199.9999994 magnetization 
 augmentation part      199.9999994 magnetization 

 Free energy of the ion-electron system (eV)
  ---------------------------------------------------
  alpha Z        PSCENC =       180.38090441
  Ewald energy   TEWEN  =     -7816.47850740
  -Hartree energ DENC   =     -4111.71680530
  -exchange      EXHF   =         0.00000000
  -V(xc)+E(xc)   XCENC  =       207.65122979
  PAW double counting   =     14128.32826919   -13753.08920028
  entropy T*S    EENTRO =         0.00000000
  eigenvalues    EBANDS =     -1417.45076922
  atomic energy  EATOM  =     12374.49751190
  Solvation  Ediel_sol  =         0.00000000
  ---------------------------------------------------
  free energy    TOTEN  =      -207.87736691 eV

  energy without entropy =     -207.87736691  energy(sigma->0) =     -207.87736691


--------------------------------------------------------------------------------------------------------




--------------------------------------- Iteration      1(   8)  ---------------------------------------


    EDDIAG:  cpu time      0.5614: real time      0.5771
  RMM-DIIS:  cpu time      3.0559: real time      3.0637
    ORTHCH:  cpu time      0.0992: real time      0.0994
 BZINTS: Fermi energy:    1.084648;  200.000000 electrons
         Band energy:-0.141745E+04;  BLOECHL correction:    0.000000
       DOS:  cpu time      0.0152: real time      0.0153
    --------------------------------------------
      LOOP:  cpu time      3.7317: real time      3.7555

 eigenvalue-minimisations  :  4799
 total energy-change (2. order) :-0.3991756E-03  (-0.4577486E-03)
 number of electron     199.9999994 magnetization 
 augmentation part      199.9999994 magnetization 

 Free energy of the ion-electron system (eV)
  ---------------------------------------------------
  alpha Z        PSCENC =       180.38090441
  Ewald energy   TEWEN  =     -7816.47850740
  -Hartree energ DENC   =     -4111.71680530
  -exchange      EXHF   =         0.00000000
  -V(xc)+E(xc)   XCENC  =       207.65122979
  PAW double counting   =     14128.32826919   -13753.08920028
  entropy T*S    EENTRO =         0.00000000
  eigenvalues    EBANDS =     -1417.45116839
  atomic energy  EATOM  =     12374.49751190
  Solvation  Ediel_sol  =         0.00000000
  ---------------------------------------------------
  free energy    TOTEN  =      -207.87776609 eV

  energy without entropy =     -207.87776609  energy(sigma->0) =     -207.87776609


--------------------------------------------------------------------------------------------------------




--------------------------------------- Iteration      1(   9)  ---------------------------------------


    EDDIAG:  cpu time      0.5571: real time      0.5735
  RMM-DIIS:  cpu time      2.9496: real time      2.9571
    ORTHCH:  cpu time      0.1027: real time      0.1030
 BZINTS: Fermi energy:    1.083110;  200.000000 electrons
         Band energy:-0.141745E+04;  BLOECHL correction:    0.000000
       DOS:  cpu time      0.0153: real time      0.0154
    --------------------------------------------
      LOOP:  cpu time      3.6247: real time      3.6490

 eigenvalue-minimisations  :  4786
 total energy-change (2. order) :-0.1450213E-03  (-0.1590791E-03)
 number of electron     199.9999994 magnetization 
 augmentation part      199.9999994 magnetization 

 Free energy of the ion-electron system (eV)
  ---------------------------------------------------
  alpha Z        PSCENC =       180.38090441
  Ewald energy   TEWEN  =     -7816.47850740
  -Hartree energ DENC   =     -4111.71680530
  -exchange      EXHF   =         0.00000000
  -V(xc)+E(xc)   XCENC  =       207.65122979
  PAW double counting   =     14128.32826919   -13753.08920028
  entropy T*S    EENTRO =         0.00000000
  eigenvalues    EBANDS =     -1417.45131342
  atomic energy  EATOM  =     12374.49751190
  Solvation  Ediel_sol  =         0.00000000
  ---------------------------------------------------
  free energy    TOTEN  =      -207.87791111 eV

  energy without entropy =     -207.87791111  energy(sigma->0) =     -207.87791111


--------------------------------------------------------------------------------------------------------




--------------------------------------- Iteration      1(  10)  ---------------------------------------


    EDDIAG:  cpu time      0.5844: real time      0.5864
  RMM-DIIS:  cpu time      2.1957: real time      2.2014
    ORTHCH:  cpu time      0.0973: real time      0.0975
 BZINTS: Fermi energy:    1.098568;  200.000000 electrons
         Band energy:-0.141745E+04;  BLOECHL correction:    0.000000
       DOS:  cpu time      0.0155: real time      0.0155
    --------------------------------------------
      LOOP:  cpu time      2.8929: real time      2.9009

 eigenvalue-minimisations  :  3613
 total energy-change (2. order) :-0.4492547E-05  (-0.9433855E-05)
 number of electron     199.9999994 magnetization 
 augmentation part      199.9999994 magnetization 

 Free energy of the ion-electron system (eV)
  ---------------------------------------------------
  alpha Z        PSCENC =       180.38090441
  Ewald energy   TEWEN  =     -7816.47850740
  -Hartree energ DENC   =     -4111.71680530
  -exchange      EXHF   =         0.00000000
  -V(xc)+E(xc)   XCENC  =       207.65122979
  PAW double counting   =     14128.32826919   -13753.08920028
  entropy T*S    EENTRO =         0.00000000
  eigenvalues    EBANDS =     -1417.45131791
  atomic energy  EATOM  =     12374.49751190
  Solvation  Ediel_sol  =         0.00000000
  ---------------------------------------------------
  free energy    TOTEN  =      -207.87791560 eV

  energy without entropy =     -207.87791560  energy(sigma->0) =     -207.87791560


--------------------------------------------------------------------------------------------------------




 average (electrostatic) potential at core
  the test charge radii are     0.5201  1.1541  0.6991  1.1875  0.7089
  (the norm of the test charge is              1.0000)
       1 -35.6734       2 -35.6734       3 -35.6734       4 -35.6734       5 -35.6734
       6 -35.6734       7 -35.6734       8 -35.6734       9 -38.6598      10 -38.6598
      11 -38.6598      12 -38.6598      13 -38.6598      14 -38.6598      15 -38.6598
      16 -38.6598      17 -35.6763      18 -35.6763      19 -35.6763      20 -35.6763
      21 -38.5297      22 -38.5297      23 -38.5297      24 -38.5297      25 -95.6748
      26 -95.6748      27 -95.6748      28 -95.6748      29 -53.6568      30 -53.6568
      31 -53.6568      32 -53.6568      33 -93.4499      34 -93.4499      35 -93.4499
      36 -93.4499      37 -93.4499      38 -93.4499      39 -93.4499      40 -93.4499
      41 -93.3904      42 -93.3904      43 -93.3904      44 -93.3904      45 -70.3562
      46 -70.3562      47 -70.3562      48 -70.3562
 
 
 
 E-fermi :   1.0986     XC(G=0):  -7.6983     alpha+bet : -6.9817

 Fermi energy:         1.0985679309

 k-point     1 :       0.0000    0.0000    0.0000
  band No.  band energies     occupation 
      1     -18.7715      2.00000
      2     -18.7712      2.00000
      3     -18.7702      2.00000
      4     -18.7700      2.00000
      5     -15.3844      2.00000
      6     -15.3803      2.00000
      7     -15.3755      2.00000
      8     -15.3713      2.00000
      9     -15.3589      2.00000
     10     -15.3589      2.00000
     11     -15.3462      2.00000
     12     -15.3462      2.00000
     13     -15.3391      2.00000
     14     -15.3389      2.00000
     15     -15.3388      2.00000
     16     -15.3386      2.00000
     17     -15.3383      2.00000
     18     -15.3380      2.00000
     19     -15.3379      2.00000
     20     -15.3376      2.00000
     21     -15.3195      2.00000
     22     -15.3195      2.00000
     23     -15.3187      2.00000
     24     -15.3187      2.00000
     25     -11.6185      2.00000
     26     -11.6146      2.00000
     27     -11.6117      2.00000
     28     -11.6100      2.00000
     29     -10.7094      2.00000
     30     -10.5314      2.00000
     31     -10.3260      2.00000
     32     -10.3079      2.00000
     33     -10.2832      2.00000
     34     -10.2429      2.00000
     35     -10.2386      2.00000
     36     -10.2347      2.00000
     37     -10.2003      2.00000
     38     -10.0723      2.00000
     39     -10.0714      2.00000
     40     -10.0588      2.00000
     41      -8.2154      2.00000
     42      -8.2101      2.00000
     43      -8.2090      2.00000
     44      -8.2072      2.00000
     45      -8.1912      2.00000
     46      -8.1905      2.00000
     47      -8.1786      2.00000
     48      -8.1710      2.00000
     49      -7.0546      2.00000
     50      -6.5875      2.00000
     51      -6.1991      2.00000
     52      -6.0311      2.00000
     53      -6.0292      2.00000
     54      -6.0283      2.00000
     55      -6.0216      2.00000
     56      -5.7436      2.00000
     57      -3.8483      2.00000
     58      -3.8480      2.00000
     59      -3.8452      2.00000
     60      -3.8244      2.00000
     61      -3.8156      2.00000
     62      -3.8075      2.00000
     63      -3.7854      2.00000
     64      -3.7707      2.00000
     65      -2.0815      2.00000
     66      -1.9291      2.00000
     67      -1.9184      2.00000
     68      -1.8250      2.00000
     69      -1.6553      2.00000
     70      -1.6340      2.00000
     71      -0.8204      2.00000
     72      -0.6671      2.00000
     73      -0.6624      2.00000
     74      -0.6249      2.00000
     75      -0.4904      2.00000
     76      -0.4268      2.00000
     77      -0.3609      2.00000
     78      -0.1787      2.00000
     79      -0.1661      2.00000
     80      -0.1318      2.00000
     81      -0.1264      2.00000
     82      -0.1087      2.00000
     83      -0.0238      2.00000
     84      -0.0135      2.00000
     85       0.0169      2.00000
     86       0.0618      2.00000
     87       0.1374      2.00000
     88       0.1420      2.00000
     89       0.2137      2.00000
     90       0.2486      2.00000
     91       0.2599      2.00000
     92       0.2977      2.00000
     93       0.3149      2.00000
     94       0.3199      2.00000
     95       0.4562      2.00000
     96       0.4958      2.00000
     97       0.5729      2.00000
     98       0.5734      2.00000
     99       0.8042      2.00000
    100       1.0823      2.00000
    101       2.7657      0.00000
    102       2.7956      0.00000
    103       2.8489      0.00000
    104       3.1224      0.00000
    105       3.2065      0.00000
    106       3.5189      0.00000
    107       4.7075      0.00000
    108       5.4603      0.00000
    109       5.6610      0.00000
    110       5.6700      0.00000
    111       5.6912      0.00000
    112       5.7940      0.00000
    113       5.9462      0.00000
    114       5.9490      0.00000
    115       6.1377      0.00000
    116       6.2229      0.00000
    117       6.2260      0.00000
    118       6.3176      0.00000
    119       6.3425      0.00000
    120       6.4766      0.00000
    121       6.5131      0.00000
    122       6.5176      0.00000
    123       6.7482      0.00000
    124       6.7656      0.00000
    125       6.8473      0.00000
    126       6.8875      0.00000
    127       7.0124      0.00000
    128       7.0693      0.00000
    129       7.2629      0.00000
    130       7.4038      0.00000
    131       7.6864      0.00000
    132       7.7290      0.00000
    133       7.7771      0.00000
    134       7.7871      0.00000
    135       7.7886      0.00000
    136       7.8786      0.00000
    137       7.9031      0.00000
    138       8.0001      0.00000
    139       8.0889      0.00000
    140       8.1743      0.00000
    141       8.2578      0.00000
    142       8.2796      0.00000
    143       8.4395      0.00000
    144       8.4612      0.00000
    145       8.4759      0.00000
    146       8.6447      0.00000
    147       8.6760      0.00000
    148       8.6854      0.00000
    149       8.8065      0.00000
    150       8.8979      0.00000
    151       8.9949      0.00000
    152       9.0936      0.00000
    153       9.1549      0.00000
    154       9.3163      0.00000
    155       9.3281      0.00000
    156       9.3797      0.00000
    157       9.4911      0.00000
    158       9.4924      0.00000
    159       9.5388      0.00000
    160       9.6154      0.00000
    161       9.6187      0.00000
    162       9.6302      0.00000
    163       9.6338      0.00000
    164       9.8521      0.00000
    165       9.9116      0.00000
    166       9.9515      0.00000
    167       9.9639      0.00000
    168      10.0656      0.00000
    169      10.2164      0.00000
    170      10.2783      0.00000
    171      10.2920      0.00000
    172      10.4131      0.00000
    173      10.6019      0.00000
    174      10.6841      0.00000
    175      10.7839      0.00000
    176      10.9185      0.00000
    177      11.0210      0.00000
    178      11.1417      0.00000
    179      11.2340      0.00000
    180      11.3414      0.00000

 k-point     2 :       0.3333    0.0000    0.0000
  band No.  band energies     occupation 
      1     -18.7712      2.00000
      2     -18.7710      2.00000
      3     -18.7704      2.00000
      4     -18.7702      2.00000
      5     -15.3834      2.00000
      6     -15.3813      2.00000
      7     -15.3745      2.00000
      8     -15.3723      2.00000
      9     -15.3557      2.00000
     10     -15.3557      2.00000
     11     -15.3493      2.00000
     12     -15.3493      2.00000
     13     -15.3391      2.00000
     14     -15.3390      2.00000
     15     -15.3387      2.00000
     16     -15.3386      2.00000
     17     -15.3382      2.00000
     18     -15.3380      2.00000
     19     -15.3378      2.00000
     20     -15.3377      2.00000
     21     -15.3193      2.00000
     22     -15.3193      2.00000
     23     -15.3189      2.00000
     24     -15.3189      2.00000
     25     -11.6174      2.00000
     26     -11.6149      2.00000
     27     -11.6124      2.00000
     28     -11.6121      2.00000
     29     -10.6465      2.00000
     30     -10.4853      2.00000
     31     -10.4662      2.00000
     32     -10.3209      2.00000
     33     -10.2872      2.00000
     34     -10.2709      2.00000
     35     -10.2011      2.00000
     36     -10.1814      2.00000
     37     -10.1392      2.00000
     38     -10.1157      2.00000
     39     -10.1133      2.00000
     40     -10.0743      2.00000
     41      -8.2139      2.00000
     42      -8.2095      2.00000
     43      -8.2038      2.00000
     44      -8.2029      2.00000
     45      -8.1948      2.00000
     46      -8.1937      2.00000
     47      -8.1768      2.00000
     48      -8.1726      2.00000
     49      -6.8544      2.00000
     50      -6.4322      2.00000
     51      -6.4036      2.00000
[...]
   32.782740    0.838954    0.837755    0.836518    0.000000   -0.000000   -0.000000
   32.800862    0.839164    0.837964    0.836729    0.000000   -0.000000   -0.000000
   32.818984    0.839372    0.838173    0.836940    0.000000   -0.000000   -0.000000
   32.837106    0.839581    0.838381    0.837150    0.000000   -0.000000   -0.000000
   32.855228    0.839789    0.838589    0.837360    0.000000   -0.000000   -0.000000
   32.873350    0.839996    0.838796    0.837570    0.000000   -0.000000   -0.000000
   32.891472    0.840203    0.839003    0.837779    0.000000   -0.000000   -0.000000
   32.909594    0.840409    0.839209    0.837987    0.000000   -0.000000   -0.000000
   32.927716    0.840615    0.839415    0.838196    0.000000   -0.000000   -0.000000
   32.945838    0.840821    0.839621    0.838403    0.000000   -0.000000   -0.000000
   32.963960    0.841026    0.839826    0.838610    0.000000   -0.000000   -0.000000
   32.982082    0.841230    0.840031    0.838817    0.000000   -0.000000   -0.000000
   33.000204    0.841435    0.840235    0.839023    0.000000   -0.000000   -0.000000
   33.018326    0.841638    0.840438    0.839229    0.000000   -0.000000   -0.000000
   33.036448    0.841842    0.840642    0.839435    0.000000   -0.000000   -0.000000
   33.054570    0.842044    0.840845    0.839639    0.000000   -0.000000   -0.000000
   33.072692    0.842247    0.841047    0.839844    0.000000   -0.000000   -0.000000
   33.090814    0.842449    0.841249    0.840048    0.000000   -0.000000   -0.000000
   33.108936    0.842650    0.841451    0.840251    0.000000   -0.000000   -0.000000
   33.127058    0.842851    0.841652    0.840455    0.000000   -0.000000   -0.000000
   33.145180    0.843052    0.841853    0.840657    0.000000   -0.000000   -0.000000
   33.163302    0.843252    0.842053    0.840860    0.000000   -0.000000   -0.000000
   33.181424    0.843452    0.842253    0.841061    0.000000   -0.000000   -0.000000
   33.199546    0.843651    0.842452    0.841263    0.000000   -0.000000   -0.000000
   33.217668    0.843850    0.842651    0.841464    0.000000   -0.000000   -0.000000
   33.235790    0.844048    0.842850    0.841664    0.000000   -0.000000   -0.000000
   33.253912    0.844246    0.843048    0.841864    0.000000   -0.000000   -0.000000
   33.272034    0.844444    0.843246    0.842064    0.000000   -0.000000   -0.000000
   33.290156    0.844641    0.843443    0.842263    0.000000   -0.000000   -0.000000
   33.308278    0.844837    0.843640    0.842462    0.000000   -0.000000   -0.000000
   33.326400    0.845034    0.843836    0.842660    0.000000   -0.000000   -0.000000
   33.344523    0.845229    0.844032    0.842858    0.000000   -0.000000   -0.000000
   33.362645    0.845425    0.844228    0.843056    0.000000   -0.000000   -0.000000
   33.380767    0.845620    0.844423    0.843253    0.000000   -0.000000   -0.000000
   33.398889    0.845814    0.844618    0.843450    0.000000   -0.000000   -0.000000
   33.417011    0.846009    0.844812    0.843646    0.000000   -0.000000   -0.000000
   33.435133    0.846202    0.845007    0.843842    0.000000   -0.000000   -0.000000
   33.453255    0.846396    0.845200    0.844037    0.000000   -0.000000   -0.000000
   33.471377    0.846589    0.845393    0.844232    0.000000   -0.000000   -0.000000
   33.489499    0.846781    0.845586    0.844427    0.000000   -0.000000   -0.000000
   33.507621    0.846973    0.845779    0.844621    0.000000   -0.000000   -0.000000
   33.525743    0.847165    0.845971    0.844815    0.000000   -0.000000   -0.000000
   33.543865    0.847356    0.846162    0.845008    0.000000   -0.000000   -0.000000
   33.561987    0.847547    0.846353    0.845201    0.000000   -0.000000   -0.000000
   33.580109    0.847738    0.846544    0.845394    0.000000   -0.000000   -0.000000
   33.598231    0.847928    0.846735    0.845586    0.000000   -0.000000   -0.000000
   33.616353    0.848118    0.846925    0.845778    0.000000   -0.000000   -0.000000
   33.634475    0.848307    0.847114    0.845969    0.000000   -0.000000   -0.000000
   33.652597    0.848496    0.847304    0.846160    0.000000   -0.000000   -0.000000
   33.670719    0.848684    0.847492    0.846351    0.000000   -0.000000   -0.000000
   33.688841    0.848872    0.847681    0.846541    0.000000   -0.000000   -0.000000
   33.706963    0.849060    0.847869    0.846731    0.000000   -0.000000   -0.000000
   33.725085    0.849248    0.848057    0.846920    0.000000   -0.000000   -0.000000
   33.743207    0.849434    0.848244    0.847109    0.000000   -0.000000   -0.000000
   33.761329    0.849621    0.848431    0.847298    0.000000   -0.000000   -0.000000
   33.779451    0.849807    0.848617    0.847486    0.000000   -0.000000   -0.000000
   33.797573    0.849993    0.848804    0.847674    0.000000   -0.000000   -0.000000
   33.815695    0.850178    0.848989    0.847862    0.000000   -0.000000   -0.000000
   33.833817    0.850363    0.849175    0.848049    0.000000   -0.000000   -0.000000
   33.851939    0.850548    0.849360    0.848235    0.000000   -0.000000   -0.000000
   33.870061    0.850732    0.849545    0.848422    0.000000   -0.000000   -0.000000
   33.888183    0.850916    0.849729    0.848608    0.000000   -0.000000   -0.000000
   33.906305    0.851100    0.849913    0.848793    0.000000   -0.000000   -0.000000
   33.924427    0.851283    0.850096    0.848978    0.000000   -0.000000   -0.000000
   33.942549    0.851465    0.850279    0.849163    0.000000   -0.000000   -0.000000
   33.960671    0.851648    0.850462    0.849348    0.000000   -0.000000   -0.000000
   33.978793    0.851830    0.850645    0.849532    0.000000   -0.000000   -0.000000
   33.996915    0.852011    0.850827    0.849715    0.000000   -0.000000   -0.000000
   34.015037    0.852193    0.851009    0.849899    0.000000   -0.000000   -0.000000
   34.033159    0.852374    0.851190    0.850082    0.000000   -0.000000   -0.000000
   34.051281    0.852554    0.851371    0.850264    0.000000   -0.000000   -0.000000
   34.069403    0.852734    0.851551    0.850446    0.000000   -0.000000   -0.000000
   34.087525    0.852914    0.851732    0.850628    0.000000   -0.000000   -0.000000
   34.105647    0.853094    0.851912    0.850810    0.000000   -0.000000   -0.000000
   34.123770    0.853273    0.852091    0.850991    0.000000   -0.000000   -0.000000
   34.141892    0.853451    0.852270    0.851172    0.000000   -0.000000   -0.000000
   34.160014    0.853630    0.852449    0.851352    0.000000   -0.000000   -0.000000
   34.178136    0.853808    0.852628    0.851532    0.000000   -0.000000   -0.000000
   34.196258    0.853985    0.852806    0.851712    0.000000   -0.000000   -0.000000
   34.214380    0.854162    0.852983    0.851891    0.000000   -0.000000   -0.000000
   34.232502    0.854339    0.853161    0.852070    0.000000   -0.000000   -0.000000
   34.250624    0.854516    0.853338    0.852249    0.000000   -0.000000   -0.000000
   34.268746    0.854692    0.853515    0.852427    0.000000   -0.000000   -0.000000
   34.286868    0.854868    0.853691    0.852605    0.000000   -0.000000   -0.000000
   34.304990    0.855043    0.853867    0.852782    0.000000   -0.000000   -0.000000
   34.323112    0.855219    0.854043    0.852959    0.000000   -0.000000   -0.000000
   34.341234    0.855393    0.854218    0.853136    0.000000   -0.000000   -0.000000
   34.359356    0.855568    0.854393    0.853313    0.000000   -0.000000   -0.000000
   34.377478    0.855742    0.854568    0.853489    0.000000   -0.000000   -0.000000
   34.395600    0.855916    0.854742    0.853665    0.000000   -0.000000   -0.000000
   34.413722    0.856089    0.854916    0.853840    0.000000   -0.000000   -0.000000
   34.431844    0.856262    0.855089    0.854015    0.000000   -0.000000   -0.000000
   34.449966    0.856435    0.855263    0.854190    0.000000   -0.000000   -0.000000
   34.468088    0.856607    0.855436    0.854364    0.000000   -0.000000   -0.000000
   34.486210    0.856779    0.855608    0.854538    0.000000   -0.000000   -0.000000
   34.504332    0.856951    0.855780    0.854712    0.000000   -0.000000   -0.000000
   34.522454    0.857122    0.855952    0.854885    0.000000   -0.000000   -0.000000
   34.540576    0.857293    0.856124    0.855059    0.000000   -0.000000   -0.000000
   34.558698    0.857464    0.856295    0.855231    0.000000   -0.000000   -0.000000
   34.576820    0.857634    0.856466    0.855404    0.000000   -0.000000   -0.000000
   34.594942    0.857804    0.856637    0.855576    0.000000   -0.000000   -0.000000
   34.613064    0.857974    0.856807    0.855747    0.000000   -0.000000   -0.000000
   34.631186    0.858143    0.856977    0.855919    0.000000   -0.000000   -0.000000
   34.649308    0.858312    0.857147    0.856090    0.000000   -0.000000   -0.000000
   34.667430    0.858481    0.857316    0.856260    0.000000   -0.000000   -0.000000
   34.685552    0.858649    0.857485    0.856431    0.000000   -0.000000   -0.000000
   34.703674    0.858818    0.857653    0.856601    0.000000   -0.000000   -0.000000
   34.721796    0.858985    0.857822    0.856771    0.000000   -0.000000   -0.000000
   34.739918    0.859153    0.857990    0.856940    0.000000   -0.000000   -0.000000
   34.758040    0.859320    0.858157    0.857109    0.000000   -0.000000   -0.000000
   34.776162    0.859486    0.858325    0.857278    0.000000   -0.000000   -0.000000
   34.794284    0.859653    0.858492    0.857446    0.000000   -0.000000   -0.000000
   34.812406    0.859819    0.858658    0.857614    0.000000   -0.000000   -0.000000
   34.830528    0.859985    0.858825    0.857782    0.000000   -0.000000   -0.000000
   34.848650    0.860150    0.858991    0.857949    0.000000   -0.000000   -0.000000
   34.866772    0.860315    0.859156    0.858116    0.000000   -0.000000   -0.000000
   34.884894    0.860480    0.859322    0.858283    0.000000   -0.000000   -0.000000
   34.903017    0.860644    0.859487    0.858450    0.000000   -0.000000   -0.000000
   34.921139    0.860809    0.859652    0.858616    0.000000   -0.000000   -0.000000
   34.939261    0.860972    0.859816    0.858782    0.000000   -0.000000   -0.000000
   34.957383    0.861136    0.859980    0.858947    0.000000   -0.000000   -0.000000
   34.975505    0.861299    0.860144    0.859112    0.000000   -0.000000   -0.000000
   34.993627    0.861462    0.860308    0.859277    0.000000   -0.000000   -0.000000
   35.011749    0.861625    0.860471    0.859442    0.000000   -0.000000   -0.000000
   35.029871    0.861787    0.860634    0.859606    0.000000   -0.000000   -0.000000
   35.047993    0.861949    0.860797    0.859770    0.000000   -0.000000   -0.000000
   35.066115    0.862111    0.860959    0.859934    0.000000   -0.000000   -0.000000
   35.084237    0.862272    0.861121    0.860097    0.000000   -0.000000   -0.000000
   35.102359    0.862433    0.861283    0.860260    0.000000   -0.000000   -0.000000
   35.120481    0.862594    0.861444    0.860423    0.000000   -0.000000   -0.000000
   35.138603    0.862754    0.861605    0.860585    0.000000   -0.000000   -0.000000
   35.156725    0.862914    0.861766    0.860747    0.000000   -0.000000   -0.000000
   35.174847    0.863074    0.861926    0.860909    0.000000   -0.000000   -0.000000
   35.192969    0.863234    0.862087    0.861071    0.000000   -0.000000   -0.000000
   35.211091    0.863393    0.862246    0.861232    0.000000   -0.000000   -0.000000
   35.229213    0.863552    0.862406    0.861393    0.000000   -0.000000   -0.000000
   35.247335    0.863711    0.862565    0.861553    0.000000   -0.000000   -0.000000
   35.265457    0.863869    0.862724    0.861714    0.000000   -0.000000   -0.000000
   35.283579    0.864027    0.862883    0.861874    0.000000   -0.000000   -0.000000
   35.301701    0.864185    0.863041    0.862033    0.000000   -0.000000   -0.000000
   35.319823    0.864342    0.863199    0.862193    0.000000   -0.000000   -0.000000
   35.337945    0.864499    0.863357    0.862352    0.000000   -0.000000   -0.000000
   35.356067    0.864656    0.863515    0.862510    0.000000   -0.000000   -0.000000
   35.374189    0.864813    0.863672    0.862669    0.000000   -0.000000   -0.000000
   35.392311    0.864969    0.863829    0.862827    0.000000   -0.000000   -0.000000
   35.410433    0.865125    0.863986    0.862985    0.000000   -0.000000   -0.000000
   35.428555    0.865281    0.864142    0.863143    0.000000   -0.000000   -0.000000
   35.446677    0.865436    0.864298    0.863300    0.000000   -0.000000   -0.000000
   35.464799    0.865591    0.864454    0.863457    0.000000   -0.000000   -0.000000
   35.482921    0.865746    0.864609    0.863614    0.000000   -0.000000   -0.000000
   35.501043    0.865900    0.864764    0.863770    0.000000   -0.000000   -0.000000
   35.519165    0.866055    0.864919    0.863926    0.000000   -0.000000   -0.000000
   35.537287    0.866209    0.865074    0.864082    0.000000   -0.000000   -0.000000
   35.555409    0.866362    0.865228    0.864238    0.000000   -0.000000   -0.000000
   35.573531    0.866516    0.865382    0.864393    0.000000   -0.000000   -0.000000
   35.591653    0.866669    0.865536    0.864548    0.000000   -0.000000   -0.000000
   35.609775    0.866821    0.865690    0.864703    0.000000   -0.000000   -0.000000
   35.627897    0.866974    0.865843    0.864857    0.000000   -0.000000   -0.000000
   35.646019    0.867126    0.865996    0.865011    0.000000   -0.000000   -0.000000
   35.664141    0.867278    0.866148    0.865165    0.000000   -0.000000   -0.000000
   35.682264    0.867430    0.866301    0.865319    0.000000   -0.000000   -0.000000
   35.700386    0.867581    0.866453    0.865472    0.000000   -0.000000   -0.000000
   35.718508    0.867732    0.866605    0.865625    0.000000   -0.000000   -0.000000
   35.736630    0.867883    0.866756    0.865778    0.000000   -0.000000   -0.000000
   35.754752    0.868034    0.866907    0.865930    0.000000   -0.000000   -0.000000
   35.772874    0.868184    0.867058    0.866082    0.000000   -0.000000   -0.000000
   35.790996    0.868334    0.867209    0.866234    0.000000   -0.000000   -0.000000
   35.809118    0.868484    0.867360    0.866386    0.000000   -0.000000   -0.000000
   35.827240    0.868633    0.867510    0.866537    0.000000   -0.000000   -0.000000
   35.845362    0.868782    0.867660    0.866688    0.000000   -0.000000   -0.000000
   35.863484    0.868931    0.867809    0.866839    0.000000   -0.000000   -0.000000
   35.881606    0.869080    0.867959    0.866990    0.000000   -0.000000   -0.000000
   35.899728    0.869228    0.868108    0.867140    0.000000   -0.000000   -0.000000
   35.917850    0.869376    0.868257    0.867290    0.000000   -0.000000   -0.000000
   35.935972    0.869524    0.868405    0.867440    0.000000   -0.000000   -0.000000
   35.954094    0.869672    0.868553    0.867589    0.000000   -0.000000   -0.000000
   35.972216    0.869819    0.868701    0.867738    0.000000   -0.000000   -0.000000
   35.990338    0.869966    0.868849    0.867887    0.000000   -0.000000   -0.000000
   36.008460    0.870113    0.868997    0.868036    0.000000   -0.000000   -0.000000
   36.026582    0.870259    0.869144    0.868184    0.000000   -0.000000   -0.000000
   36.044704    0.870406    0.869291    0.868332    0.000000   -0.000000   -0.000000
   36.062826    0.870551    0.869437    0.868480    0.000000   -0.000000   -0.000000
   36.080948    0.870697    0.869584    0.868628    0.000000   -0.000000   -0.000000
   36.099070    0.870843    0.869730    0.868775    0.000000   -0.000000   -0.000000
   36.117192    0.870988    0.869876    0.868922    0.000000   -0.000000   -0.000000
   36.135314    0.871133    0.870021    0.869069    0.000000   -0.000000   -0.000000
   36.153436    0.871277    0.870167    0.869215    0.000000   -0.000000   -0.000000
   36.171558    0.871422    0.870312    0.869361    0.000000   -0.000000   -0.000000
   36.189680    0.871566    0.870457    0.869507    0.000000   -0.000000   -0.000000
   36.207802    0.871710    0.870601    0.869653    0.000000   -0.000000   -0.000000
   36.225924    0.871853    0.870746    0.869799    0.000000   -0.000000   -0.000000
 
 The outermost node in the dielectric function lies at epsilon=  16.9


--------------------------------------------------------------------------------------------------------


    OPTICS:  cpu time     35.7612: real time     35.8598
    4ORBIT:  cpu time      0.0000: real time      0.0000



 total charge

# of ion       s       p       d       tot
------------------------------------------
    1        0.629   0.048   0.000   0.677
    2        0.629   0.048   0.000   0.677
    3        0.629   0.048   0.000   0.677
    4        0.629   0.048   0.000   0.677
    5        0.629   0.048   0.000   0.677
    6        0.629   0.048   0.000   0.677
    7        0.629   0.048   0.000   0.677
    8        0.629   0.048   0.000   0.677
    9        0.607   0.081   0.000   0.688
   10        0.607   0.081   0.000   0.688
   11        0.607   0.081   0.000   0.688
   12        0.607   0.081   0.000   0.688
   13        0.607   0.081   0.000   0.688
   14        0.607   0.081   0.000   0.688
   15        0.607   0.081   0.000   0.688
   16        0.607   0.081   0.000   0.688
   17        0.629   0.048   0.000   0.678
   18        0.629   0.048   0.000   0.678
   19        0.629   0.048   0.000   0.678
   20        0.629   0.048   0.000   0.678
   21        0.601   0.081   0.000   0.682
   22        0.601   0.081   0.000   0.682
   23        0.601   0.081   0.000   0.682
   24        0.601   0.081   0.000   0.682
   25        1.477   0.482   9.835  11.794
   26        1.477   0.482   9.835  11.794
   27        1.477   0.482   9.835  11.794
   28        1.477   0.482   9.835  11.794
   29        0.838   1.770   0.000   2.608
   30        0.838   1.770   0.000   2.608
   31        0.838   1.770   0.000   2.608
   32        0.838   1.770   0.000   2.608
   33        1.504   2.776   0.006   4.286
   34        1.504   2.776   0.006   4.286
   35        1.504   2.776   0.006   4.286
   36        1.504   2.776   0.006   4.286
   37        1.504   2.776   0.006   4.286
   38        1.504   2.776   0.006   4.286
   39        1.504   2.776   0.006   4.286
   40        1.504   2.776   0.006   4.286
   41        1.502   2.764   0.006   4.273
   42        1.502   2.764   0.006   4.273
   43        1.502   2.764   0.006   4.273
   44        1.502   2.764   0.006   4.273
   45        1.214   2.764   0.000   3.978
   46        1.214   2.764   0.000   3.978
   47        1.214   2.764   0.000   3.978
   48        1.214   2.764   0.000   3.978
--------------------------------------------------
tot         46.962  54.879  39.412 141.253
 
 BZINTS: Fermi energy:    1.098568;  200.000000 electrons
         Band energy:-0.141745E+04;  BLOECHL correction:    0.000000

 total amount of memory used by VASP MPI-rank0    77727. kBytes
=======================================================================

   base      :      30000. kBytes
   nonl-proj :      27025. kBytes
   fftplans  :       4216. kBytes
   grid      :       8345. kBytes
   one-center:         77. kBytes
   wavefun   :       8064. kBytes
 
  
  
 General timing and accounting informations for this job:
 ========================================================
  
                  Total CPU time used (sec):      198.756
                            User time (sec):      190.726
                          System time (sec):        8.030
                         Elapsed time (sec):      200.383
  
                   Maximum memory used (kb):      336944.
                   Average memory used (kb):          N/A
  
                          Minor page faults:        73820
                          Major page faults:            0
                 Voluntary context switches:         4613
