<?xml version="1.0" encoding="ISO-8859-1"?>
<modeling>
 <generator>
  <i name="program" type="string">vasp </i>
  <i name="version" type="string">6.4.2  </i>
  <i name="subversion" type="string">20Jul23 (build Mar 15 2024 16:31:38) complex                          parallel </i>
  <i name="platform" type="string">LinuxIFC </i>
  <i name="date" type="string">2025 03 14 </i>
  <i name="time" type="string">16:41:20 </i>
 </generator>
 <incar>
  <i type="string" name="PREC">Accurate</i>
  <i type="string" name="ALGO">Fast</i>
  <i type="int" name="ISPIN">     1</i>
  <i type="int" name="NELM">   200</i>
  <i name="EDIFF">      0.00001000</i>
  <i type="int" name="NSW">     0</i>
  <i type="int" name="ISYM">     2</i>
  <i name="ENCUT">    680.00000000</i>
  <i name="ENAUG">   1360.00000000</i>
  <i type="int" name="NBANDS">    58</i>
  <i type="int" name="NEDOS">  2000</i>
  <i type="logical" name="LREAL"> F  </i>
  <i type="int" name="ISMEAR">    -5</i>
  <i name="SIGMA">      0.05000000</i>
  <i type="int" name="LMAXMIX">     4</i>
  <i type="logical" name="LWAVE"> F  </i>
  <i type="logical" name="LCHARG"> F  </i>
  <i type="logical" name="LVTOT"> T  </i>
  <i type="int" name="LORBIT">    11</i>
  <i type="logical" name="LELF"> F  </i>
  <i type="logical" name="LOPTICS"> T  </i>
  <i type="logical" name="LASPH"> T  </i>
  <i type="logical" name="LAECHG"> T  </i>
  <i name="CSHIFT">      0.00001000</i>
  <i type="string" name="GGA">Ps</i>
  <i type="logical" name="LMIXTAU"> T  </i>
 </incar>
 <primitive_cell>
  <structure name="primitive_cell" >
   <crystal>
    <varray name="basis" >
     <v>       2.87509105      -2.87509105       0.00000000 </v>
     <v>       2.87509105       0.00000000       2.87509105 </v>
     <v>       0.00000000      -2.87509105       2.87509105 </v>
    </varray>
    <i name="volume">     47.53185940 </i>
    <varray name="rec_basis" >
     <v>       0.17390754      -0.17390754      -0.17390754 </v>
     <v>       0.17390754       0.17390754       0.17390754 </v>
     <v>      -0.17390754      -0.17390754       0.17390754 </v>
    </varray>
   </crystal>
   <varray name="positions" >
    <v>       0.00000000       0.00000000       0.00000000 </v>
    <v>       0.75000000       0.75000000       0.75000000 </v>
   </varray>
  </structure>
  <varray name="primitive_index" >
   <v type="int" >        1 </v>
   <v type="int" >        5 </v>
  </varray>
 </primitive_cell>
 <kpoints>
  <generation param="Gamma">
   <v type="int" name="divisions">       5        5        5 </v>
   <v name="usershift">      0.00000000       0.00000000       0.00000000 </v>
   <v name="genvec1">      0.20000000      -0.00000000       0.00000000 </v>
   <v name="genvec2">      0.00000000       0.20000000       0.00000000 </v>
   <v name="genvec3">      0.00000000       0.00000000       0.20000000 </v>
   <v name="shift">      0.00000000       0.00000000       0.00000000 </v>
  </generation>
  <varray name="kpointlist" >
   <v>       0.00000000       0.00000000       0.00000000 </v>
   <v>       0.20000000      -0.00000000       0.00000000 </v>
   <v>       0.40000000      -0.00000000       0.00000000 </v>
   <v>       0.20000000       0.20000000       0.00000000 </v>
   <v>       0.40000000       0.20000000       0.00000000 </v>
   <v>       0.40000000       0.40000000       0.00000000 </v>
   <v>       0.20000000       0.20000000       0.20000000 </v>
   <v>       0.40000000       0.20000000       0.20000000 </v>
   <v>       0.40000000       0.40000000       0.20000000 </v>
   <v>       0.40000000       0.40000000       0.40000000 </v>
  </varray>
  <varray name="weights" >
   <v>       0.00800000 </v>
   <v>       0.04800000 </v>
   <v>       0.04800000 </v>
   <v>       0.09600000 </v>
   <v>       0.19200000 </v>
   <v>       0.09600000 </v>
   <v>       0.06400000 </v>
   <v>       0.19200000 </v>
   <v>       0.19200000 </v>
   <v>       0.06400000 </v>
  </varray>
  <varray name="tetrahedronlist"  type="int" >
   <v type="int" >       12        7        8        8        9 </v>
   <v type="int" >       18        8        8        9        9 </v>
   <v type="int" >       24        8        9        9       10 </v>
   <v type="int" >       12        8        9        9        9 </v>
   <v type="int" >       24        9        9        9       10 </v>
   <v type="int" >       18        9        9       10       10 </v>
   <v type="int" >       24        4        5        7        8 </v>
   <v type="int" >       12        5        7        8        8 </v>
   <v type="int" >       24        5        8        8        9 </v>
   <v type="int" >       24        4        5        5        8 </v>
   <v type="int" >       24        5        5        6        8 </v>
   <v type="int" >       12        5        6        8        9 </v>
   <v type="int" >       12        9       10       10       10 </v>
   <v type="int" >       12        8        8        9       10 </v>
   <v type="int" >       12        8        9       10       10 </v>
   <v type="int" >       12        5        5        8        9 </v>
   <v type="int" >       12        5        8        9        9 </v>
   <v type="int" >       12        5        5        6        9 </v>
   <v type="int" >       12        5        6        6        9 </v>
   <v type="int" >       12        5        6        9        9 </v>
   <v type="int" >       12        5        6        8        8 </v>
   <v type="int" >       12        5        6        6        8 </v>
   <v type="int" >       12        6        8        8        9 </v>
   <v type="int" >       12        6        8        9        9 </v>
   <v type="int" >       12        6        6        8        9 </v>
   <v type="int" >       12        7        8        9       10 </v>
   <v type="int" >       12        4        5        8        9 </v>
   <v type="int" >       12        4        7        8        9 </v>
   <v type="int" >       12        4        5        6        9 </v>
   <v type="int" >       12        5        6        7        8 </v>
   <v type="int" >       12        4        5        6        7 </v>
   <v type="int" >       12        6        7        8        9 </v>
   <v type="int" >       12        2        4        7        8 </v>
   <v type="int" >       12        2        4        5        8 </v>
   <v type="int" >       12        2        3        5        8 </v>
   <v type="int" >       12        4        4        5        7 </v>
   <v type="int" >       12        2        4        4        5 </v>
   <v type="int" >       12        2        3        4        5 </v>
   <v type="int" >       12        3        4        5        5 </v>
   <v type="int" >       12        2        3        4        7 </v>
   <v type="int" >       12        3        4        5        7 </v>
   <v type="int" >       12        3        5        7        8 </v>
   <v type="int" >        6       10       10       10       10 </v>
   <v type="int" >       12        6        6        9        9 </v>
   <v type="int" >       12        6        9        9        9 </v>
   <v type="int" >       12        6        6        6        9 </v>
   <v type="int" >       12        3        5        8        8 </v>
   <v type="int" >       12        3        5        5        8 </v>
   <v type="int" >       12        3        3        5        8 </v>
   <v type="int" >       12        5        5        5        8 </v>
   <v type="int" >       12        3        5        5        5 </v>
   <v type="int" >        6        3        3        5        5 </v>
   <v type="int" >        6        5        5        8        8 </v>
   <v type="int" >       12        2        4        4        7 </v>
   <v type="int" >       12        2        2        4        4 </v>
   <v type="int" >       12        1        2        2        4 </v>
   <v type="int" >       12        1        2        4        7 </v>
  </varray>
  <i name="volumeweight">      0.00133333 </i>
 </kpoints>
 <parameters>
  <separator name="general" >
   <i type="string" name="SYSTEM">unknown system</i>
   <i type="logical" name="LCOMPAT"> F  </i>
  </separator>
  <separator name="electronic" >
   <i type="string" name="PREC">accura</i>
   <i name="ENMAX">    680.00000000</i>
   <i name="ENAUG">   1360.00000000</i>
   <i name="EDIFF">      0.00001000</i>
   <i type="int" name="IALGO">    68</i>
   <i type="int" name="IWAVPR">    10</i>
   <i type="int" name="NBANDS">    60</i>
   <i type="int" name="NBANDSLOW">    -1</i>
   <i type="int" name="NBANDSHIGH">    -1</i>
   <i name="NELECT">     72.00000000</i>
   <i type="int" name="TURBO">     0</i>
   <i type="int" name="IRESTART">     0</i>
   <i type="int" name="NREBOOT">     0</i>
   <i type="int" name="NMIN">     0</i>
   <i name="EREF">      0.00000000</i>
   <separator name="electronic smearing" >
    <i type="int" name="ISMEAR">    -5</i>
    <i name="SIGMA">      0.05000000</i>
    <i name="KSPACING">      0.50000000</i>
    <i type="logical" name="KGAMMA"> T  </i>
    <i type="logical" name="KBLOWUP"> T  </i>
   </separator>
   <separator name="electronic projectors" >
    <i type="logical" name="LREAL"> F  </i>
    <v name="ROPT">      0.00000000      0.00000000</v>
    <i type="int" name="LMAXPAW">  -100</i>
    <i type="int" name="LMAXMIX">     4</i>
    <i type="logical" name="NLSPLINE"> F  </i>
   </separator>
   <separator name="electronic startup" >
    <i type="int" name="ISTART">     1</i>
    <i type="int" name="ICHARG">     0</i>
    <i type="int" name="INIWAV">     1</i>
   </separator>
   <separator name="electronic spin" >
    <i type="int" name="ISPIN">     1</i>
    <i type="logical" name="LNONCOLLINEAR"> F  </i>
    <v name="MAGMOM">      1.00000000      1.00000000      1.00000000      1.00000000      1.00000000      1.00000000      1.00000000      1.00000000</v>
    <i name="NUPDOWN">     -1.00000000</i>
    <i type="logical" name="LSORBIT"> F  </i>
    <v name="SAXIS">      0.00000000      0.00000000      1.00000000</v>
    <i type="logical" name="LSPIRAL"> F  </i>
    <v name="QSPIRAL">      0.00000000      0.00000000      0.00000000</v>
    <i type="logical" name="LZEROZ"> F  </i>
   </separator>
   <separator name="electronic exchange-correlation" >
    <i type="logical" name="LASPH"> T  </i>
    <i type="logical" name="LMETAGGA"> F  </i>
   </separator>
   <separator name="electronic convergence" >
    <i type="int" name="NELM">   200</i>
    <i type="int" name="NELMDL">     0</i>
    <i type="int" name="NELMIN">     2</i>
    <i name="ENINI">    680.00000000</i>
    <separator name="electronic convergence detail" >
     <i type="logical" name="LDIAG"> T  </i>
     <i type="logical" name="LSUBROT"> F  </i>
     <i name="WEIMIN">      0.00000000</i>
     <i name="EBREAK">      0.00000004</i>
     <i name="DEPER">      0.30000000</i>
     <i type="int" name="NRMM">     4</i>
     <i name="TIME">      0.40000000</i>
    </separator>
   </separator>
   <separator name="electronic mixer" >
    <i name="AMIX">      0.40000000</i>
    <i name="BMIX">      1.00000000</i>
    <i name="AMIN">      0.10000000</i>
    <i name="AMIX_MAG">      1.60000000</i>
    <i name="BMIX_MAG">      1.00000000</i>
    <separator name="electronic mixer details" >
     <i type="int" name="IMIX">     4</i>
     <i type="logical" name="MIXFIRST"> F  </i>
     <i type="int" name="MAXMIX">   -45</i>
     <i name="WC">    100.00000000</i>
     <i type="int" name="INIMIX">     1</i>
     <i type="int" name="MIXPRE">     1</i>
     <i type="int" name="MREMOVE">     5</i>
    </separator>
   </separator>
   <separator name="electronic dipolcorrection" >
    <i type="logical" name="LDIPOL"> F  </i>
    <i type="logical" name="LMONO"> F  </i>
    <i type="int" name="IDIPOL">     0</i>
    <i name="EPSILON">      1.00000000</i>
    <v name="DIPOL">   -100.00000000   -100.00000000   -100.00000000</v>
    <i name="EFIELD">      0.00000000</i>
   </separator>
  </separator>
  <separator name="grids" >
   <i type="int" name="NGX">    50</i>
   <i type="int" name="NGY">    50</i>
   <i type="int" name="NGZ">    50</i>
   <i type="int" name="NGXF">   100</i>
   <i type="int" name="NGYF">   100</i>
   <i type="int" name="NGZF">   100</i>
   <i type="logical" name="ADDGRID"> F  </i>
  </separator>
  <separator name="ionic" >
   <i type="int" name="NSW">     0</i>
   <i type="int" name="IBRION">    -1</i>
   <i type="int" name="MDALGO">     0</i>
   <i type="int" name="ISIF">     2</i>
   <i name="PSTRESS">      0.00000000</i>
   <i name="EDIFFG">      0.00010000</i>
   <i type="int" name="NFREE">     0</i>
   <i name="POTIM">      0.50000000</i>
   <i name="SMASS">     -3.00000000</i>
   <i name="SCALEE">      1.00000000</i>
  </separator>
  <separator name="ionic md" >
   <i name="TEBEG">      0.00010000</i>
   <i name="TEEND">      0.00010000</i>
   <i type="int" name="NBLOCK">     1</i>
   <i type="int" name="KBLOCK">     1</i>
   <i type="int" name="NPACO">   256</i>
   <i name="APACO">     10.00000000</i>
  </separator>
  <separator name="symmetry" >
   <i type="int" name="ISYM">     2</i>
   <i name="SYMPREC">      0.00001000</i>
  </separator>
  <separator name="dos" >
   <i type="int" name="LORBIT">    11</i>
   <v name="RWIGS">     -1.00000000     -1.00000000</v>
   <i type="int" name="NEDOS">  2000</i>
   <i name="EMIN">     10.00000000</i>
   <i name="EMAX">    -10.00000000</i>
   <i name="EFERMI">      0.00000000</i>
  </separator>
  <separator name="writing" >
   <i type="int" name="NWRITE">     2</i>
   <i type="logical" name="LWAVE"> F  </i>
   <i type="logical" name="LDOWNSAMPLE"> F  </i>
   <i type="logical" name="LCHARG"> F  </i>
   <i type="logical" name="LPARD"> F  </i>
   <i type="logical" name="LVTOT"> T  </i>
   <i type="logical" name="LVHAR"> F  </i>
   <i type="logical" name="LELF"> F  </i>
   <i type="logical" name="LOPTICS"> T  </i>
   <v name="STM">      0.00000000      0.00000000      0.00000000      0.00000000      0.00000000      0.00000000      0.00000000</v>
  </separator>
  <separator name="performance" >
   <i type="int" name="NPAR">    12</i>
   <i type="int" name="NSIM">     4</i>
   <i type="int" name="NBLK">    -1</i>
   <i type="logical" name="LPLANE"> T  </i>
   <i type="logical" name="LSCALAPACK"> T  </i>
   <i type="logical" name="LSCAAWARE"> F  </i>
   <i type="logical" name="LSCALU"> F  </i>
   <i type="logical" name="LASYNC"> F  </i>
   <i type="logical" name="LORBITALREAL"> F  </i>
  </separator>
  <separator name="miscellaneous" >
   <i type="int" name="IDIOT">     3</i>
   <i type="int" name="PHON_NSTRUCT">    -1</i>
   <i type="logical" name="LMUSIC"> F  </i>
   <v name="POMASS">     69.72300000     74.92200000</v>
   <v name="DARWINR">      0.00000000      0.00000000</v>
   <v name="DARWINV">      1.00000000      1.00000000</v>
   <i type="logical" name="LCORR"> T  </i>
  </separator>
  <i type="logical" name="GGA_COMPAT"> T  </i>
  <i type="logical" name="LBERRY"> F  </i>
  <i type="int" name="ICORELEVEL">     0</i>
  <i type="logical" name="LDAU"> F  </i>
  <i type="int" name="I_CONSTRAINED_M">     0</i>
  <separator name="electronic exchange-correlation" >
   <i type="string" name="GGA">PS</i>
   <i type="int" name="VOSKOWN">     0</i>
   <i type="logical" name="LHFCALC"> F  </i>
   <i type="string" name="PRECFOCK"></i>
   <i type="logical" name="LSYMGRAD"> F  </i>
   <i type="logical" name="LHFONE"> F  </i>
   <i type="logical" name="LRHFCALC"> F  </i>
   <i type="logical" name="LTHOMAS"> F  </i>
   <i type="logical" name="LMODELHF"> F  </i>
   <i type="logical" name="LFOCKACE"> F  </i>
   <i name="ENCUT4O">     -1.00000000</i>
   <i type="int" name="EXXOEP">     0</i>
   <i type="int" name="FOURORBIT">     0</i>
   <i name="AEXX">      0.00000000</i>
   <i name="HFALPHA">      0.00000000</i>
   <i name="MCALPHA">      0.00000000</i>
   <i name="ALDAX">      1.00000000</i>
   <i name="AGGAX">      1.00000000</i>
   <i name="ALDAC">      1.00000000</i>
   <i name="AGGAC">      1.00000000</i>
   <i type="int" name="NKREDX">     1</i>
   <i type="int" name="NKREDY">     1</i>
   <i type="int" name="NKREDZ">     1</i>
   <i type="logical" name="SHIFTRED"> F  </i>
   <i type="logical" name="ODDONLY"> F  </i>
   <i type="logical" name="EVENONLY"> F  </i>
   <i type="int" name="LMAXFOCK">     0</i>
   <i type="int" name="NMAXFOCKAE">     0</i>
   <i type="logical" name="LFOCKAEDFT"> F  </i>
   <i name="HFSCREEN">      0.00000000</i>
   <i name="HFSCREENC">      0.00000000</i>
   <i type="int" name="NBANDSGWLOW">     0</i>
  </separator>
  <separator name="vdW DFT" >
   <i type="logical" name="LUSE_VDW"> F  </i>
   <i type="int" name="IVDW_NL">     1</i>
   <i type="logical" name="LSPIN_VDW"> F  </i>
   <i name="Zab_VDW">     -0.84910000</i>
   <i name="PARAM1">      0.12340000</i>
   <i name="PARAM2">      1.00000000</i>
   <i name="PARAM3">      0.00000000</i>
  </separator>
  <separator name="model GW" >
   <i type="int" name="MODEL_GW">     0</i>
   <i name="MODEL_EPS0">     14.25955782</i>
   <i name="MODEL_ALPHA">      1.00000000</i>
  </separator>
  <separator name="linear response parameters" >
   <i type="logical" name="LEPSILON"> F  </i>
   <i type="logical" name="LRPA"> F  </i>
   <i type="logical" name="LNABLA"> F  </i>
   <i type="logical" name="LVEL"> F  </i>
   <i name="CSHIFT">      0.00001000</i>
   <i name="OMEGAMAX">     -1.00000000</i>
   <i name="DEG_THRESHOLD">      0.00200000</i>
   <i name="RTIME">     -0.10000000</i>
   <i name="WPLASMAI">      0.00000000</i>
   <v name="DFIELD">      0.00000000      0.00000000      0.00000000</v>
   <v name="WPLASMA">      0.00000000      0.00000000      0.00000000      0.00000000      0.00000000      0.00000000      0.00000000      0.00000000      0.00000000</v>
  </separator>
  <separator name="orbital magnetization" >
   <i type="logical" name="NUCIND"> F  </i>
   <v name="MAGPOS">      0.00000000      0.00000000      0.00000000</v>
   <i type="logical" name="LNICSALL"> T  </i>
   <i type="logical" name="ORBITALMAG"> F  </i>
   <i type="logical" name="LMAGBLOCH"> F  </i>
   <i type="logical" name="LCHIMAG"> F  </i>
   <i type="logical" name="LGAUGE"> T  </i>
   <i type="int" name="MAGATOM">     0</i>
   <v name="MAGDIPOL">      0.00000000      0.00000000      0.00000000</v>
   <v name="AVECCONST">      0.00000000      0.00000000      0.00000000</v>
  </separator>
  <separator name="response functions" >
   <i type="logical" name="LALL_IN_ONE"> F  </i>
   <i type="int" name="IALL_IN_ONE">    -1</i>
   <i type="int" name="NBANDS_WAVE">    -1</i>
   <i type="logical" name="LFINITE_TEMPERATURE"> F  </i>
   <i type="logical" name="LADDER"> F  </i>
   <i type="logical" name="LRPAFORCE"> F  </i>
   <i type="logical" name="LFXC"> F  </i>
   <i type="logical" name="LHARTREE"> T  </i>
   <i type="int" name="IBSE">     0</i>
   <v type="int" name="KPOINT">    -1     0     0     0</v>
   <i type="logical" name="LTCTC"> F  </i>
   <i type="logical" name="LTCTE"> F  </i>
   <i type="logical" name="LTETE"> F  </i>
   <i type="logical" name="LTRIPLET"> F  </i>
   <i type="logical" name="LFXCEPS"> F  </i>
   <i type="logical" name="LFXHEG"> F  </i>
   <i type="int" name="NATURALO">     2</i>
   <i type="logical" name="LHOLEGF"> F  </i>
   <i type="logical" name="L2ORDER"> F  </i>
   <i type="logical" name="LDMP1"> F  </i>
   <i type="logical" name="LMP2LT"> F  </i>
   <i type="logical" name="LSMP2LT"> F  </i>
   <i type="logical" name="LGWLF"> F  </i>
   <i name="ENCUTGW">     -1.60000002</i>
   <i name="ENCUTGWSOFT">     -1.60000002</i>
   <i name="ENCUTLF">     -1.00000000</i>
   <i type="logical" name="LESF_SPLINES"> F  </i>
   <i type="int" name="LMAXMP2">    -1</i>
   <i name="SCISSOR">      0.00000000</i>
   <i type="int" name="NOMEGA">     0</i>
   <i type="int" name="NOMEGAR">     0</i>
   <i type="int" name="NBANDSGW">    -1</i>
   <i type="int" name="NBANDSO">    -1</i>
   <i type="int" name="NBANDSV">    -1</i>
   <i type="int" name="NELMGW">     1</i>
   <i type="int" name="NELMHF">     1</i>
   <i type="int" name="DIM">     3</i>
   <i type="int" name="IESPILON">     4</i>
   <i type="int" name="ANTIRES">     0</i>
   <i name="OMEGAMAX">    -30.00000000</i>
   <i name="OMEGAMIN">    -30.00000000</i>
   <i name="OMEGATL">   -200.00000000</i>
   <i type="int" name="OMEGAGRID">     0</i>
   <i name="CSHIFT">      0.00001000</i>
   <i type="logical" name="LSELFENERGY"> F  </i>
   <i type="logical" name="LSPECTRAL"> F  </i>
   <i type="logical" name="LSPECTRALGW"> F  </i>
   <i type="logical" name="LSINGLES"> F  </i>
   <i type="logical" name="LFERMIGW"> F  </i>
   <i type="logical" name="ODDONLYGW"> F  </i>
   <i type="logical" name="EVENONLYGW"> F  </i>
   <i type="int" name="NKREDLFX">     1</i>
   <i type="int" name="NKREDLFY">     1</i>
   <i type="int" name="NKREDLFZ">     1</i>
   <i type="int" name="MAXMEM">  2800</i>
   <i type="int" name="TELESCOPE">     0</i>
   <i type="int" name="NTAUPAR">    -1</i>
   <i type="int" name="NOMEGAPAR">    -1</i>
   <i name="DAMP_NEWTON">      0.80000001</i>
   <i name="LAMBDA">      1.00000000</i>
  </separator>
  <separator name="External order field" >
   <i name="OFIELD_KAPPA">      0.00000000</i>
   <v name="OFIELD_K">      0.00000000      0.00000000      0.00000000</v>
   <i name="OFIELD_Q6_NEAR">      0.00000000</i>
   <i name="OFIELD_Q6_FAR">      0.00000000</i>
   <i name="OFIELD_A">      0.00000000</i>
  </separator>
  <separator name="optional k-points parameters" >
   <i type="int" name="KPOINTS_OPT_MODE">     1</i>
   <i type="logical" name="LKPOINTS_OPT"> F  </i>
  </separator>
 </parameters>
 <atominfo>
  <atoms>       8 </atoms>
  <types>       2 </types>
  <array name="atoms" >
   <dimension dim="1">ion</dimension>
   <field type="string">element</field>
   <field type="int">atomtype</field>
   <set>
    <rc><c>Ga</c><c>   1</c></rc>
    <rc><c>Ga</c><c>   1</c></rc>
    <rc><c>Ga</c><c>   1</c></rc>
    <rc><c>Ga</c><c>   1</c></rc>
    <rc><c>As</c><c>   2</c></rc>
    <rc><c>As</c><c>   2</c></rc>
    <rc><c>As</c><c>   2</c></rc>
    <rc><c>As</c><c>   2</c></rc>
   </set>
  </array>
  <array name="atomtypes" >
   <dimension dim="1">type</dimension>
   <field type="int">atomspertype</field>
   <field type="string">element</field>
   <field>mass</field>
   <field>valence</field>
   <field type="string">pseudopotential</field>
   <set>
    <rc><c>   4</c><c>Ga</c><c>     69.72300000</c><c>     13.00000000</c><c>  PAW_PBE Ga_d 06Jul2010                </c></rc>
    <rc><c>   4</c><c>As</c><c>     74.92200000</c><c>      5.00000000</c><c>  PAW_PBE As 22Sep2009                  </c></rc>
   </set>
  </array>
 </atominfo>
 <structure name="initialpos" >
  <crystal>
   <varray name="basis" >
    <v>       5.75018210       0.00000000       0.00000000 </v>
    <v>      -0.00000000       5.75018210       0.00000000 </v>
    <v>       0.00000000       0.00000000       5.75018210 </v>
   </varray>
   <i name="volume">    190.12743762 </i>
   <varray name="rec_basis" >
    <v>       0.17390754       0.00000000       0.00000000 </v>
    <v>       0.00000000       0.17390754       0.00000000 </v>
    <v>      -0.00000000      -0.00000000       0.17390754 </v>
   </varray>
  </crystal>
  <varray name="positions" >
   <v>       0.00000000       0.00000000       0.00000000 </v>
   <v>       0.50000000       0.50000000       0.00000000 </v>
   <v>       0.50000000       0.00000000       0.50000000 </v>
   <v>       0.00000000       0.50000000       0.50000000 </v>
   <v>       0.25000000       0.25000000       0.25000000 </v>
   <v>       0.25000000       0.75000000       0.75000000 </v>
   <v>       0.75000000       0.75000000       0.25000000 </v>
   <v>       0.75000000       0.25000000       0.75000000 </v>
  </varray>
 </structure>
 <calculation>
  <scstep>
   <time name="dav">    0.36    0.37</time>
   <time name="total">    0.57    0.58</time>
   <energy>
    <i name="alphaZ">    229.21542276 </i>
    <i name="ewald">  -4976.98459255 </i>
    <i name="hartreedc">  -2874.61232135 </i>
    <i name="XCdc">    132.93337583 </i>
    <i name="pawpsdc">   8017.20907852 </i>
    <i name="pawaedc">  -9221.15807656 </i>
    <i name="eentropy">      0.00000000 </i>
    <i name="bandstr">   -615.04847364 </i>
    <i name="atom">   9271.54367517 </i>
    <i name="e_fr_energy">    -36.90191181 </i>
    <i name="e_wo_entrp">    -36.90191181 </i>
    <i name="e_0_energy">    -36.90191181 </i>
   </energy>
  </scstep>
  <scstep>
   <time name="diag">    0.09    0.09</time>
   <time name="diis">    0.12    0.12</time>
   <time name="orth">    0.01    0.01</time>
   <time name="total">    0.42    0.43</time>
   <energy>
    <i name="e_fr_energy">    -36.17610469 </i>
    <i name="e_wo_entrp">    -36.17610469 </i>
    <i name="e_0_energy">    -36.17610469 </i>
   </energy>
  </scstep>
  <scstep>
   <time name="diag">    0.08    0.08</time>
   <time name="diis">    0.11    0.12</time>
   <time name="orth">    0.01    0.01</time>
   <time name="total">    0.40    0.43</time>
   <energy>
    <i name="e_fr_energy">    -36.26009492 </i>
    <i name="e_wo_entrp">    -36.26009492 </i>
    <i name="e_0_energy">    -36.26009492 </i>
   </energy>
  </scstep>
  <scstep>
   <time name="diag">    0.08    0.08</time>
   <time name="diis">    0.11    0.11</time>
   <time name="orth">    0.01    0.01</time>
   <time name="total">    0.40    0.42</time>
   <energy>
    <i name="e_fr_energy">    -36.28618888 </i>
    <i name="e_wo_entrp">    -36.28618888 </i>
    <i name="e_0_energy">    -36.28618888 </i>
   </energy>
  </scstep>
  <scstep>
   <time name="diag">    0.08    0.08</time>
   <time name="diis">    0.10    0.10</time>
   <time name="orth">    0.01    0.01</time>
   <time name="total">    0.38    0.39</time>
   <energy>
    <i name="e_fr_energy">    -36.28544123 </i>
    <i name="e_wo_entrp">    -36.28544123 </i>
    <i name="e_0_energy">    -36.28544123 </i>
   </energy>
  </scstep>
  <scstep>
   <time name="diag">    0.08    0.08</time>
   <time name="diis">    0.12    0.12</time>
   <time name="orth">    0.01    0.01</time>
   <time name="total">    0.41    0.43</time>
   <energy>
    <i name="e_fr_energy">    -36.28544926 </i>
    <i name="e_wo_entrp">    -36.28544926 </i>
    <i name="e_0_energy">    -36.28544926 </i>
   </energy>
  </scstep>
  <scstep>
   <time name="diag">    0.07    0.07</time>
   <time name="diis">    0.10    0.10</time>
   <time name="orth">    0.01    0.01</time>
   <time name="total">    0.38    0.40</time>
   <energy>
    <i name="e_fr_energy">    -36.28558629 </i>
    <i name="e_wo_entrp">    -36.28558629 </i>
    <i name="e_0_energy">    -36.28558629 </i>
   </energy>
  </scstep>
  <scstep>
   <time name="diag">    0.08    0.08</time>
   <time name="diis">    0.10    0.10</time>
   <time name="orth">    0.01    0.01</time>
   <time name="total">    0.37    0.39</time>
   <energy>
    <i name="e_fr_energy">    -36.28557203 </i>
    <i name="e_wo_entrp">    -36.28557203 </i>
    <i name="e_0_energy">    -36.28557203 </i>
   </energy>
  </scstep>
  <scstep>
   <time name="diag">    0.08    0.08</time>
   <time name="diis">    0.09    0.09</time>
   <time name="orth">    0.01    0.01</time>
   <time name="total">    0.34    0.36</time>
   <energy>
    <i name="alphaZ">    229.21542276 </i>
    <i name="ewald">  -4976.98459255 </i>
    <i name="hartreedc">  -2933.11830205 </i>
    <i name="XCdc">    135.02164218 </i>
    <i name="pawpsdc">   7894.23898067 </i>
    <i name="pawaedc">  -9145.51997541 </i>
    <i name="eentropy">      0.00000000 </i>
    <i name="bandstr">   -510.68242506 </i>
    <i name="atom">   9271.54367517 </i>
    <i name="e_fr_energy">    -36.28557430 </i>
    <i name="e_wo_entrp">    -36.28557430 </i>
    <i name="e_0_energy">    -36.28557430 </i>
   </energy>
  </scstep>
  <structure>
   <crystal>
    <varray name="basis" >
     <v>       5.75018210       0.00000000       0.00000000 </v>
     <v>      -0.00000000       5.75018210       0.00000000 </v>
     <v>       0.00000000       0.00000000       5.75018210 </v>
    </varray>
    <i name="volume">    190.12743762 </i>
    <varray name="rec_basis" >
     <v>       0.17390754       0.00000000       0.00000000 </v>
     <v>       0.00000000       0.17390754       0.00000000 </v>
     <v>      -0.00000000      -0.00000000       0.17390754 </v>
    </varray>
   </crystal>
   <varray name="positions" >
    <v>       0.00000000       0.00000000       0.00000000 </v>
    <v>       0.50000000       0.50000000       0.00000000 </v>
    <v>       0.50000000       0.00000000       0.50000000 </v>
    <v>       0.00000000       0.50000000       0.50000000 </v>
    <v>       0.25000000       0.25000000       0.25000000 </v>
    <v>       0.25000000       0.75000000       0.75000000 </v>
    <v>       0.75000000       0.75000000       0.25000000 </v>
    <v>       0.75000000       0.25000000       0.75000000 </v>
   </varray>
  </structure>
  <varray name="forces" >
   <v>       0.00000000      -0.00000000      -0.00000000 </v>
   <v>      -0.00000000       0.00000000       0.00000000 </v>
   <v>       0.00000000      -0.00000000      -0.00000000 </v>
   <v>       0.00000000       0.00000000       0.00000000 </v>
   <v>      -0.00000000      -0.00000000      -0.00000000 </v>
   <v>      -0.00000000       0.00000000       0.00000000 </v>
   <v>      -0.00000000       0.00000000       0.00000000 </v>
   <v>      -0.00000000      -0.00000000       0.00000000 </v>
  </varray>
  <varray name="stress" >
   <v>     -26.97357056       0.00000000       0.00000000 </v>
   <v>       0.00000000     -26.97357056      -0.00000000 </v>
   <v>      -0.00000000       0.00000000     -26.97357056 </v>
  </varray>
  <energy>
   <i name="e_fr_energy">    -36.28557430 </i>
   <i name="e_wo_entrp">    -36.28557430 </i>
   <i name="e_0_energy">    -36.28557430 </i>
  </energy>
  <time name="totalsc">    4.16    4.34</time>
  <eigenvalues>
   <array>
    <dimension dim="1">band</dimension>
    <dimension dim="2">kpoint</dimension>
    <dimension dim="3">spin</dimension>
    <field>eigene</field>
    <field>occ</field>
    <set>
     <set comment="spin 1">
      <set comment="kpoint 1">
       <r>  -11.4462    1.0000 </r>
       <r>  -11.4462    1.0000 </r>
       <r>  -11.4462    1.0000 </r>
       <r>  -11.3519    1.0000 </r>
       <r>  -11.3519    1.0000 </r>
       <r>  -11.3519    1.0000 </r>
       <r>  -11.3104    1.0000 </r>
       <r>  -11.3104    1.0000 </r>
       <r>  -11.3104    1.0000 </r>
       <r>  -11.3104    1.0000 </r>
       <r>  -11.3104    1.0000 </r>
       <r>  -11.3104    1.0000 </r>
       <r>  -11.3046    1.0000 </r>
       <r>  -11.3046    1.0000 </r>
       <r>  -11.3046    1.0000 </r>
       <r>  -11.2836    1.0000 </r>
       <r>  -11.2836    1.0000 </r>
       <r>  -11.2726    1.0000 </r>
       <r>  -11.2726    1.0000 </r>
       <r>  -11.2726    1.0000 </r>
       <r>   -9.0573    1.0000 </r>
       <r>   -6.7549    1.0000 </r>
       <r>   -6.7549    1.0000 </r>
       <r>   -6.7549    1.0000 </r>
       <r>   -3.2779    1.0000 </r>
       <r>   -3.2779    1.0000 </r>
       <r>   -3.2779    1.0000 </r>
       <r>    0.8174    1.0000 </r>
       <r>    0.8174    1.0000 </r>
       <r>    0.8174    1.0000 </r>
       <r>    0.8174    1.0000 </r>
       <r>    0.8174    1.0000 </r>
       <r>    0.8174    1.0000 </r>
       <r>    3.3410    1.0000 </r>
       <r>    3.3410    1.0000 </r>
       <r>    3.3410    1.0000 </r>
       <r>    3.4247    0.0000 </r>
       <r>    4.7839    0.0000 </r>
       <r>    4.7839    0.0000 </r>
       <r>    4.7839    0.0000 </r>
       <r>    4.9364    0.0000 </r>
       <r>    4.9364    0.0000 </r>
       <r>    4.9364    0.0000 </r>
       <r>    7.0169    0.0000 </r>
       <r>    7.0169    0.0000 </r>
       <r>    7.0169    0.0000 </r>
       <r>   10.5748    0.0000 </r>
       <r>   13.1300    0.0000 </r>
       <r>   13.1999    0.0000 </r>
       <r>   13.2243    0.0000 </r>
       <r>   13.2972    0.0000 </r>
       <r>   13.3469    0.0000 </r>
       <r>   13.6947    0.0000 </r>
       <r>   13.6782    0.0000 </r>
       <r>   14.0792    0.0000 </r>
       <r>   13.9859    0.0000 </r>
       <r>   14.5810    0.0000 </r>
       <r>   15.8016    0.0000 </r>
       <r>   16.3934    0.0000 </r>
       <r>   37.1411    0.0000 </r>
      </set>
      <set comment="kpoint 2">
       <r>  -11.4426    1.0000 </r>
       <r>  -11.4426    1.0000 </r>
       <r>  -11.4389    1.0000 </r>
       <r>  -11.3633    1.0000 </r>
       <r>  -11.3481    1.0000 </r>
       <r>  -11.3481    1.0000 </r>
       <r>  -11.3154    1.0000 </r>
       <r>  -11.3154    1.0000 </r>
       <r>  -11.3145    1.0000 </r>
       <r>  -11.3145    1.0000 </r>
       <r>  -11.3122    1.0000 </r>
       <r>  -11.3122    1.0000 </r>
       <r>  -11.3023    1.0000 </r>
       <r>  -11.3005    1.0000 </r>
       <r>  -11.3005    1.0000 </r>
       <r>  -11.2851    1.0000 </r>
       <r>  -11.2825    1.0000 </r>
       <r>  -11.2745    1.0000 </r>
       <r>  -11.2745    1.0000 </r>
       <r>  -11.2737    1.0000 </r>
       <r>   -8.9113    1.0000 </r>
       <r>   -7.1352    1.0000 </r>
       <r>   -6.7384    1.0000 </r>
       <r>   -6.7384    1.0000 </r>
       <r>   -3.2235    1.0000 </r>
       <r>   -3.2235    1.0000 </r>
       <r>   -2.7198    1.0000 </r>
       <r>    0.5004    1.0000 </r>
       <r>    0.5004    1.0000 </r>
       <r>    0.5675    1.0000 </r>
       <r>    0.5675    1.0000 </r>
       <r>    0.9739    1.0000 </r>
       <r>    0.9739    1.0000 </r>
       <r>    1.6701    1.0000 </r>
       <r>    2.9170    1.0000 </r>
       <r>    2.9170    1.0000 </r>
       <r>    4.7348    0.0000 </r>
       <r>    5.0462    0.0000 </r>
       <r>    5.3764    0.0000 </r>
       <r>    5.4836    0.0000 </r>
       <r>    5.4836    0.0000 </r>
       <r>    5.6420    0.0000 </r>
       <r>    5.6420    0.0000 </r>
       <r>    6.5387    0.0000 </r>
       <r>    7.6258    0.0000 </r>
       <r>    7.6258    0.0000 </r>
       <r>   11.3694    0.0000 </r>
       <r>   11.7407    0.0000 </r>
       <r>   11.7727    0.0000 </r>
       <r>   11.7735    0.0000 </r>
       <r>   11.9431    0.0000 </r>
       <r>   12.0136    0.0000 </r>
       <r>   12.1990    0.0000 </r>
       <r>   12.3877    0.0000 </r>
       <r>   12.8066    0.0000 </r>
       <r>   13.8248    0.0000 </r>
       <r>   13.9374    0.0000 </r>
       <r>   14.9150    0.0000 </r>
       <r>   15.5956    0.0000 </r>
       <r>   15.8854    0.0000 </r>
      </set>
      <set comment="kpoint 3">
       <r>  -11.4360    1.0000 </r>
       <r>  -11.4360    1.0000 </r>
       <r>  -11.4184    1.0000 </r>
       <r>  -11.3899    1.0000 </r>
       <r>  -11.3379    1.0000 </r>
       <r>  -11.3379    1.0000 </r>
       <r>  -11.3251    1.0000 </r>
       <r>  -11.3251    1.0000 </r>
       <r>  -11.3243    1.0000 </r>
       <r>  -11.3243    1.0000 </r>
       <r>  -11.3137    1.0000 </r>
       <r>  -11.3137    1.0000 </r>
       <r>  -11.2965    1.0000 </r>
       <r>  -11.2942    1.0000 </r>
       <r>  -11.2942    1.0000 </r>
       <r>  -11.2898    1.0000 </r>
       <r>  -11.2798    1.0000 </r>
       <r>  -11.2788    1.0000 </r>
       <r>  -11.2788    1.0000 </r>
       <r>  -11.2764    1.0000 </r>
       <r>   -8.4905    1.0000 </r>
       <r>   -7.8506    1.0000 </r>
       <r>   -6.7113    1.0000 </r>
       <r>   -6.7113    1.0000 </r>
       <r>   -3.1261    1.0000 </r>
       <r>   -3.1261    1.0000 </r>
       <r>   -1.4771    1.0000 </r>
       <r>    0.0323    1.0000 </r>
       <r>    0.0680    1.0000 </r>
       <r>    0.0680    1.0000 </r>
       <r>    0.2396    1.0000 </r>
       <r>    0.2396    1.0000 </r>
       <r>    1.4289    1.0000 </r>
       <r>    1.4289    1.0000 </r>
       <r>    2.1279    1.0000 </r>
       <r>    2.1279    1.0000 </r>
       <r>    5.0080    0.0000 </r>
       <r>    5.5773    0.0000 </r>
       <r>    6.1289    0.0000 </r>
       <r>    6.3726    0.0000 </r>
       <r>    7.1423    0.0000 </r>
       <r>    7.1423    0.0000 </r>
       <r>    7.1872    0.0000 </r>
       <r>    7.1872    0.0000 </r>
       <r>    8.9593    0.0000 </r>
       <r>    8.9606    0.0000 </r>
       <r>    9.4091    0.0000 </r>
       <r>    9.4091    0.0000 </r>
       <r>    9.8327    0.0000 </r>
       <r>    9.8328    0.0000 </r>
       <r>   10.4339    0.0000 </r>
       <r>   10.5407    0.0000 </r>
       <r>   10.5537    0.0000 </r>
       <r>   11.0588    0.0000 </r>
       <r>   13.3183    0.0000 </r>
       <r>   14.0474    0.0000 </r>
       <r>   14.1572    0.0000 </r>
       <r>   14.3276    0.0000 </r>
       <r>   15.4096    0.0000 </r>
       <r>   15.9925    0.0000 </r>
      </set>
      <set comment="kpoint 4">
       <r>  -11.4392    1.0000 </r>
       <r>  -11.4360    1.0000 </r>
       <r>  -11.4360    1.0000 </r>
       <r>  -11.3701    1.0000 </r>
       <r>  -11.3477    1.0000 </r>
       <r>  -11.3453    1.0000 </r>
       <r>  -11.3192    1.0000 </r>
       <r>  -11.3192    1.0000 </r>
       <r>  -11.3188    1.0000 </r>
       <r>  -11.3158    1.0000 </r>
       <r>  -11.3158    1.0000 </r>
       <r>  -11.3141    1.0000 </r>
       <r>  -11.2989    1.0000 </r>
       <r>  -11.2989    1.0000 </r>
       <r>  -11.2979    1.0000 </r>
       <r>  -11.2849    1.0000 </r>
       <r>  -11.2828    1.0000 </r>
       <r>  -11.2761    1.0000 </r>
       <r>  -11.2751    1.0000 </r>
       <r>  -11.2751    1.0000 </r>
       <r>   -8.7698    1.0000 </r>
       <r>   -7.0820    1.0000 </r>
       <r>   -7.0820    1.0000 </r>
       <r>   -6.7568    1.0000 </r>
       <r>   -3.1668    1.0000 </r>
       <r>   -2.7560    1.0000 </r>
       <r>   -2.7560    1.0000 </r>
       <r>   -0.1065    1.0000 </r>
       <r>    0.5725    1.0000 </r>
       <r>    0.5725    1.0000 </r>
       <r>    0.7973    1.0000 </r>
       <r>    0.8733    1.0000 </r>
       <r>    0.8733    1.0000 </r>
       <r>    1.0755    1.0000 </r>
       <r>    2.4598    1.0000 </r>
       <r>    3.1797    1.0000 </r>
       <r>    5.1047    0.0000 </r>
       <r>    5.1257    0.0000 </r>
       <r>    5.4939    0.0000 </r>
       <r>    5.4939    0.0000 </r>
       <r>    5.9781    0.0000 </r>
       <r>    5.9781    0.0000 </r>
       <r>    6.9577    0.0000 </r>
       <r>    7.1232    0.0000 </r>
       <r>    7.3071    0.0000 </r>
       <r>    8.1795    0.0000 </r>
       <r>   10.2933    0.0000 </r>
       <r>   10.2933    0.0000 </r>
       <r>   11.4445    0.0000 </r>
       <r>   11.7064    0.0000 </r>
       <r>   11.8097    0.0000 </r>
       <r>   12.0174    0.0000 </r>
       <r>   12.1044    0.0000 </r>
       <r>   12.2735    0.0000 </r>
       <r>   12.2954    0.0000 </r>
       <r>   13.0534    0.0000 </r>
       <r>   13.2804    0.0000 </r>
       <r>   14.1675    0.0000 </r>
       <r>   14.3210    0.0000 </r>
       <r>   15.3606    0.0000 </r>
      </set>
      <set comment="kpoint 5">
       <r>  -11.4327    1.0000 </r>
       <r>  -11.4312    1.0000 </r>
       <r>  -11.4176    1.0000 </r>
       <r>  -11.3923    1.0000 </r>
       <r>  -11.3394    1.0000 </r>
       <r>  -11.3375    1.0000 </r>
       <r>  -11.3284    1.0000 </r>
       <r>  -11.3268    1.0000 </r>
       <r>  -11.3260    1.0000 </r>
       <r>  -11.3259    1.0000 </r>
       <r>  -11.3172    1.0000 </r>
       <r>  -11.3168    1.0000 </r>
       <r>  -11.2940    1.0000 </r>
       <r>  -11.2927    1.0000 </r>
       <r>  -11.2921    1.0000 </r>
       <r>  -11.2883    1.0000 </r>
       <r>  -11.2804    1.0000 </r>
       <r>  -11.2799    1.0000 </r>
       <r>  -11.2791    1.0000 </r>
       <r>  -11.2772    1.0000 </r>
       <r>   -8.3632    1.0000 </r>
       <r>   -7.7509    1.0000 </r>
       <r>   -6.9544    1.0000 </r>
       <r>   -6.8275    1.0000 </r>
       <r>   -3.0272    1.0000 </r>
       <r>   -2.8688    1.0000 </r>
       <r>   -1.7189    1.0000 </r>
       <r>   -0.4863    1.0000 </r>
       <r>   -0.3409    1.0000 </r>
       <r>   -0.0521    1.0000 </r>
       <r>    0.8376    1.0000 </r>
       <r>    0.9669    1.0000 </r>
       <r>    1.0318    1.0000 </r>
       <r>    1.5659    1.0000 </r>
       <r>    1.6474    1.0000 </r>
       <r>    2.4916    1.0000 </r>
       <r>    5.7775    0.0000 </r>
       <r>    5.9452    0.0000 </r>
       <r>    6.0144    0.0000 </r>
       <r>    6.5072    0.0000 </r>
       <r>    6.5640    0.0000 </r>
       <r>    7.0459    0.0000 </r>
       <r>    7.3628    0.0000 </r>
       <r>    8.3510    0.0000 </r>
       <r>    8.5394    0.0000 </r>
       <r>    8.6652    0.0000 </r>
       <r>    8.7646    0.0000 </r>
       <r>    9.0209    0.0000 </r>
       <r>    9.4953    0.0000 </r>
       <r>   10.1828    0.0000 </r>
       <r>   10.4778    0.0000 </r>
       <r>   11.1115    0.0000 </r>
       <r>   11.4275    0.0000 </r>
       <r>   12.0896    0.0000 </r>
       <r>   12.2453    0.0000 </r>
       <r>   12.6431    0.0000 </r>
       <r>   13.4322    0.0000 </r>
       <r>   13.7679    0.0000 </r>
       <r>   14.2770    0.0000 </r>
       <r>   14.6998    0.0000 </r>
      </set>
      <set comment="kpoint 6">
       <r>  -11.4250    1.0000 </r>
       <r>  -11.4185    1.0000 </r>
       <r>  -11.4185    1.0000 </r>
       <r>  -11.4026    1.0000 </r>
       <r>  -11.3370    1.0000 </r>
       <r>  -11.3354    1.0000 </r>
       <r>  -11.3318    1.0000 </r>
       <r>  -11.3318    1.0000 </r>
       <r>  -11.3290    1.0000 </r>
       <r>  -11.3268    1.0000 </r>
       <r>  -11.3268    1.0000 </r>
       <r>  -11.3242    1.0000 </r>
       <r>  -11.2888    1.0000 </r>
       <r>  -11.2888    1.0000 </r>
       <r>  -11.2869    1.0000 </r>
       <r>  -11.2860    1.0000 </r>
       <r>  -11.2828    1.0000 </r>
       <r>  -11.2818    1.0000 </r>
       <r>  -11.2804    1.0000 </r>
       <r>  -11.2804    1.0000 </r>
       <r>   -8.0025    1.0000 </r>
       <r>   -7.4804    1.0000 </r>
       <r>   -7.4804    1.0000 </r>
       <r>   -7.1270    1.0000 </r>
       <r>   -2.7210    1.0000 </r>
       <r>   -2.2345    1.0000 </r>
       <r>   -2.2345    1.0000 </r>
       <r>   -1.3927    1.0000 </r>
       <r>   -0.2943    1.0000 </r>
       <r>    0.2109    1.0000 </r>
       <r>    0.2109    1.0000 </r>
       <r>    0.8348    1.0000 </r>
       <r>    1.7664    1.0000 </r>
       <r>    1.8252    1.0000 </r>
       <r>    1.8252    1.0000 </r>
       <r>    2.6080    1.0000 </r>
       <r>    5.6938    0.0000 </r>
       <r>    5.8419    0.0000 </r>
       <r>    6.4112    0.0000 </r>
       <r>    6.4112    0.0000 </r>
       <r>    7.6347    0.0000 </r>
       <r>    7.6348    0.0000 </r>
       <r>    8.0779    0.0000 </r>
       <r>    8.1876    0.0000 </r>
       <r>    8.3892    0.0000 </r>
       <r>    8.3893    0.0000 </r>
       <r>    8.7815    0.0000 </r>
       <r>    9.0449    0.0000 </r>
       <r>    9.6772    0.0000 </r>
       <r>    9.8658    0.0000 </r>
       <r>   10.1322    0.0000 </r>
       <r>   10.1411    0.0000 </r>
       <r>   11.2846    0.0000 </r>
       <r>   11.6019    0.0000 </r>
       <r>   12.0034    0.0000 </r>
       <r>   12.0374    0.0000 </r>
       <r>   12.3111    0.0000 </r>
       <r>   13.6361    0.0000 </r>
       <r>   14.0397    0.0000 </r>
       <r>   15.7005    0.0000 </r>
      </set>
      <set comment="kpoint 7">
       <r>  -11.4334    1.0000 </r>
       <r>  -11.4334    1.0000 </r>
       <r>  -11.4334    1.0000 </r>
       <r>  -11.3765    1.0000 </r>
       <r>  -11.3450    1.0000 </r>
       <r>  -11.3450    1.0000 </r>
       <r>  -11.3220    1.0000 </r>
       <r>  -11.3220    1.0000 </r>
       <r>  -11.3220    1.0000 </r>
       <r>  -11.3181    1.0000 </r>
       <r>  -11.3181    1.0000 </r>
       <r>  -11.3181    1.0000 </r>
       <r>  -11.2961    1.0000 </r>
       <r>  -11.2961    1.0000 </r>
       <r>  -11.2961    1.0000 </r>
       <r>  -11.2836    1.0000 </r>
       <r>  -11.2836    1.0000 </r>
       <r>  -11.2763    1.0000 </r>
       <r>  -11.2763    1.0000 </r>
       <r>  -11.2763    1.0000 </r>
       <r>   -8.6334    1.0000 </r>
       <r>   -7.0557    1.0000 </r>
       <r>   -7.0557    1.0000 </r>
       <r>   -7.0557    1.0000 </r>
       <r>   -2.8202    1.0000 </r>
       <r>   -2.8202    1.0000 </r>
       <r>   -2.8202    1.0000 </r>
       <r>    0.0582    1.0000 </r>
       <r>    0.1943    1.0000 </r>
       <r>    0.1943    1.0000 </r>
       <r>    0.1943    1.0000 </r>
       <r>    1.2181    1.0000 </r>
       <r>    1.2181    1.0000 </r>
       <r>    1.2181    1.0000 </r>
       <r>    2.8721    1.0000 </r>
       <r>    2.8721    1.0000 </r>
       <r>    4.6838    0.0000 </r>
       <r>    5.2637    0.0000 </r>
       <r>    5.2637    0.0000 </r>
       <r>    5.2637    0.0000 </r>
       <r>    7.1018    0.0000 </r>
       <r>    7.1018    0.0000 </r>
       <r>    7.1018    0.0000 </r>
       <r>    7.6770    0.0000 </r>
       <r>    7.6770    0.0000 </r>
       <r>    8.2365    0.0000 </r>
       <r>   10.0454    0.0000 </r>
       <r>   10.0454    0.0000 </r>
       <r>   10.0539    0.0000 </r>
       <r>   10.8641    0.0000 </r>
       <r>   10.8994    0.0000 </r>
       <r>   10.9975    0.0000 </r>
       <r>   12.1073    0.0000 </r>
       <r>   12.2033    0.0000 </r>
       <r>   12.2521    0.0000 </r>
       <r>   13.5200    0.0000 </r>
       <r>   13.6932    0.0000 </r>
       <r>   14.6673    0.0000 </r>
       <r>   15.2223    0.0000 </r>
       <r>   16.5119    0.0000 </r>
      </set>
      <set comment="kpoint 8">
       <r>  -11.4289    1.0000 </r>
       <r>  -11.4289    1.0000 </r>
       <r>  -11.4173    1.0000 </r>
       <r>  -11.3954    1.0000 </r>
       <r>  -11.3397    1.0000 </r>
       <r>  -11.3377    1.0000 </r>
       <r>  -11.3303    1.0000 </r>
       <r>  -11.3282    1.0000 </r>
       <r>  -11.3282    1.0000 </r>
       <r>  -11.3275    1.0000 </r>
       <r>  -11.3205    1.0000 </r>
       <r>  -11.3205    1.0000 </r>
       <r>  -11.2917    1.0000 </r>
       <r>  -11.2904    1.0000 </r>
       <r>  -11.2904    1.0000 </r>
       <r>  -11.2868    1.0000 </r>
       <r>  -11.2805    1.0000 </r>
       <r>  -11.2795    1.0000 </r>
       <r>  -11.2795    1.0000 </r>
       <r>  -11.2776    1.0000 </r>
       <r>   -8.2438    1.0000 </r>
       <r>   -7.6660    1.0000 </r>
       <r>   -7.0116    1.0000 </r>
       <r>   -7.0116    1.0000 </r>
       <r>   -2.9331    1.0000 </r>
       <r>   -2.9331    1.0000 </r>
       <r>   -2.0311    1.0000 </r>
       <r>   -1.0411    1.0000 </r>
       <r>    0.0027    1.0000 </r>
       <r>    0.0027    1.0000 </r>
       <r>    1.0265    1.0000 </r>
       <r>    1.2502    1.0000 </r>
       <r>    1.2502    1.0000 </r>
       <r>    1.6272    1.0000 </r>
       <r>    2.1581    1.0000 </r>
       <r>    2.2348    1.0000 </r>
       <r>    5.3174    0.0000 </r>
       <r>    5.6064    0.0000 </r>
       <r>    6.0860    0.0000 </r>
       <r>    6.0860    0.0000 </r>
       <r>    7.2095    0.0000 </r>
       <r>    7.2498    0.0000 </r>
       <r>    7.9370    0.0000 </r>
       <r>    7.9370    0.0000 </r>
       <r>    8.5385    0.0000 </r>
       <r>    8.9368    0.0000 </r>
       <r>    9.0295    0.0000 </r>
       <r>    9.1714    0.0000 </r>
       <r>    9.1720    0.0000 </r>
       <r>    9.6358    0.0000 </r>
       <r>   10.6828    0.0000 </r>
       <r>   10.6947    0.0000 </r>
       <r>   11.5604    0.0000 </r>
       <r>   11.9093    0.0000 </r>
       <r>   11.9747    0.0000 </r>
       <r>   12.8881    0.0000 </r>
       <r>   13.1496    0.0000 </r>
       <r>   13.4484    0.0000 </r>
       <r>   14.7710    0.0000 </r>
       <r>   15.1364    0.0000 </r>
      </set>
      <set comment="kpoint 9">
       <r>  -11.4234    1.0000 </r>
       <r>  -11.4186    1.0000 </r>
       <r>  -11.4186    1.0000 </r>
       <r>  -11.4054    1.0000 </r>
       <r>  -11.3372    1.0000 </r>
       <r>  -11.3361    1.0000 </r>
       <r>  -11.3329    1.0000 </r>
       <r>  -11.3329    1.0000 </r>
       <r>  -11.3308    1.0000 </r>
       <r>  -11.3291    1.0000 </r>
       <r>  -11.3291    1.0000 </r>
       <r>  -11.3271    1.0000 </r>
       <r>  -11.2867    1.0000 </r>
       <r>  -11.2867    1.0000 </r>
       <r>  -11.2855    1.0000 </r>
       <r>  -11.2843    1.0000 </r>
       <r>  -11.2814    1.0000 </r>
       <r>  -11.2813    1.0000 </r>
       <r>  -11.2799    1.0000 </r>
       <r>  -11.2799    1.0000 </r>
       <r>   -7.9107    1.0000 </r>
       <r>   -7.4462    1.0000 </r>
       <r>   -7.4462    1.0000 </r>
       <r>   -7.1900    1.0000 </r>
       <r>   -2.9058    1.0000 </r>
       <r>   -2.5703    1.0000 </r>
       <r>   -2.5703    1.0000 </r>
       <r>   -1.9024    1.0000 </r>
       <r>    0.2924    1.0000 </r>
       <r>    0.7403    1.0000 </r>
       <r>    0.7403    1.0000 </r>
       <r>    1.5211    1.0000 </r>
       <r>    1.8516    1.0000 </r>
       <r>    1.8898    1.0000 </r>
       <r>    1.8898    1.0000 </r>
       <r>    2.5400    1.0000 </r>
       <r>    5.0995    0.0000 </r>
       <r>    5.6296    0.0000 </r>
       <r>    5.8116    0.0000 </r>
       <r>    5.8116    0.0000 </r>
       <r>    7.4645    0.0000 </r>
       <r>    7.4645    0.0000 </r>
       <r>    7.9691    0.0000 </r>
       <r>    8.0086    0.0000 </r>
       <r>    8.0140    0.0000 </r>
       <r>    8.9554    0.0000 </r>
       <r>    8.9554    0.0000 </r>
       <r>    9.0940    0.0000 </r>
       <r>    9.8537    0.0000 </r>
       <r>    9.9366    0.0000 </r>
       <r>    9.9385    0.0000 </r>
       <r>   10.7700    0.0000 </r>
       <r>   12.0448    0.0000 </r>
       <r>   12.2186    0.0000 </r>
       <r>   12.5293    0.0000 </r>
       <r>   12.7776    0.0000 </r>
       <r>   12.9987    0.0000 </r>
       <r>   13.6676    0.0000 </r>
       <r>   13.9744    0.0000 </r>
       <r>   14.4732    0.0000 </r>
      </set>
      <set comment="kpoint 10">
       <r>  -11.4189    1.0000 </r>
       <r>  -11.4189    1.0000 </r>
       <r>  -11.4189    1.0000 </r>
       <r>  -11.4120    1.0000 </r>
       <r>  -11.3364    1.0000 </r>
       <r>  -11.3364    1.0000 </r>
       <r>  -11.3343    1.0000 </r>
       <r>  -11.3343    1.0000 </r>
       <r>  -11.3343    1.0000 </r>
       <r>  -11.3327    1.0000 </r>
       <r>  -11.3327    1.0000 </r>
       <r>  -11.3327    1.0000 </r>
       <r>  -11.2828    1.0000 </r>
       <r>  -11.2828    1.0000 </r>
       <r>  -11.2828    1.0000 </r>
       <r>  -11.2811    1.0000 </r>
       <r>  -11.2811    1.0000 </r>
       <r>  -11.2799    1.0000 </r>
       <r>  -11.2799    1.0000 </r>
       <r>  -11.2799    1.0000 </r>
       <r>   -7.6710    1.0000 </r>
       <r>   -7.3881    1.0000 </r>
       <r>   -7.3881    1.0000 </r>
       <r>   -7.3881    1.0000 </r>
       <r>   -2.9796    1.0000 </r>
       <r>   -2.9796    1.0000 </r>
       <r>   -2.9796    1.0000 </r>
       <r>   -2.6116    1.0000 </r>
       <r>    1.5008    1.0000 </r>
       <r>    1.5008    1.0000 </r>
       <r>    1.5008    1.0000 </r>
       <r>    2.0747    1.0000 </r>
       <r>    2.0747    1.0000 </r>
       <r>    2.0747    1.0000 </r>
       <r>    2.3423    1.0000 </r>
       <r>    2.3423    1.0000 </r>
       <r>    4.2115    0.0000 </r>
       <r>    4.9518    0.0000 </r>
       <r>    4.9518    0.0000 </r>
       <r>    4.9518    0.0000 </r>
       <r>    7.6395    0.0000 </r>
       <r>    7.6395    0.0000 </r>
       <r>    7.6395    0.0000 </r>
       <r>    7.9363    0.0000 </r>
       <r>    7.9363    0.0000 </r>
       <r>    8.3210    0.0000 </r>
       <r>    8.3210    0.0000 </r>
       <r>    8.3210    0.0000 </r>
       <r>   10.8228    0.0000 </r>
       <r>   11.0085    0.0000 </r>
       <r>   11.0119    0.0000 </r>
       <r>   11.0497    0.0000 </r>
       <r>   12.3261    0.0000 </r>
       <r>   12.7005    0.0000 </r>
       <r>   12.7258    0.0000 </r>
       <r>   12.9423    0.0000 </r>
       <r>   13.8447    0.0000 </r>
       <r>   14.2063    0.0000 </r>
       <r>   15.0186    0.0000 </r>
       <r>   15.9677    0.0000 </r>
      </set>
     </set>
    </set>
   </array>
  </eigenvalues>
  <separator name="orbital magnetization" >
   <v name="MAGDIPOLOUT">      0.00000000      0.00000000      0.00000000</v>
  </separator>
  <dielectricfunction comment="density-density">
   <imag>
    <array>
     <dimension dim="1">gridpoints</dimension>
     <field>energy</field>
     <field>xx</field>
     <field>yy</field>
     <field>zz</field>
     <field>xy</field>
     <field>yz</field>
     <field>zx</field>
     <set>
      <r>     0.0000     0.0000     0.0000     0.0000     0.0000     0.0000     0.0000 </r>
      <r>     0.0292     0.0000     0.0000     0.0000     0.0000     0.0000     0.0000 </r>
      <r>     0.0583     0.0000     0.0000     0.0000     0.0000     0.0000     0.0000 </r>
      <r>     0.0875     0.0021     0.0021     0.0021    -0.0000     0.0000     0.0000 </r>
      <r>     0.1167     0.1566     0.1566     0.1566    -0.0000     0.0000     0.0000 </r>
      <r>     0.1458     0.5554     0.5554     0.5554    -0.0000     0.0000     0.0000 </r>
      <r>     0.1750     1.1984     1.1984     1.1984    -0.0000     0.0000     0.0000 </r>
      <r>     0.2042     2.0857     2.0857     2.0857    -0.0000     0.0000     0.0000 </r>
      <r>     0.2333     3.2172     3.2172     3.2172    -0.0000     0.0000     0.0000 </r>
      <r>     0.2625     4.5930     4.5930     4.5930    -0.0000     0.0000     0.0000 </r>
      <r>     0.2917     6.2131     6.2131     6.2131    -0.0000     0.0000     0.0000 </r>
      <r>     0.3208     8.0775     8.0775     8.0775    -0.0000     0.0000     0.0000 </r>
      <r>     0.3500    10.1862    10.1862    10.1862    -0.0000     0.0000     0.0000 </r>
      <r>     0.3792    12.5391    12.5391    12.5391    -0.0000     0.0000     0.0000 </r>
      <r>     0.4083    15.1363    15.1363    15.1363    -0.0000     0.0000     0.0000 </r>
      <r>     0.4375    17.9777    17.9777    17.9777    -0.0000     0.0000     0.0000 </r>
      <r>     0.4667    21.0634    21.0634    21.0634    -0.0000     0.0000     0.0000 </r>
      <r>     0.4958    24.3934    24.3934    24.3934    -0.0000     0.0000     0.0000 </r>
      <r>     0.5250    27.9677    27.9677    27.9677    -0.0000     0.0000     0.0000 </r>
      <r>     0.5542    31.7863    31.7863    31.7863    -0.0000     0.0000     0.0000 </r>
      <r>     0.5833    35.8491    35.8491    35.8491    -0.0000     0.0000     0.0000 </r>
      <r>     0.6125    40.1562    40.1562    40.1562    -0.0000     0.0000     0.0000 </r>
      <r>     0.6417    44.7075    44.7075    44.7075    -0.0000     0.0000     0.0000 </r>
      <r>     0.6708    49.5032    49.5032    49.5032    -0.0000     0.0000     0.0000 </r>
      <r>     0.7000    54.5431    54.5431    54.5431    -0.0000     0.0000     0.0000 </r>
      <r>     0.7292    59.8272    59.8272    59.8272    -0.0000     0.0000     0.0000 </r>
      <r>     0.7583    65.3557    65.3557    65.3557    -0.0000     0.0000     0.0000 </r>
      <r>     0.7875    71.1284    71.1284    71.1284    -0.0000     0.0000     0.0000 </r>
      <r>     0.8167    77.1454    77.1454    77.1454    -0.0000     0.0000     0.0000 </r>
      <r>     0.8458    83.4067    83.4067    83.4067    -0.0000     0.0000     0.0000 </r>
      <r>     0.8750    89.9122    89.9122    89.9122    -0.0000     0.0000     0.0000 </r>
      <r>     0.9042    96.6620    96.6620    96.6620    -0.0000     0.0000     0.0000 </r>
      <r>     0.9333   103.6561   103.6561   103.6561    -0.0000     0.0000     0.0000 </r>
      <r>     0.9625   110.8944   110.8944   110.8944    -0.0000     0.0000     0.0000 </r>
      <r>     0.9917   118.3770   118.3770   118.3770    -0.0000     0.0000     0.0000 </r>
      <r>     1.0208   126.1039   126.1039   126.1039    -0.0000     0.0000     0.0000 </r>
      <r>     1.0500   134.0751   134.0751   134.0751    -0.0000     0.0000     0.0000 </r>
      <r>     1.0792   142.2905   142.2905   142.2905    -0.0000     0.0000     0.0000 </r>
      <r>     1.1083   150.7502   150.7502   150.7502    -0.0000     0.0000     0.0000 </r>
      <r>     1.1375   159.4542   159.4542   159.4542    -0.0000     0.0000     0.0000 </r>
      <r>     1.1667   168.4025   168.4025   168.4025    -0.0000     0.0000     0.0000 </r>
      <r>     1.1958   177.5950   177.5950   177.5950    -0.0000     0.0000     0.0000 </r>
      <r>     1.2250   187.0318   187.0318   187.0318    -0.0000     0.0000     0.0000 </r>
      <r>     1.2542   196.7129   196.7129   196.7129    -0.0000     0.0000     0.0000 </r>
      <r>     1.2833   206.6382   206.6382   206.6382    -0.0000     0.0000     0.0000 </r>
      <r>     1.3125   216.8078   216.8078   216.8078    -0.0000     0.0000     0.0000 </r>
      <r>     1.3417   227.2217   227.2217   227.2217    -0.0000     0.0000     0.0000 </r>
      <r>     1.3708   237.8798   237.8798   237.8798    -0.0000     0.0000     0.0000 </r>
      <r>     1.4000   248.7823   248.7823   248.7823    -0.0000     0.0000     0.0000 </r>
      <r>     1.4292   259.9289   259.9289   259.9289    -0.0000     0.0000     0.0000 </r>
      <r>     1.4583   271.3211   271.3211   271.3211    -0.0000     0.0000     0.0000 </r>
      <r>     1.4875   282.9651   282.9651   282.9651    -0.0000     0.0000     0.0000 </r>
      <r>     1.5167   294.8619   294.8619   294.8619    -0.0000     0.0000     0.0000 </r>
      <r>     1.5458   307.0116   307.0116   307.0116    -0.0000     0.0000     0.0000 </r>
      <r>     1.5750   319.4140   319.4140   319.4140    -0.0000     0.0000     0.0000 </r>
      <r>     1.6042   332.0692   332.0692   332.0692    -0.0000     0.0000     0.0000 </r>
      <r>     1.6334   344.9772   344.9772   344.9772    -0.0000     0.0000     0.0000 </r>
      <r>     1.6625   358.1380   358.1380   358.1380    -0.0000     0.0000     0.0000 </r>
      <r>     1.6917   371.5516   371.5516   371.5516    -0.0000     0.0000     0.0000 </r>
      <r>     1.7209   385.2180   385.2180   385.2180    -0.0000     0.0000     0.0000 </r>
      <r>     1.7500   399.1372   399.1372   399.1372    -0.0000     0.0000     0.0000 </r>
      <r>     1.7792   413.3092   413.3092   413.3092    -0.0000     0.0000     0.0000 </r>
      <r>     1.8084   427.7340   427.7340   427.7340    -0.0000     0.0000     0.0000 </r>
      <r>     1.8375   344.8430   344.8430   344.8430    -0.0000     0.0000     0.0000 </r>
      <r>     1.8667   253.0519   253.0519   253.0519    -0.0000     0.0000     0.0000 </r>
      <r>     1.8959   218.6707   218.6707   218.6707    -0.0000     0.0000     0.0000 </r>
      <r>     1.9250   170.8479   170.8479   170.8479    -0.0000     0.0000     0.0000 </r>
      <r>     1.9542   163.4894   163.4894   163.4894    -0.0000     0.0000     0.0000 </r>
      <r>     1.9834   157.9843   157.9843   157.9843    -0.0000     0.0000     0.0000 </r>
      <r>     2.0125   152.0562   152.0562   152.0562    -0.0000     0.0000     0.0000 </r>
      <r>     2.0417   145.7051   145.7051   145.7051    -0.0000     0.0000     0.0000 </r>
      <r>     2.0709   138.9312   138.9312   138.9312    -0.0000     0.0000     0.0000 </r>
      <r>     2.1000   131.7343   131.7343   131.7343    -0.0000     0.0000     0.0000 </r>
      <r>     2.1292   124.1144   124.1144   124.1144    -0.0000     0.0000     0.0000 </r>
      <r>     2.1584   118.7046   118.7046   118.7046    -0.0000     0.0000     0.0000 </r>
      <r>     2.1875   113.7279   113.7279   113.7279    -0.0000     0.0000     0.0000 </r>
      <r>     2.2167   109.1972   109.1972   109.1972    -0.0000     0.0000     0.0000 </r>
      <r>     2.2459   105.1125   105.1125   105.1125    -0.0000     0.0000     0.0000 </r>
      <r>     2.2750   101.4738   101.4738   101.4738    -0.0000     0.0000     0.0000 </r>
      <r>     2.3042    98.2811    98.2811    98.2811    -0.0000     0.0000     0.0000 </r>
      <r>     2.3334    95.5348    95.5348    95.5348    -0.0000     0.0000     0.0000 </r>
      <r>     2.3625    93.2365    93.2365    93.2365    -0.0000     0.0000     0.0000 </r>
      <r>     2.3917    91.3862    91.3862    91.3862    -0.0000     0.0000     0.0000 </r>
      <r>     2.4209    89.9607    89.9607    89.9607    -0.0000     0.0000     0.0000 </r>
      <r>     2.4500    88.9374    88.9374    88.9374    -0.0000     0.0000     0.0000 </r>
      <r>     2.4792    88.3161    88.3161    88.3161    -0.0000     0.0000     0.0000 </r>
      <r>     2.5084    88.0969    88.0969    88.0969    -0.0000     0.0000     0.0000 </r>
      <r>     2.5375    88.2798    88.2798    88.2798    -0.0000     0.0000     0.0000 </r>
      <r>     2.5667    88.4603    88.4603    88.4603    -0.0000     0.0000     0.0000 </r>
      <r>     2.5959    89.3555    89.3555    89.3555    -0.0000     0.0000     0.0000 </r>
      <r>     2.6250    90.7053    90.7053    90.7053    -0.0000     0.0000     0.0000 </r>
      <r>     2.6542    92.3631    92.3631    92.3631    -0.0000     0.0000     0.0000 </r>
      <r>     2.6834    94.1697    94.1697    94.1697    -0.0000     0.0000     0.0000 </r>
      <r>     2.7125    96.0099    96.0099    96.0099    -0.0000     0.0000     0.0000 </r>
      <r>     2.7417    97.8417    97.8417    97.8417    -0.0000     0.0000     0.0000 </r>
      <r>     2.7709    99.6651    99.6651    99.6651    -0.0000     0.0000     0.0000 </r>
      <r>     2.8000   101.4796   101.4796   101.4796    -0.0000     0.0000     0.0000 </r>
      <r>     2.8292   103.2757   103.2757   103.2757    -0.0000     0.0000     0.0000 </r>
      <r>     2.8584   105.0620   105.0620   105.0620    -0.0000     0.0000     0.0000 </r>
      <r>     2.8875   121.4830   121.4830   121.4830    -0.0000     0.0000     0.0000 </r>
      <r>     2.9167   110.6535   110.6535   110.6535    -0.0000     0.0000     0.0000 </r>
      <r>     2.9459   112.6057   112.6057   112.6057    -0.0000     0.0000     0.0000 </r>
      <r>     2.9750   114.5495   114.5495   114.5495    -0.0000     0.0000     0.0000 </r>
      <r>     3.0042   116.4849   116.4849   116.4849    -0.0000     0.0000     0.0000 </r>
      <r>     3.0334   118.4119   118.4119   118.4119    -0.0000     0.0000     0.0000 </r>
      <r>     3.0625   120.3306   120.3306   120.3306    -0.0000     0.0000     0.0000 </r>
      <r>     3.0917   119.1123   119.1123   119.1123    -0.0000     0.0000     0.0000 </r>
      <r>     3.1209   116.6363   116.6363   116.6363    -0.0000     0.0000     0.0000 </r>
      <r>     3.1500   114.1469   114.1469   114.1469    -0.0000     0.0000     0.0000 </r>
      <r>     3.1792   112.0562   112.0562   112.0562    -0.0000     0.0000     0.0000 </r>
      <r>     3.2084   108.5072   108.5072   108.5072    -0.0000     0.0000     0.0000 </r>
      <r>     3.2375   100.2788   100.2788   100.2788    -0.0000     0.0000     0.0000 </r>
      <r>     3.2667    96.2596    96.2596    96.2596    -0.0000     0.0000     0.0000 </r>
      <r>     3.2959    91.4907    91.4907    91.4907    -0.0000     0.0000     0.0000 </r>
      <r>     3.3250    87.7263    87.7263    87.7263    -0.0000     0.0000     0.0000 </r>
      <r>     3.3542    83.7571    83.7571    83.7571    -0.0000     0.0000     0.0000 </r>
      <r>     3.3834    79.9289    79.9289    79.9289    -0.0000     0.0000     0.0000 </r>
      <r>     3.4125    76.5040    76.5040    76.5040    -0.0000     0.0000     0.0000 </r>
      <r>     3.4417    73.0106    73.0106    73.0106    -0.0000     0.0000     0.0000 </r>
      <r>     3.4709    66.1968    66.1968    66.1968    -0.0000     0.0000     0.0000 </r>
      <r>     3.5000    53.9267    53.9267    53.9267    -0.0000     0.0000     0.0000 </r>
      <r>     3.5292    49.6722    49.6722    49.6722    -0.0000     0.0000     0.0000 </r>
      <r>     3.5584    45.7344    45.7344    45.7344    -0.0000     0.0000     0.0000 </r>
      <r>     3.5875    42.2847    42.2847    42.2847    -0.0000     0.0000     0.0000 </r>
      <r>     3.6167    39.1856    39.1856    39.1856    -0.0000     0.0000     0.0000 </r>
      <r>     3.6459    37.1865    37.1865    37.1865    -0.0000     0.0000     0.0000 </r>
      <r>     3.6750    34.8944    34.8944    34.8944    -0.0000     0.0000     0.0000 </r>
      <r>     3.7042    32.3404    32.3404    32.3404    -0.0000     0.0000     0.0000 </r>
      <r>     3.7334    29.9556    29.9556    29.9556    -0.0000     0.0000     0.0000 </r>
      <r>     3.7625    28.5672    28.5672    28.5672    -0.0000     0.0000     0.0000 </r>
      <r>     3.7917    28.3749    28.3749    28.3749    -0.0000     0.0000     0.0000 </r>
      <r>     3.8209    27.1669    27.1669    27.1669    -0.0000     0.0000     0.0000 </r>
      <r>     3.8500    26.2237    26.2237    26.2237    -0.0000     0.0000     0.0000 </r>
      <r>     3.8792    25.5506    25.5506    25.5506    -0.0000     0.0000     0.0000 </r>
      <r>     3.9084    25.0727    25.0727    25.0727    -0.0000     0.0000     0.0000 </r>
      <r>     3.9375    31.0059    31.0059    31.0059    -0.0000     0.0000     0.0000 </r>
      <r>     3.9667    24.9309    24.9309    24.9309    -0.0000     0.0000     0.0000 </r>
      <r>     3.9959    24.9310    24.9310    24.9310    -0.0000     0.0000     0.0000 </r>
      <r>     4.0250    25.3265    25.3265    25.3265    -0.0000     0.0000     0.0000 </r>
      <r>     4.0542    25.8145    25.8145    25.8145    -0.0000     0.0000     0.0000 </r>
      <r>     4.0834    25.7386    25.7386    25.7386    -0.0000     0.0000     0.0000 </r>
      <r>     4.1125    25.2426    25.2426    25.2426    -0.0000     0.0000     0.0000 </r>
      <r>     4.1417    24.5845    24.5845    24.5845    -0.0000     0.0000     0.0000 </r>
      <r>     4.1709    23.5886    23.5886    23.5886    -0.0000     0.0000     0.0000 </r>
      <r>     4.2000    22.4299    22.4299    22.4299    -0.0000     0.0000     0.0000 </r>
      <r>     4.2292    20.7829    20.7829    20.7829    -0.0000     0.0000     0.0000 </r>
      <r>     4.2584    20.2173    20.2173    20.2173    -0.0000     0.0000     0.0000 </r>
      <r>     4.2875    19.8484    19.8484    19.8484    -0.0000     0.0000     0.0000 </r>
      <r>     4.3167    19.2962    19.2962    19.2962    -0.0000     0.0000     0.0000 </r>
      <r>     4.3459    19.1169    19.1169    19.1169    -0.0000     0.0000     0.0000 </r>
      <r>     4.3750    19.1006    19.1006    19.1006    -0.0000     0.0000     0.0000 </r>
      <r>     4.4042    19.1101    19.1101    19.1101    -0.0000     0.0000     0.0000 </r>
      <r>     4.4334    19.4511    19.4511    19.4511    -0.0000     0.0000     0.0000 </r>
      <r>     4.4625    20.4279    20.4279    20.4279    -0.0000     0.0000     0.0000 </r>
      <r>     4.4917    19.8374    19.8374    19.8374    -0.0000     0.0000     0.0000 </r>
      <r>     4.5209    19.2734    19.2734    19.2734    -0.0000     0.0000     0.0000 </r>
      <r>     4.5500    18.6172    18.6172    18.6172    -0.0000     0.0000     0.0000 </r>
      <r>     4.5792    17.6632    17.6632    17.6632    -0.0000     0.0000     0.0000 </r>
      <r>     4.6084    15.9128    15.9128    15.9128    -0.0000     0.0000     0.0000 </r>
      <r>     4.6375    15.2895    15.2895    15.2895    -0.0000     0.0000     0.0000 </r>
      <r>     4.6667    14.9408    14.9408    14.9408    -0.0000     0.0000     0.0000 </r>
      <r>     4.6959    14.5731    14.5731    14.5731    -0.0000     0.0000     0.0000 </r>
      <r>     4.7251    14.7631    14.7631    14.7631    -0.0000     0.0000     0.0000 </r>
      <r>     4.7542    15.0410    15.0410    15.0410    -0.0000     0.0000     0.0000 </r>
      <r>     4.7834    16.0570    16.0570    16.0570    -0.0000     0.0000     0.0000 </r>
      <r>     4.8126    15.4331    15.4331    15.4331    -0.0000     0.0000     0.0000 </r>
      <r>     4.8417    14.8349    14.8349    14.8349    -0.0000     0.0000     0.0000 </r>
      <r>     4.8709    14.0170    14.0170    14.0170    -0.0000     0.0000     0.0000 </r>
      <r>     4.9001    13.8966    13.8966    13.8966    -0.0000     0.0000     0.0000 </r>
      <r>     4.9292    17.0303    17.0303    17.0303    -0.0000     0.0000     0.0000 </r>
      <r>     4.9584    16.7470    16.7470    16.7470    -0.0000     0.0000     0.0000 </r>
      <r>     4.9876    10.1338    10.1338    10.1338    -0.0000     0.0000     0.0000 </r>
      <r>     5.0167     8.9806     8.9806     8.9806    -0.0000     0.0000     0.0000 </r>
      <r>     5.0459     7.7018     7.7018     7.7018    -0.0000     0.0000     0.0000 </r>
      <r>     5.0751     7.6980     7.6980     7.6980    -0.0000     0.0000     0.0000 </r>
      <r>     5.1042     7.3684     7.3684     7.3684    -0.0000     0.0000     0.0000 </r>
      <r>     5.1334     7.3509     7.3509     7.3509    -0.0000     0.0000     0.0000 </r>
      <r>     5.1626     7.2584     7.2584     7.2584    -0.0000     0.0000     0.0000 </r>
      <r>     5.1917     7.1690     7.1690     7.1690    -0.0000     0.0000     0.0000 </r>
      <r>     5.2209     7.2073     7.2073     7.2073    -0.0000     0.0000     0.0000 </r>
      <r>     5.2501     7.2440     7.2440     7.2440    -0.0000     0.0000     0.0000 </r>
      <r>     5.2792     7.2780     7.2780     7.2780    -0.0000     0.0000     0.0000 </r>
      <r>     5.3084     7.7455     7.7455     7.7455    -0.0000     0.0000     0.0000 </r>
      <r>     5.3376     8.0609     8.0609     8.0609    -0.0000     0.0000     0.0000 </r>
      <r>     5.3667     8.3906     8.3906     8.3906    -0.0000     0.0000     0.0000 </r>
      <r>     5.3959     8.7504     8.7504     8.7504    -0.0000     0.0000     0.0000 </r>
      <r>     5.4251     9.1709     9.1709     9.1709    -0.0000     0.0000     0.0000 </r>
      <r>     5.4542     9.7135     9.7135     9.7135    -0.0000     0.0000     0.0000 </r>
      <r>     5.4834    12.8637    12.8637    12.8637    -0.0000     0.0000     0.0000 </r>
      <r>     5.5126    13.4219    13.4219    13.4219    -0.0000     0.0000     0.0000 </r>
      <r>     5.5417    13.7813    13.7813    13.7813    -0.0000     0.0000     0.0000 </r>
      <r>     5.5709    39.5886    39.5886    39.5886    -0.0000     0.0000     0.0000 </r>
      <r>     5.6001    18.6987    18.6987    18.6987    -0.0000     0.0000     0.0000 </r>
      <r>     5.6292    10.6879    10.6879    10.6879    -0.0000     0.0000     0.0000 </r>
      <r>     5.6584     9.7782     9.7782     9.7782    -0.0000     0.0000     0.0000 </r>
      <r>     5.6876     8.8943     8.8943     8.8943    -0.0000     0.0000     0.0000 </r>
      <r>     5.7167     8.1861     8.1861     8.1861    -0.0000     0.0000     0.0000 </r>
      <r>     5.7459     7.6555     7.6555     7.6555    -0.0000     0.0000     0.0000 </r>
      <r>     5.7751     7.1309     7.1309     7.1309    -0.0000     0.0000     0.0000 </r>
      <r>     5.8042     6.5716     6.5716     6.5716    -0.0000     0.0000     0.0000 </r>
      <r>     5.8334     5.5153     5.5153     5.5153    -0.0000     0.0000     0.0000 </r>
      <r>     5.8626     5.3248     5.3248     5.3248    -0.0000     0.0000     0.0000 </r>
      <r>     5.8917     5.2323     5.2323     5.2323    -0.0000     0.0000     0.0000 </r>
      <r>     5.9209     5.1309     5.1309     5.1309    -0.0000     0.0000     0.0000 </r>
      <r>     5.9501     4.8531     4.8531     4.8531    -0.0000     0.0000     0.0000 </r>
      <r>     5.9792     4.7076     4.7076     4.7076    -0.0000     0.0000     0.0000 </r>
      <r>     6.0084     4.6049     4.6049     4.6049    -0.0000     0.0000     0.0000 </r>
      <r>     6.0376     4.5496     4.5496     4.5496    -0.0000     0.0000     0.0000 </r>
      <r>     6.0667     4.8473     4.8473     4.8473    -0.0000     0.0000     0.0000 </r>
      <r>     6.0959     4.4753     4.4753     4.4753    -0.0000     0.0000     0.0000 </r>
      <r>     6.1251     4.1544     4.1544     4.1544    -0.0000     0.0000     0.0000 </r>
      <r>     6.1542     6.1528     6.1528     6.1528    -0.0000     0.0000     0.0000 </r>
      <r>     6.1834     4.8229     4.8229     4.8229    -0.0000     0.0000     0.0000 </r>
      <r>     6.2126     8.4138     8.4138     8.4138    -0.0000     0.0000     0.0000 </r>
      <r>     6.2417     5.7701     5.7701     5.7701    -0.0000     0.0000     0.0000 </r>
      <r>     6.2709     7.8748     7.8748     7.8748    -0.0000     0.0000     0.0000 </r>
      <r>     6.3001     6.1511     6.1511     6.1511    -0.0000     0.0000     0.0000 </r>
      <r>     6.3292     6.1067     6.1067     6.1067    -0.0000     0.0000     0.0000 </r>
      <r>     6.3584     6.0084     6.0084     6.0084    -0.0000     0.0000     0.0000 </r>
      <r>     6.3876     5.9732     5.9732     5.9732    -0.0000     0.0000     0.0000 </r>
      <r>     6.4167     6.0618     6.0618     6.0618    -0.0000     0.0000     0.0000 </r>
      <r>     6.4459     6.2844     6.2844     6.2844    -0.0000     0.0000     0.0000 </r>
      <r>     6.4751     6.4508     6.4508     6.4508    -0.0000     0.0000     0.0000 </r>
      <r>     6.5042     6.5151     6.5151     6.5151    -0.0000     0.0000     0.0000 </r>
      <r>     6.5334     6.6057     6.6057     6.6057    -0.0000     0.0000     0.0000 </r>
      <r>     6.5626     6.4244     6.4244     6.4244    -0.0000     0.0000     0.0000 </r>
      <r>     6.5917     6.2373     6.2373     6.2373    -0.0000     0.0000     0.0000 </r>
      <r>     6.6209     6.0127     6.0127     6.0127    -0.0000     0.0000     0.0000 </r>
      <r>     6.6501     5.7418     5.7418     5.7418    -0.0000     0.0000     0.0000 </r>
      <r>     6.6792     5.4509     5.4509     5.4509    -0.0000     0.0000     0.0000 </r>
      <r>     6.7084     5.2945     5.2945     5.2945    -0.0000     0.0000     0.0000 </r>
      <r>     6.7376     4.9049     4.9049     4.9049    -0.0000     0.0000     0.0000 </r>
      <r>     6.7667     4.8012     4.8012     4.8012    -0.0000     0.0000     0.0000 </r>
      <r>     6.7959     4.7393     4.7393     4.7393    -0.0000     0.0000     0.0000 </r>
      <r>     6.8251     5.9278     5.9278     5.9278    -0.0000     0.0000     0.0000 </r>
      <r>     6.8542     4.8251     4.8251     4.8251    -0.0000     0.0000     0.0000 </r>
      <r>     6.8834     4.9124     4.9124     4.9124    -0.0000     0.0000     0.0000 </r>
      <r>     6.9126     5.1860     5.1860     5.1860    -0.0000     0.0000     0.0000 </r>
      <r>     6.9417     5.4201     5.4201     5.4201    -0.0000     0.0000     0.0000 </r>
      <r>     6.9709     5.7212     5.7212     5.7212    -0.0000     0.0000     0.0000 </r>
      <r>     7.0001     5.8484     5.8484     5.8484    -0.0000     0.0000     0.0000 </r>
      <r>     7.0292     5.5659     5.5659     5.5659    -0.0000     0.0000     0.0000 </r>
      <r>     7.0584     5.5530     5.5530     5.5530    -0.0000     0.0000     0.0000 </r>
      <r>     7.0876     5.4258     5.4258     5.4258    -0.0000     0.0000     0.0000 </r>
      <r>     7.1167     4.3656     4.3656     4.3656    -0.0000     0.0000     0.0000 </r>
      <r>     7.1459     4.0223     4.0223     4.0223    -0.0000     0.0000     0.0000 </r>
      <r>     7.1751     3.6702     3.6702     3.6702    -0.0000     0.0000     0.0000 </r>
      <r>     7.2042     3.3113     3.3113     3.3113    -0.0000     0.0000     0.0000 </r>
      <r>     7.2334     3.0477     3.0477     3.0477    -0.0000     0.0000     0.0000 </r>
      <r>     7.2626     3.5369     3.5369     3.5369    -0.0000     0.0000     0.0000 </r>
      <r>     7.2917     2.7109     2.7109     2.7109    -0.0000     0.0000     0.0000 </r>
      <r>     7.3209     2.5601     2.5601     2.5601    -0.0000     0.0000     0.0000 </r>
      <r>     7.3501     2.4921     2.4921     2.4921    -0.0000     0.0000     0.0000 </r>
      <r>     7.3792     2.3220     2.3220     2.3220    -0.0000     0.0000     0.0000 </r>
      <r>     7.4084     2.2656     2.2656     2.2656    -0.0000     0.0000     0.0000 </r>
      <r>     7.4376     2.1363     2.1363     2.1363    -0.0000     0.0000     0.0000 </r>
      <r>     7.4667     2.4271     2.4271     2.4271    -0.0000     0.0000     0.0000 </r>
      <r>     7.4959     2.2417     2.2417     2.2417    -0.0000     0.0000     0.0000 </r>
      <r>     7.5251     1.9421     1.9421     1.9421    -0.0000     0.0000     0.0000 </r>
      <r>     7.5542     1.8372     1.8372     1.8372    -0.0000     0.0000     0.0000 </r>
      <r>     7.5834     1.8310     1.8310     1.8310    -0.0000     0.0000     0.0000 </r>
      <r>     7.6126     1.8330     1.8330     1.8330    -0.0000     0.0000     0.0000 </r>
      <r>     7.6417     1.8968     1.8968     1.8968    -0.0000     0.0000     0.0000 </r>
      <r>     7.6709     1.9566     1.9566     1.9566    -0.0000     0.0000     0.0000 </r>
      <r>     7.7001     2.0129     2.0129     2.0129    -0.0000     0.0000     0.0000 </r>
      <r>     7.7292     2.0807     2.0807     2.0807    -0.0000     0.0000     0.0000 </r>
      <r>     7.7584     2.0438     2.0438     2.0438    -0.0000     0.0000     0.0000 </r>
      <r>     7.7876     2.1200     2.1200     2.1200    -0.0000     0.0000     0.0000 </r>
      <r>     7.8167     2.2033     2.2033     2.2033    -0.0000     0.0000     0.0000 </r>
      <r>     7.8459     2.2799     2.2799     2.2799    -0.0000     0.0000     0.0000 </r>
      <r>     7.8751     2.2780     2.2780     2.2780    -0.0000     0.0000     0.0000 </r>
      <r>     7.9043     2.2729     2.2729     2.2729    -0.0000     0.0000     0.0000 </r>
      <r>     7.9334     2.8709     2.8709     2.8709    -0.0000     0.0000     0.0000 </r>
      <r>     7.9626     2.6633     2.6633     2.6633    -0.0000     0.0000     0.0000 </r>
      <r>     7.9918     2.5926     2.5926     2.5926    -0.0000     0.0000     0.0000 </r>
      <r>     8.0209     3.1899     3.1899     3.1899    -0.0000     0.0000     0.0000 </r>
      <r>     8.0501     3.0286     3.0286     3.0286    -0.0000     0.0000     0.0000 </r>
      <r>     8.0793     2.7878     2.7878     2.7878    -0.0000     0.0000     0.0000 </r>
      <r>     8.1084     2.9348     2.9348     2.9348    -0.0000     0.0000     0.0000 </r>
      <r>     8.1376     2.9333     2.9333     2.9333    -0.0000     0.0000     0.0000 </r>
      <r>     8.1668     2.9368     2.9368     2.9368    -0.0000     0.0000     0.0000 </r>
      <r>     8.1959     3.7481     3.7481     3.7481    -0.0000     0.0000     0.0000 </r>
      <r>     8.2251     2.7207     2.7207     2.7207    -0.0000     0.0000     0.0000 </r>
      <r>     8.2543     2.2052     2.2052     2.2052    -0.0000     0.0000     0.0000 </r>
      <r>     8.2834     2.1817     2.1817     2.1817    -0.0000     0.0000     0.0000 </r>
      <r>     8.3126     2.1309     2.1309     2.1309    -0.0000     0.0000     0.0000 </r>
      <r>     8.3418     2.1477     2.1477     2.1477    -0.0000     0.0000     0.0000 </r>
      <r>     8.3709     2.1012     2.1012     2.1012    -0.0000     0.0000     0.0000 </r>
      <r>     8.4001     2.0596     2.0596     2.0596    -0.0000     0.0000     0.0000 </r>
      <r>     8.4293     2.0616     2.0616     2.0616    -0.0000     0.0000     0.0000 </r>
      <r>     8.4584     2.1920     2.1920     2.1920    -0.0000     0.0000     0.0000 </r>
      <r>     8.4876     1.9448     1.9448     1.9448    -0.0000     0.0000     0.0000 </r>
      <r>     8.5168     1.9199     1.9199     1.9199    -0.0000     0.0000     0.0000 </r>
      <r>     8.5459     2.0783     2.0783     2.0783    -0.0000     0.0000     0.0000 </r>
      <r>     8.5751     1.8284     1.8284     1.8284    -0.0000     0.0000     0.0000 </r>
      <r>     8.6043     1.8055     1.8055     1.8055    -0.0000     0.0000     0.0000 </r>
[...]
        <r>  0.0000  0.0150  0.0135  0.0118  0.0019  0.0017  0.0005  0.0022  0.0005 </r>
        <r>  0.0000  0.0150  0.0135  0.0118  0.0019  0.0017  0.0005  0.0022  0.0005 </r>
        <r>  0.0000  0.0353  0.0317  0.0276  0.0003  0.0003  0.0001  0.0003  0.0001 </r>
        <r>  0.0000  0.0353  0.0317  0.0276  0.0003  0.0003  0.0001  0.0003  0.0001 </r>
        <r>  0.0000  0.0353  0.0317  0.0276  0.0003  0.0003  0.0001  0.0003  0.0001 </r>
        <r>  0.0000  0.0353  0.0317  0.0276  0.0003  0.0003  0.0001  0.0003  0.0001 </r>
       </set>
       <set comment="band 37">
        <r>  0.0706  0.0055  0.0055  0.0055  0.0012  0.0012  0.0000  0.0012  0.0000 </r>
        <r>  0.0706  0.0055  0.0055  0.0055  0.0012  0.0012  0.0000  0.0012  0.0000 </r>
        <r>  0.0706  0.0055  0.0055  0.0055  0.0012  0.0012  0.0000  0.0012  0.0000 </r>
        <r>  0.0706  0.0055  0.0055  0.0055  0.0012  0.0012  0.0000  0.0012  0.0000 </r>
        <r>  0.0354  0.0043  0.0043  0.0043  0.0018  0.0018  0.0000  0.0018  0.0000 </r>
        <r>  0.0354  0.0043  0.0043  0.0043  0.0018  0.0018  0.0000  0.0018  0.0000 </r>
        <r>  0.0354  0.0043  0.0043  0.0043  0.0018  0.0018  0.0000  0.0018  0.0000 </r>
        <r>  0.0354  0.0043  0.0043  0.0043  0.0018  0.0018  0.0000  0.0018  0.0000 </r>
       </set>
       <set comment="band 38">
        <r>  0.1281  0.0046  0.0153  0.0031  0.0004  0.0017  0.0002  0.0016  0.0000 </r>
        <r>  0.0652  0.0117  0.0018  0.0078  0.0042  0.0001  0.0004  0.0002  0.0000 </r>
        <r>  0.0087  0.0140  0.0028  0.0030  0.0008  0.0020  0.0001  0.0021  0.0005 </r>
        <r>  0.0208  0.0037  0.0041  0.0123  0.0003  0.0020  0.0001  0.0025  0.0005 </r>
        <r>  0.0602  0.0253  0.0054  0.0221  0.0017  0.0002  0.0001  0.0001  0.0000 </r>
        <r>  0.0098  0.0173  0.0050  0.0026  0.0004  0.0038  0.0000  0.0020  0.0002 </r>
        <r>  0.0306  0.0077  0.0221  0.0066  0.0032  0.0004  0.0002  0.0009  0.0000 </r>
        <r>  0.0041  0.0047  0.0063  0.0107  0.0007  0.0019  0.0001  0.0040  0.0002 </r>
       </set>
       <set comment="band 39">
        <r>  0.0001  0.0077  0.0008  0.0111  0.0003  0.0028  0.0001  0.0020  0.0006 </r>
        <r>  0.0111  0.0059  0.0009  0.0130  0.0000  0.0014  0.0000  0.0034  0.0006 </r>
        <r>  0.0863  0.0065  0.0108  0.0045  0.0020  0.0016  0.0003  0.0006  0.0000 </r>
        <r>  0.1253  0.0114  0.0033  0.0082  0.0026  0.0009  0.0002  0.0002  0.0000 </r>
        <r>  0.0001  0.0083  0.0012  0.0100  0.0003  0.0039  0.0000  0.0027  0.0003 </r>
        <r>  0.0589  0.0130  0.0179  0.0211  0.0018  0.0001  0.0001  0.0004  0.0000 </r>
        <r>  0.0052  0.0149  0.0016  0.0058  0.0000  0.0029  0.0000  0.0036  0.0003 </r>
        <r>  0.0406  0.0147  0.0047  0.0226  0.0032  0.0004  0.0001  0.0001  0.0000 </r>
       </set>
       <set comment="band 40">
        <r>  0.0388  0.0088  0.0049  0.0069  0.0038  0.0000  0.0005  0.0008  0.0000 </r>
        <r>  0.0909  0.0034  0.0183  0.0003  0.0003  0.0030  0.0003  0.0009  0.0000 </r>
        <r>  0.0721  0.0005  0.0074  0.0136  0.0017  0.0008  0.0002  0.0017  0.0002 </r>
        <r>  0.0210  0.0060  0.0136  0.0006  0.0015  0.0016  0.0005  0.0017  0.0002 </r>
        <r>  0.0183  0.0004  0.0274  0.0018  0.0028  0.0007  0.0002  0.0020  0.0000 </r>
        <r>  0.0099  0.0037  0.0110  0.0102  0.0027  0.0010  0.0002  0.0025  0.0001 </r>
        <r>  0.0427  0.0113  0.0103  0.0215  0.0017  0.0015  0.0001  0.0003  0.0000 </r>
        <r>  0.0339  0.0145  0.0230  0.0007  0.0009  0.0025  0.0001  0.0008  0.0001 </r>
       </set>
       <set comment="band 41">
        <r>  0.0035  0.0344  0.0158  0.0256  0.0013  0.0032  0.0020  0.0035  0.0021 </r>
        <r>  0.0031  0.0283  0.0151  0.0236  0.0018  0.0027  0.0026  0.0025  0.0021 </r>
        <r>  0.0006  0.0141  0.0021  0.0018  0.0003  0.0000  0.0016  0.0021  0.0064 </r>
        <r>  0.0017  0.0229  0.0095  0.0066  0.0009  0.0003  0.0002  0.0033  0.0064 </r>
        <r>  0.0025  0.0107  0.0088  0.0079  0.0032  0.0027  0.0025  0.0052  0.0025 </r>
        <r>  0.0012  0.0040  0.0042  0.0049  0.0016  0.0022  0.0003  0.0019  0.0076 </r>
        <r>  0.0022  0.0101  0.0065  0.0074  0.0019  0.0028  0.0032  0.0051  0.0025 </r>
        <r>  0.0004  0.0020  0.0011  0.0020  0.0002  0.0010  0.0019  0.0014  0.0076 </r>
       </set>
       <set comment="band 42">
        <r>  0.0002  0.0012  0.0074  0.0009  0.0012  0.0004  0.0057  0.0001  0.0028 </r>
        <r>  0.0034  0.0215  0.0312  0.0198  0.0032  0.0015  0.0015  0.0029  0.0028 </r>
        <r>  0.0019  0.0157  0.0139  0.0137  0.0009  0.0021  0.0053  0.0018  0.0010 </r>
        <r>  0.0035  0.0165  0.0327  0.0253  0.0043  0.0025  0.0032  0.0011  0.0010 </r>
        <r>  0.0001  0.0008  0.0009  0.0001  0.0008  0.0000  0.0069  0.0005  0.0034 </r>
        <r>  0.0025  0.0096  0.0080  0.0093  0.0032  0.0039  0.0038  0.0039  0.0012 </r>
        <r>  0.0024  0.0068  0.0096  0.0096  0.0045  0.0041  0.0018  0.0020  0.0034 </r>
        <r>  0.0013  0.0047  0.0066  0.0034  0.0035  0.0009  0.0063  0.0019  0.0012 </r>
       </set>
       <set comment="band 43">
        <r>  0.0030  0.0144  0.0267  0.0234  0.0030  0.0019  0.0010  0.0019  0.0039 </r>
        <r>  0.0002  0.0001  0.0037  0.0066  0.0004  0.0013  0.0046  0.0000  0.0039 </r>
        <r>  0.0042  0.0202  0.0340  0.0345  0.0042  0.0033  0.0019  0.0016  0.0014 </r>
        <r>  0.0015  0.0106  0.0077  0.0180  0.0003  0.0027  0.0054  0.0011  0.0014 </r>
        <r>  0.0021  0.0059  0.0077  0.0094  0.0033  0.0045  0.0012  0.0016  0.0047 </r>
        <r>  0.0011  0.0038  0.0051  0.0032  0.0025  0.0013  0.0064  0.0015  0.0017 </r>
        <r>  0.0002  0.0005  0.0013  0.0004  0.0009  0.0003  0.0055  0.0002  0.0047 </r>
        <r>  0.0030  0.0107  0.0096  0.0120  0.0036  0.0054  0.0023  0.0040  0.0017 </r>
       </set>
       <set comment="band 44">
        <r>  0.0000  0.0365  0.0209  0.0059  0.0016  0.0004  0.0033  0.0027  0.0033 </r>
        <r>  0.0000  0.0365  0.0209  0.0059  0.0016  0.0004  0.0033  0.0027  0.0033 </r>
        <r>  0.0000  0.0365  0.0209  0.0059  0.0016  0.0004  0.0033  0.0027  0.0033 </r>
        <r>  0.0000  0.0365  0.0209  0.0059  0.0016  0.0004  0.0033  0.0027  0.0033 </r>
        <r>  0.0000  0.0105  0.0060  0.0017  0.0029  0.0008  0.0036  0.0052  0.0037 </r>
        <r>  0.0000  0.0105  0.0060  0.0017  0.0029  0.0008  0.0036  0.0052  0.0037 </r>
        <r>  0.0000  0.0105  0.0060  0.0017  0.0029  0.0008  0.0036  0.0052  0.0037 </r>
        <r>  0.0000  0.0105  0.0060  0.0017  0.0029  0.0008  0.0036  0.0052  0.0037 </r>
       </set>
       <set comment="band 45">
        <r>  0.0000  0.0056  0.0213  0.0363  0.0016  0.0027  0.0033  0.0004  0.0033 </r>
        <r>  0.0000  0.0056  0.0213  0.0363  0.0016  0.0027  0.0033  0.0004  0.0033 </r>
        <r>  0.0000  0.0056  0.0213  0.0363  0.0016  0.0027  0.0033  0.0004  0.0033 </r>
        <r>  0.0000  0.0056  0.0213  0.0363  0.0016  0.0027  0.0033  0.0004  0.0033 </r>
        <r>  0.0000  0.0016  0.0061  0.0104  0.0030  0.0051  0.0037  0.0008  0.0036 </r>
        <r>  0.0000  0.0016  0.0061  0.0104  0.0030  0.0051  0.0037  0.0008  0.0036 </r>
        <r>  0.0000  0.0016  0.0061  0.0104  0.0030  0.0051  0.0037  0.0008  0.0036 </r>
        <r>  0.0000  0.0016  0.0061  0.0104  0.0030  0.0051  0.0037  0.0008  0.0036 </r>
       </set>
       <set comment="band 46">
        <r>  0.0000  0.0023  0.0211  0.0359  0.0020  0.0033  0.0038  0.0002  0.0033 </r>
        <r>  0.0000  0.0435  0.0211  0.0103  0.0020  0.0010  0.0038  0.0040  0.0052 </r>
        <r>  0.0000  0.0023  0.0052  0.0103  0.0005  0.0010  0.0009  0.0002  0.0012 </r>
        <r>  0.0000  0.0435  0.0052  0.0359  0.0005  0.0033  0.0009  0.0040  0.0092 </r>
        <r>  0.0000  0.0008  0.0076  0.0129  0.0030  0.0052  0.0043  0.0003  0.0038 </r>
        <r>  0.0000  0.0157  0.0019  0.0129  0.0007  0.0052  0.0011  0.0063  0.0105 </r>
        <r>  0.0000  0.0157  0.0076  0.0037  0.0030  0.0015  0.0043  0.0063  0.0059 </r>
        <r>  0.0000  0.0008  0.0019  0.0037  0.0007  0.0015  0.0011  0.0003  0.0014 </r>
       </set>
       <set comment="band 47">
        <r>  0.0000  0.0488  0.0122  0.0133  0.0011  0.0012  0.0022  0.0045  0.0067 </r>
        <r>  0.0000  0.0066  0.0122  0.0009  0.0011  0.0001  0.0022  0.0006  0.0002 </r>
        <r>  0.0000  0.0488  0.0366  0.0009  0.0034  0.0001  0.0065  0.0045  0.0037 </r>
        <r>  0.0000  0.0066  0.0366  0.0133  0.0034  0.0012  0.0065  0.0006  0.0002 </r>
        <r>  0.0000  0.0176  0.0044  0.0048  0.0018  0.0019  0.0025  0.0070  0.0076 </r>
        <r>  0.0000  0.0024  0.0132  0.0048  0.0053  0.0019  0.0075  0.0009  0.0002 </r>
        <r>  0.0000  0.0024  0.0044  0.0003  0.0018  0.0001  0.0025  0.0009  0.0002 </r>
        <r>  0.0000  0.0176  0.0132  0.0003  0.0053  0.0001  0.0075  0.0070  0.0043 </r>
       </set>
       <set comment="band 48">
        <r>  0.0000  0.0080  0.0259  0.0100  0.0024  0.0009  0.0046  0.0007  0.0006 </r>
        <r>  0.0000  0.0091  0.0259  0.0479  0.0024  0.0044  0.0046  0.0008  0.0053 </r>
        <r>  0.0000  0.0080  0.0174  0.0479  0.0016  0.0044  0.0031  0.0007  0.0056 </r>
        <r>  0.0000  0.0091  0.0174  0.0100  0.0016  0.0009  0.0031  0.0008  0.0012 </r>
        <r>  0.0000  0.0029  0.0093  0.0036  0.0037  0.0014  0.0053  0.0012  0.0007 </r>
        <r>  0.0000  0.0033  0.0062  0.0036  0.0025  0.0014  0.0036  0.0013  0.0014 </r>
        <r>  0.0000  0.0033  0.0093  0.0173  0.0037  0.0069  0.0053  0.0013  0.0060 </r>
        <r>  0.0000  0.0029  0.0063  0.0172  0.0025  0.0069  0.0036  0.0012  0.0064 </r>
       </set>
       <set comment="band 49">
        <r>  0.0006  0.0080  0.0060  0.0073  0.0021  0.0025  0.0000  0.0027  0.0000 </r>
        <r>  0.0006  0.0054  0.0048  0.0081  0.0027  0.0028  0.0000  0.0027  0.0000 </r>
        <r>  0.0012  0.0035  0.0039  0.0046  0.0029  0.0022  0.0000  0.0029  0.0000 </r>
        <r>  0.0009  0.0053  0.0085  0.0060  0.0030  0.0026  0.0000  0.0024  0.0000 </r>
        <r>  0.0021  0.0133  0.0209  0.0174  0.0006  0.0007  0.0000  0.0004  0.0000 </r>
        <r>  0.0021  0.0207  0.0129  0.0167  0.0002  0.0006  0.0000  0.0003  0.0000 </r>
        <r>  0.0021  0.0178  0.0177  0.0118  0.0004  0.0003  0.0000  0.0004  0.0000 </r>
        <r>  0.0021  0.0157  0.0147  0.0167  0.0003  0.0003  0.0000  0.0003  0.0000 </r>
       </set>
       <set comment="band 50">
        <r>  0.0022  0.0133  0.0191  0.0099  0.0031  0.0003  0.0004  0.0016  0.0002 </r>
        <r>  0.0017  0.0150  0.0178  0.0109  0.0029  0.0002  0.0004  0.0018  0.0001 </r>
        <r>  0.0002  0.0101  0.0018  0.0106  0.0005  0.0042  0.0000  0.0054  0.0012 </r>
        <r>  0.0003  0.0089  0.0029  0.0112  0.0003  0.0038  0.0001  0.0061  0.0012 </r>
        <r>  0.0014  0.0058  0.0267  0.0084  0.0001  0.0012  0.0001  0.0037  0.0001 </r>
        <r>  0.0002  0.0276  0.0038  0.0265  0.0000  0.0004  0.0000  0.0034  0.0005 </r>
        <r>  0.0016  0.0045  0.0330  0.0081  0.0002  0.0013  0.0002  0.0039  0.0001 </r>
        <r>  0.0001  0.0285  0.0041  0.0253  0.0000  0.0006  0.0000  0.0033  0.0005 </r>
       </set>
       <set comment="band 51">
        <r>  0.0007  0.0060  0.0109  0.0090  0.0042  0.0051  0.0009  0.0002  0.0003 </r>
        <r>  0.0015  0.0123  0.0098  0.0119  0.0025  0.0001  0.0007  0.0049  0.0002 </r>
        <r>  0.0002  0.0012  0.0193  0.0019  0.0059  0.0032  0.0010  0.0010  0.0000 </r>
        <r>  0.0022  0.0194  0.0083  0.0172  0.0018  0.0003  0.0004  0.0016  0.0000 </r>
        <r>  0.0005  0.0018  0.0169  0.0394  0.0030  0.0006  0.0005  0.0003  0.0001 </r>
        <r>  0.0016  0.0182  0.0131  0.0072  0.0040  0.0011  0.0002  0.0004  0.0000 </r>
        <r>  0.0009  0.0403  0.0093  0.0017  0.0040  0.0008  0.0002  0.0003  0.0001 </r>
        <r>  0.0001  0.0089  0.0273  0.0221  0.0026  0.0007  0.0005  0.0003  0.0000 </r>
       </set>
       <set comment="band 52">
        <r>  0.0019  0.0109  0.0040  0.0112  0.0008  0.0017  0.0002  0.0068  0.0016 </r>
        <r>  0.0006  0.0052  0.0060  0.0075  0.0027  0.0069  0.0003  0.0012  0.0007 </r>
        <r>  0.0014  0.0158  0.0124  0.0210  0.0009  0.0002  0.0002  0.0006  0.0001 </r>
        <r>  0.0028  0.0025  0.0184  0.0052  0.0042  0.0046  0.0011  0.0006  0.0003 </r>
        <r>  0.0009  0.0500  0.0020  0.0042  0.0018  0.0037  0.0000  0.0005  0.0007 </r>
        <r>  0.0007  0.0013  0.0401  0.0136  0.0005  0.0026  0.0004  0.0011  0.0001 </r>
        <r>  0.0002  0.0061  0.0071  0.0449  0.0006  0.0025  0.0002  0.0007  0.0004 </r>
        <r>  0.0020  0.0120  0.0188  0.0038  0.0015  0.0028  0.0002  0.0014  0.0000 </r>
       </set>
       <set comment="band 53">
        <r>  0.0354  0.0009  0.0042  0.0137  0.0011  0.0008  0.0001  0.0010  0.0012 </r>
        <r>  0.0252  0.0104  0.0031  0.0040  0.0004  0.0003  0.0001  0.0008  0.0011 </r>
        <r>  0.0368  0.0019  0.0084  0.0085  0.0019  0.0012  0.0011  0.0010  0.0001 </r>
        <r>  0.0103  0.0024  0.0019  0.0026  0.0009  0.0019  0.0003  0.0010  0.0004 </r>
        <r>  0.0057  0.0069  0.0116  0.0118  0.0027  0.0021  0.0002  0.0028  0.0023 </r>
        <r>  0.0095  0.0069  0.0044  0.0085  0.0013  0.0014  0.0002  0.0003  0.0002 </r>
        <r>  0.0077  0.0094  0.0111  0.0071  0.0020  0.0033  0.0006  0.0007  0.0010 </r>
        <r>  0.0085  0.0132  0.0129  0.0116  0.0010  0.0037  0.0011  0.0037  0.0003 </r>
       </set>
       <set comment="band 54">
        <r>  0.0174  0.0070  0.0004  0.0005  0.0020  0.0012  0.0007  0.0033  0.0013 </r>
        <r>  0.0090  0.0009  0.0038  0.0083  0.0005  0.0020  0.0013  0.0009  0.0017 </r>
        <r>  0.0376  0.0015  0.0023  0.0046  0.0049  0.0060  0.0003  0.0062  0.0000 </r>
        <r>  0.0013  0.0018  0.0095  0.0019  0.0008  0.0000  0.0032  0.0005  0.0006 </r>
        <r>  0.0023  0.0248  0.0004  0.0018  0.0003  0.0013  0.0018  0.0043  0.0022 </r>
        <r>  0.0001  0.0016  0.0215  0.0082  0.0037  0.0021  0.0071  0.0004  0.0010 </r>
        <r>  0.0014  0.0006  0.0091  0.0166  0.0029  0.0032  0.0027  0.0014  0.0029 </r>
        <r>  0.0061  0.0048  0.0014  0.0082  0.0019  0.0027  0.0002  0.0022  0.0006 </r>
       </set>
       <set comment="band 55">
        <r>  0.0106  0.0007  0.0109  0.0013  0.0018  0.0019  0.0032  0.0017  0.0001 </r>
        <r>  0.0333  0.0039  0.0026  0.0026  0.0075  0.0061  0.0006  0.0055  0.0006 </r>
        <r>  0.0027  0.0016  0.0009  0.0046  0.0002  0.0013  0.0006  0.0002  0.0033 </r>
        <r>  0.0131  0.0073  0.0000  0.0043  0.0013  0.0014  0.0010  0.0018  0.0028 </r>
        <r>  0.0011  0.0004  0.0192  0.0021  0.0053  0.0011  0.0082  0.0006  0.0005 </r>
        <r>  0.0016  0.0186  0.0000  0.0048  0.0010  0.0021  0.0008  0.0034  0.0052 </r>
        <r>  0.0058  0.0099  0.0060  0.0047  0.0013  0.0049  0.0009  0.0025  0.0006 </r>
        <r>  0.0011  0.0042  0.0054  0.0155  0.0008  0.0020  0.0026  0.0027  0.0042 </r>
       </set>
       <set comment="band 56">
        <r>  0.0214  0.0007  0.0071  0.0016  0.0004  0.0051  0.0004  0.0008  0.0027 </r>
        <r>  0.0021  0.0022  0.0075  0.0043  0.0001  0.0007  0.0015  0.0010  0.0017 </r>
        <r>  0.0002  0.0004  0.0017  0.0039  0.0010  0.0015  0.0010  0.0002  0.0012 </r>
        <r>  0.0571  0.0026  0.0011  0.0029  0.0031  0.0029  0.0012  0.0028  0.0016 </r>
        <r>  0.0069  0.0008  0.0000  0.0135  0.0003  0.0004  0.0012  0.0013  0.0010 </r>
        <r>  0.0040  0.0033  0.0044  0.0134  0.0016  0.0049  0.0007  0.0006  0.0055 </r>
        <r>  0.0007  0.0096  0.0264  0.0023  0.0015  0.0022  0.0019  0.0054  0.0063 </r>
        <r>  0.0011  0.0178  0.0163  0.0035  0.0031  0.0000  0.0022  0.0004  0.0014 </r>
       </set>
       <set comment="band 57">
        <r>  0.0011  0.0012  0.0041  0.0068  0.0072  0.0014  0.0115  0.0010  0.0012 </r>
        <r>  0.0040  0.0026  0.0281  0.0001  0.0020  0.0021  0.0098  0.0032  0.0024 </r>
        <r>  0.0029  0.0049  0.0169  0.0052  0.0071  0.0006  0.0028  0.0031  0.0002 </r>
        <r>  0.0027  0.0111  0.0109  0.0015  0.0052  0.0023  0.0190  0.0009  0.0049 </r>
        <r>  0.0005  0.0154  0.0052  0.0015  0.0079  0.0018  0.0058  0.0029  0.0020 </r>
        <r>  0.0008  0.0059  0.0069  0.0005  0.0044  0.0047  0.0134  0.0037  0.0028 </r>
        <r>  0.0020  0.0009  0.0029  0.0063  0.0071  0.0013  0.0139  0.0038  0.0005 </r>
        <r>  0.0007  0.0063  0.0094  0.0073  0.0041  0.0006  0.0144  0.0025  0.0029 </r>
       </set>
       <set comment="band 58">
        <r>  0.0163  0.0124  0.0211  0.0025  0.0006  0.0029  0.0055  0.0050  0.0052 </r>
        <r>  0.0065  0.0176  0.0013  0.0079  0.0017  0.0071  0.0141  0.0011  0.0008 </r>
        <r>  0.0014  0.0073  0.0026  0.0007  0.0006  0.0002  0.0037  0.0004  0.0001 </r>
        <r>  0.0101  0.0000  0.0008  0.0179  0.0017  0.0002  0.0003  0.0025  0.0164 </r>
        <r>  0.0044  0.0029  0.0009  0.0012  0.0042  0.0054  0.0036  0.0009  0.0058 </r>
        <r>  0.0019  0.0004  0.0076  0.0173  0.0015  0.0039  0.0054  0.0027  0.0055 </r>
        <r>  0.0032  0.0076  0.0104  0.0072  0.0020  0.0015  0.0003  0.0028  0.0088 </r>
        <r>  0.0000  0.0232  0.0155  0.0274  0.0008  0.0015  0.0018  0.0061  0.0024 </r>
       </set>
       <set comment="band 59">
        <r>  0.0016  0.0120  0.0062  0.0013  0.0015  0.0021  0.0011  0.0068  0.0026 </r>
        <r>  0.0008  0.0112  0.0206  0.0276  0.0002  0.0009  0.0033  0.0050  0.0094 </r>
        <r>  0.0076  0.0219  0.0057  0.0008  0.0004  0.0080  0.0048  0.0011  0.0124 </r>
        <r>  0.0030  0.0134  0.0403  0.0337  0.0001  0.0074  0.0021  0.0007  0.0081 </r>
        <r>  0.0089  0.0134  0.0119  0.0132  0.0057  0.0051  0.0006  0.0057  0.0003 </r>
        <r>  0.0043  0.0057  0.0063  0.0009  0.0010  0.0006  0.0010  0.0060  0.0116 </r>
        <r>  0.0016  0.0024  0.0004  0.0012  0.0085  0.0001  0.0061  0.0010  0.0005 </r>
        <r>  0.0082  0.0016  0.0069  0.0042  0.0005  0.0105  0.0029  0.0021  0.0061 </r>
       </set>
       <set comment="band 60">
        <r>  0.0019  0.0011  0.0004  0.0074  0.0160  0.0070  0.0224  0.0093  0.0127 </r>
        <r>  0.0000  0.0006  0.0192  0.0033  0.0082  0.0029  0.0141  0.0055  0.0002 </r>
        <r>  0.0003  0.0016  0.0023  0.0100  0.0094  0.0003  0.0097  0.0167  0.0042 </r>
        <r>  0.0003  0.0059  0.0038  0.0128  0.0044  0.0037  0.0095  0.0040  0.0028 </r>
        <r>  0.0010  0.0050  0.0027  0.0053  0.0046  0.0050  0.0001  0.0120  0.0008 </r>
        <r>  0.0026  0.0074  0.0034  0.0010  0.0037  0.0033  0.0014  0.0126  0.0045 </r>
        <r>  0.0011  0.0010  0.0184  0.0004  0.0068  0.0089  0.0010  0.0118  0.0016 </r>
        <r>  0.0001  0.0108  0.0009  0.0033  0.0041  0.0008  0.0030  0.0114  0.0056 </r>
       </set>
      </set>
     </set>
    </set>
   </array>
  </projected>
 </calculation>
 <structure name="finalpos" >
  <crystal>
   <varray name="basis" >
    <v>       5.75018210       0.00000000       0.00000000 </v>
    <v>      -0.00000000       5.75018210       0.00000000 </v>
    <v>       0.00000000       0.00000000       5.75018210 </v>
   </varray>
   <i name="volume">    190.12743762 </i>
   <varray name="rec_basis" >
    <v>       0.17390754       0.00000000       0.00000000 </v>
    <v>       0.00000000       0.17390754       0.00000000 </v>
    <v>      -0.00000000      -0.00000000       0.17390754 </v>
   </varray>
  </crystal>
  <varray name="positions" >
   <v>       0.00000000       0.00000000       0.00000000 </v>
   <v>       0.50000000       0.50000000       0.00000000 </v>
   <v>       0.50000000       0.00000000       0.50000000 </v>
   <v>       0.00000000       0.50000000       0.50000000 </v>
   <v>       0.25000000       0.25000000       0.25000000 </v>
   <v>       0.25000000       0.75000000       0.75000000 </v>
   <v>       0.75000000       0.75000000       0.25000000 </v>
   <v>       0.75000000       0.25000000       0.75000000 </v>
  </varray>
 </structure>
</modeling>
