 vasp.6.4.2 20Jul23 (build Mar 15 2024 16:31:38) complex                        
  
 executed on             LinuxIFC date 2025.03.19  15:01:43
 running  120 mpi-ranks, on    3 nodes
 distrk:  each k-point on  120 cores,    1 groups
 distr:  one band on NCORE=  10 cores,   12 groups


--------------------------------------------------------------------------------------------------------


 INCAR:
   ALGO = Fast
   EDIFF = 1e-05
   ENAUG = 1360
   ENCUT = 680
   GGA = Ps
   ISMEAR = -5
   ISPIN = 2
   LAECHG = True
   LASPH = True
   LCHARG = True
   LELF = False
   LMAXMIX = 4
   LMIXTAU = True
   LORBIT = 11
   LREAL = False
   LVTOT = True
   LWAVE = True
   MAGMOM = 2*0.6
   NCORE = 10
   NELM = 200
   NSW = 0
   PREC = Accurate
   SIGMA = 0.2

 POTCAR:    PAW_PBE Cd 06Sep2000                  
 POTCAR:    PAW_PBE Te 08Apr2002                  
 WARNING: For LVTOT=.TRUE., VASP.5.x writes the TOTAL local potential to the
     file LOCPOT. If you want only the Hartree contributions, use LVHAR=.TRUE.
     instead. 

 POTCAR:    PAW_PBE Cd 06Sep2000                  
   VRHFIN =Cd : s2 d10                                                                              
   LEXCH  = PE                                                                                      
   EATOM  =  1293.1815 eV,   95.0462 Ry                                                             
                                                                                                    
   TITEL  = PAW_PBE Cd 06Sep2000                                                                    
   LULTRA =        F    use ultrasoft PP ?                                                          
   IUNSCR =        1    unscreen: 0-lin 1-nonlin 2-no                                               
   RPACOR =    2.000    partial core radius                                                         
   POMASS =  112.411; ZVAL   =   12.000    mass and valenz                                          
   RCORE  =    2.300    outmost cutoff radius                                                       
   RWIGS  =    2.980; RWIGS  =    1.577    wigner-seitz radius (au A)                               
   ENMAX  =  274.336; ENMIN  =  205.752 eV                                                          
   RCLOC  =    2.054    cutoff for local pot                                                        
   LCOR   =        T    correct aug charges                                                         
   LPAW   =        T    paw PP                                                                      
   EAUG   =  456.106                                                                                
   DEXC   =    0.000                                                                                
   RMAX   =    2.358    core radius for proj-oper                                                   
   RAUG   =    1.300    factor for augmentation sphere                                              
   RDEP   =    2.450    radius for radial grids                                                     
   RDEPT  =    1.955    core radius for aug-charge                                                  
                                                                                                    
   Atomic configuration                                                                             
   12 entries                                                                                       
     n  l   j            E        occ.                                                              
     1  0  0.50    -26519.7817   2.0000                                                             
     2  0  0.50     -3936.9612   2.0000                                                             
     2  1  1.50     -3532.2230   6.0000                                                             
     3  0  0.50      -733.7908   2.0000                                                             
     3  1  1.50      -601.0792   6.0000                                                             
     3  2  2.50      -393.5307  10.0000                                                             
     4  0  0.50      -105.8977   2.0000                                                             
     4  1  1.50       -66.9488   6.0000                                                             
     4  2  2.50       -11.7331  10.0000                                                             
     5  0  0.50        -5.6592   2.0000                                                             
     5  1  0.50        -1.3606   0.0000                                                             
     4  3  2.50        -1.3606   0.0000                                                             
   Description                                                                                      
     l       E           TYP  RCUT    TYP  RCUT                                                     
     2    -11.7331479     23  2.300                                                                 
     2    -13.0937305     23  2.300                                                                 
     0     -5.6591502     23  2.300                                                                 
     0     -1.5561433     23  2.300                                                                 
     1     -2.7211652     23  2.300                                                                 
     1      8.3548275     23  2.300                                                                 
  local pseudopotential read in
  partial core-charges read in
  partial kinetic energy density read in
  atomic valenz-charges read in
  non local Contribution for L=           2  read in
    real space projection operators read in
  non local Contribution for L=           2  read in
    real space projection operators read in
  non local Contribution for L=           0  read in
    real space projection operators read in
  non local Contribution for L=           0  read in
    real space projection operators read in
  non local Contribution for L=           1  read in
    real space projection operators read in
  non local Contribution for L=           1  read in
    real space projection operators read in
    PAW grid and wavefunctions read in
 
   number of l-projection  operators is LMAX  =           6
   number of lm-projection operators is LMMAX =          18
 
 POTCAR:    PAW_PBE Te 08Apr2002                  
   VRHFIN =Te: s2p4                                                                                 
   LEXCH  = PE                                                                                      
   EATOM  =   223.2721 eV,   16.4100 Ry                                                             
                                                                                                    
   TITEL  = PAW_PBE Te 08Apr2002                                                                    
   LULTRA =        F    use ultrasoft PP ?                                                          
   IUNSCR =        1    unscreen: 0-lin 1-nonlin 2-no                                               
   RPACOR =    2.200    partial core radius                                                         
   POMASS =  127.600; ZVAL   =    6.000    mass and valenz                                          
   RCORE  =    2.300    outmost cutoff radius                                                       
   RWIGS  =    2.900; RWIGS  =    1.535    wigner-seitz radius (au A)                               
   ENMAX  =  174.982; ENMIN  =  131.236 eV                                                          
   ICORE  =        3    local potential                                                             
   LCOR   =        T    correct aug charges                                                         
   LPAW   =        T    paw PP                                                                      
   EAUG   =  368.792                                                                                
   DEXC   =    0.000                                                                                
   RMAX   =    2.345    core radius for proj-oper                                                   
   RAUG   =    1.300    factor for augmentation sphere                                              
   RDEP   =    2.397    radius for radial grids                                                     
   RDEPT  =    2.174    core radius for aug-charge                                                  
                                                                                                    
   Atomic configuration                                                                             
   13 entries                                                                                       
     n  l   j            E        occ.                                                              
     1  0  0.50    -31621.2075   2.0000                                                             
     2  0  0.50     -4848.7941   2.0000                                                             
     2  1  1.50     -4352.1960   6.0000                                                             
     3  0  0.50      -964.9612   2.0000                                                             
     3  1  1.50      -803.6179   6.0000                                                             
     3  2  2.50      -559.8710  10.0000                                                             
     4  0  0.50      -164.3522   2.0000                                                             
     4  1  1.50      -114.3756   6.0000                                                             
     4  2  2.50       -41.6483  10.0000                                                             
     5  0  0.50       -15.1072   2.0000                                                             
     5  1  0.50        -5.9526   4.0000                                                             
     5  2  1.50        -5.4423   0.0000                                                             
     4  3  2.50        -5.4423   0.0000                                                             
   Description                                                                                      
     l       E           TYP  RCUT    TYP  RCUT                                                     
     0    -15.1072389     23  2.300                                                                 
     0    -16.4678215     23  2.300                                                                 
     1     -5.9526306     23  2.300                                                                 
     1     -2.4873968     23  2.300                                                                 
     2     -5.4423304     23  2.300                                                                 
     3     -1.3605826     23  2.300                                                                 
  local pseudopotential read in
  partial core-charges read in
  partial kinetic energy density read in
  atomic valenz-charges read in
  non local Contribution for L=           0  read in
    real space projection operators read in
  non local Contribution for L=           0  read in
    real space projection operators read in
  non local Contribution for L=           1  read in
    real space projection operators read in
  non local Contribution for L=           1  read in
    real space projection operators read in
  non local Contribution for L=           2  read in
    real space projection operators read in
    PAW grid and wavefunctions read in
 
   number of l-projection  operators is LMAX  =           5
   number of lm-projection operators is LMMAX =          13
 
 -----------------------------------------------------------------------------
|                                                                             |
|               ----> ADVICE to this user running VASP <----                  |
|                                                                             |
|     You enforced a specific xc type in the INCAR file but a different       |
|     type was found in the POTCAR file.                                      |
|     I HOPE YOU KNOW WHAT YOU ARE DOING!                                     |
|                                                                             |
 -----------------------------------------------------------------------------

  PAW_PBE Cd 06Sep2000                  :
 energy of atom  1       EATOM=-1293.1815
 kinetic energy error for atom=    0.0016 (will be added to EATOM!!)
  PAW_PBE Te 08Apr2002                  :
 energy of atom  2       EATOM= -223.2721
 kinetic energy error for atom=    0.0003 (will be added to EATOM!!)
 
 
 POSCAR: Cd1 Te1
  positions in direct lattice
  No initial velocities read in
 exchange correlation table for  LEXCH =       14
   RHO(1)=    0.500       N(1)  =     2000
   RHO(2)=  100.500       N(2)  =     4000
 


--------------------------------------------------------------------------------------------------------


 ion  position               nearest neighbor table
   1  0.000  0.000  0.000-   2 2.84   2 2.84   2 2.84   2 2.84
   2  0.250  0.250  0.250-   1 2.84   1 2.84   1 2.84   1 2.84
 
  LATTYP: Found a face centered cubic cell.
 ALAT       =     6.5642266394
  
  Lattice vectors:
  
 A1 = (   4.0197509263,   0.0000000000,   2.3208040418)
 A2 = (   1.3399166303,   3.7898585364,   2.3208040385)
 A3 = (   0.0000000000,   0.0000000000,   4.6416101500)


Analysis of symmetry for initial positions (statically):
=====================================================================
 Subroutine PRICEL returns:
 Original cell was already a primitive cell.
 

 Routine SETGRP: Setting up the symmetry group for a 
 face centered cubic supercell.


 Subroutine GETGRP returns: Found 24 space group operations
 (whereof 24 operations were pure point group operations)
 out of a pool of 48 trial point group operations.


The static configuration has the point symmetry T_d .


Analysis of symmetry for dynamics (positions and initial velocities):
=====================================================================
 Subroutine PRICEL returns:
 Original cell was already a primitive cell.
 

 Routine SETGRP: Setting up the symmetry group for a 
 face centered cubic supercell.


 Subroutine GETGRP returns: Found 24 space group operations
 (whereof 24 operations were pure point group operations)
 out of a pool of 48 trial point group operations.


The dynamic configuration has the point symmetry T_d .


Analysis of structural, dynamic, and magnetic symmetry:
=====================================================================
 Subroutine PRICEL returns:
 Original cell was already a primitive cell.
 

 Routine SETGRP: Setting up the symmetry group for a 
 face centered cubic supercell.


 Subroutine GETGRP returns: Found 24 space group operations
 (whereof 24 operations were pure point group operations)
 out of a pool of 48 trial point group operations.


The overall configuration has the point symmetry T_d .


 Subroutine INISYM returns: Found 24 space group operations
 (whereof 24 operations are pure point group operations),
 and found     1 'primitive' translations


----------------------------------------------------------------------------------------

                                     Primitive cell                                     

  volume of cell :      70.7116

  direct lattice vectors                    reciprocal lattice vectors
     4.019750926  0.000000000  2.320804042     0.248771632 -0.087954008  0.000000000
     1.339916630  3.789858536  2.320804038     0.000000000  0.263862092  0.000000000
     0.000000000  0.000000000  4.641610150    -0.124385761 -0.087954002  0.215442480

  length of vectors
     4.641608440  4.641609170  4.641610150     0.263862147  0.263862092  0.263862059

  position of ions in fractional coordinates (direct lattice)
     0.000000000  0.000000000  0.000000000
     0.250000000  0.250000000  0.250000000

  ion indices of the primitive-cell ions
   primitive index   ion index
                 1           1
                 2           2

----------------------------------------------------------------------------------------

 
 
 KPOINTS: pymatgen with grid density = 449 / numbe

Automatic generation of k-mesh.
 Grid dimensions read from file:
 generate k-points for:    6    6    6

 Generating k-lattice:

  Cartesian coordinates                     Fractional coordinates (reciprocal lattice)
     0.041461939 -0.014659001  0.000000000     0.166666667 -0.000000000  0.000000000
     0.000000000  0.043977015  0.000000000     0.000000000  0.166666667  0.000000000
    -0.020730960 -0.014659000  0.035907080     0.000000000 -0.000000000  0.166666667

  Length of vectors
     0.043977024  0.043977015  0.043977010

  Shift w.r.t. Gamma in fractional coordinates (k-lattice)
     0.000000000  0.000000000  0.000000000

 TETIRR: Found     35 inequivalent tetrahedra from     1296
 
 Subroutine IBZKPT returns following result:
 ===========================================
 
 Found     16 irreducible k-points:
 
 Following reciprocal coordinates:
            Coordinates               Weight
  0.000000  0.000000  0.000000      1.000000
  0.166667  0.000000  0.000000      8.000000
  0.333333  0.000000  0.000000      8.000000
  0.500000  0.000000  0.000000      4.000000
  0.166667  0.166667  0.000000      6.000000
  0.333333  0.166667  0.000000     24.000000
  0.500000  0.166667  0.000000     24.000000
 -0.333333  0.166667  0.000000     24.000000
 -0.166667  0.166667  0.000000     12.000000
  0.333333  0.333333  0.000000      6.000000
  0.500000  0.333333  0.000000     24.000000
 -0.333333  0.333333  0.000000     12.000000
  0.500000  0.500000  0.000000      3.000000
  0.500000  0.333333  0.166667     24.000000
 -0.333333  0.333333  0.166667     24.000000
 -0.333333  0.500000  0.166667     12.000000
 
 Following cartesian coordinates:
            Coordinates               Weight
  0.000000  0.000000  0.000000      1.000000
  0.041462 -0.014659  0.000000      8.000000
  0.082924 -0.029318  0.000000      8.000000
  0.124386 -0.043977  0.000000      4.000000
  0.041462  0.029318  0.000000      6.000000
  0.082924  0.014659  0.000000     24.000000
  0.124386  0.000000  0.000000     24.000000
 -0.082924  0.073295  0.000000     24.000000
 -0.041462  0.058636  0.000000     12.000000
  0.082924  0.058636  0.000000      6.000000
  0.124386  0.043977  0.000000     24.000000
 -0.082924  0.117272  0.000000     12.000000
  0.124386  0.087954  0.000000      3.000000
  0.103655  0.029318  0.035907     24.000000
 -0.103655  0.102613  0.035907     24.000000
 -0.103655  0.146590  0.035907     12.000000
 


--------------------------------------------------------------------------------------------------------




 Dimension of arrays:
   k-points           NKPTS =     16   k-points in BZ     NKDIM =     16   number of bands    NBANDS=     24
   number of dos      NEDOS =    301   number of ions     NIONS =      2
   non local maximal  LDIM  =      6   non local SUM 2l+1 LMDIM =     18
   total plane-waves  NPLWV =  64000
   max r-space proj   IRMAX =      1   max aug-charges    IRDMAX=  52836
   dimension x,y,z NGX =    40 NGY =   40 NGZ =   40
   dimension x,y,z NGXF=    80 NGYF=   80 NGZF=   80
   support grid    NGXF=    80 NGYF=   80 NGZF=   80
   ions per type =               1   1
   NGX,Y,Z   is equivalent  to a cutoff of  14.33, 14.33, 14.33 a.u.
   NGXF,Y,Z  is equivalent  to a cutoff of  28.65, 28.65, 28.65 a.u.

 SYSTEM =  unknown system                          
 POSCAR =  Cd1 Te1                                 

 Startparameter for this run:
   NWRITE =      2    write-flag & timer
   PREC   = accura    normal or accurate (medium, high low for compatibility)
   ISTART =      0    job   : 0-new  1-cont  2-samecut
   ICHARG =      2    charge: 1-file 2-atom 10-const
   ISPIN  =      2    spin polarized calculation?
   LNONCOLLINEAR =      F non collinear calculations
   LSORBIT =      F    spin-orbit coupling
   INIWAV =      1    electr: 0-lowe 1-rand  2-diag
   LASPH  =      T    aspherical Exc in radial PAW
 Electronic Relaxation 1
   ENCUT  =  680.0 eV  49.98 Ry    7.07 a.u.   9.87  9.87  9.87*2*pi/ulx,y,z
   ENINI  =  680.0     initial cutoff
   ENAUG  = 1360.0 eV  augmentation charge cutoff
   NELM   =    200;   NELMIN=  2; NELMDL= -5     # of ELM steps 
   EDIFF  = 0.1E-04   stopping-criterion for ELM
   LREAL  =      F    real-space projection
   NLSPLINE    = F    spline interpolate recip. space projectors
   LCOMPAT=      F    compatible to vasp.4.4
   GGA_COMPAT  = T    GGA compatible to vasp.4.4-vasp.4.6
   LMAXPAW     = -100 max onsite density
   LMAXMIX     =    4 max onsite mixed and CHGCAR
   VOSKOWN=      0    Vosko Wilk Nusair interpolation
   ROPT   =    0.00000   0.00000
 Ionic relaxation
   EDIFFG = 0.1E-03   stopping-criterion for IOM
   NSW    =      0    number of steps for IOM
   NBLOCK =      1;   KBLOCK =      1    inner block; outer block 
   IBRION =     -1    ionic relax: 0-MD 1-quasi-New 2-CG
   NFREE  =      0    steps in history (QN), initial steepest desc. (CG)
   ISIF   =      2    stress and relaxation
   IWAVPR =     10    prediction:  0-non 1-charg 2-wave 3-comb
   ISYM   =      2    0-nonsym 1-usesym 2-fastsym
   LCORR  =      T    Harris-Foulkes like correction to forces

   POTIM  = 0.5000    time-step for ionic-motion
   TEIN   =    0.0    initial temperature
   TEBEG  =    0.0;   TEEND  =   0.0 temperature during run
   SMASS  =  -3.00    Nose mass-parameter (am)
   estimated Nose-frequenzy (Omega)   =  0.10E-29 period in steps = 0.13E+47 mass=  -0.492E-27a.u.
   SCALEE = 1.0000    scale energy and forces
   NPACO  =    256;   APACO  = 10.0  distance and # of slots for P.C.
   PSTRESS=    0.0 pullay stress

  Mass of Ions in am
   POMASS = 112.41127.60
  Ionic Valenz
   ZVAL   =  12.00  6.00
  Atomic Wigner-Seitz radii
   RWIGS  =  -1.00 -1.00
  virtual crystal weights 
   VCA    =   1.00  1.00
   NELECT =      18.0000    total number of electrons
   NUPDOWN=      -1.0000    fix difference up-down

 DOS related values:
   EMIN   =  10.00;   EMAX   =-10.00  energy-range for DOS
   EFERMI =   0.00;   METHOD = LEGACY      
   ISMEAR =    -5;   SIGMA  =   0.20  broadening in eV -4-tet -1-fermi 0-gaus

 Electronic relaxation 2 (details)
   IALGO  =     68    algorithm
   LDIAG  =      T    sub-space diagonalisation (order eigenvalues)
   LSUBROT=      F    optimize rotation matrix (better conditioning)
   TURBO    =      0    0=normal 1=particle mesh
   IRESTART =      0    0=no restart 2=restart with 2 vectors
   NREBOOT  =      0    no. of reboots
   NMIN     =      0    reboot dimension
   EREF     =   0.00    reference energy to select bands
   IMIX   =      4    mixing-type and parameters
     AMIX     =   0.40;   BMIX     =  1.00
     AMIX_MAG =   1.60;   BMIX_MAG =  1.00
     AMIN     =   0.10
     WC   =   100.;   INIMIX=   1;  MIXPRE=   1;  MAXMIX= -45

 Intra band minimization:
   WEIMIN = 0.0000     energy-eigenvalue tresh-hold
   EBREAK =  0.10E-06  absolut break condition
   DEPER  =   0.30     relativ break condition  

   TIME   =   0.40     timestep for ELM

  volume/ion in A,a.u.               =      35.36       238.59
  Fermi-wavevector in a.u.,A,eV,Ry     =   1.037533  1.960654 14.646338  1.076475
  Thomas-Fermi vector in A             =   2.171976
 
 Write flags
   LWAVE        =      T    write WAVECAR
   LDOWNSAMPLE  =      F    k-point downsampling of WAVECAR
   LCHARG       =      T    write CHGCAR
   LVTOT        =      T    write LOCPOT, total local potential
   LVHAR        =      F    write LOCPOT, Hartree potential only
   LELF         =      F    write electronic localiz. function (ELF)
   LORBIT       =     11    0 simple, 1 ext, 2 COOP (PROOUT), +10 PAW based schemes


 Dipole corrections
   LMONO  =      F    monopole corrections only (constant potential shift)
   LDIPOL =      F    correct potential (dipole corrections)
   IDIPOL =      0    1-x, 2-y, 3-z, 4-all directions 
   EPSILON=  1.0000000 bulk dielectric constant

 Exchange correlation treatment:
   GGA     =    PS    GGA type
   LEXCH   =    14    internal setting for exchange type
   LIBXC   =     F    Libxc                    
   VOSKOWN =     0    Vosko Wilk Nusair interpolation
   LHFCALC =     F    Hartree Fock is set to
   LHFONE  =     F    Hartree Fock one center treatment
   AEXX    =    0.0000 exact exchange contribution

 Linear response parameters
   LEPSILON=     F    determine dielectric tensor
   LRPA    =     F    only Hartree local field effects (RPA)
   LNABLA  =     F    use nabla operator in PAW spheres
   LVEL    =     F    velocity operator in full k-point grid
   CSHIFT  =0.1000    complex shift for real part using Kramers Kronig
   OMEGAMAX=  -1.0    maximum frequency
   DEG_THRESHOLD= 0.2000000E-02 threshold for treating states as degnerate
   RTIME   =   -0.100 relaxation time in fs
  (WPLASMAI=    0.000 imaginary part of plasma frequency in eV, 0.658/RTIME)
   DFIELD  = 0.0000000 0.0000000 0.0000000 field for delta impulse in time
 
  Optional k-point grid parameters
   LKPOINTS_OPT  =     F    use optional k-point grid
   KPOINTS_OPT_MODE=     1    mode for optional k-point grid
 
 Orbital magnetization related:
   ORBITALMAG=     F  switch on orbital magnetization
   LCHIMAG   =     F  perturbation theory with respect to B field
   DQ        =  0.001000  dq finite difference perturbation B field
   LLRAUG    =     F  two centre corrections for induced B field
   LBONE     =     F  B-component reconstruction in AE one-centre
   LVGVCALC  =     T  calculate vGv susceptibility
   LVGVAPPL  =     F  apply vGv susceptibility instead of pGv for G=0

 Random number generation:
   RANDOM_GENERATOR = DEFAULT
   PCG_SEED         = not used


--------------------------------------------------------------------------------------------------------


 Static calculation
 charge density and potential will be updated during run
 spin polarized calculation
 RMM-DIIS sequential band-by-band and
  variant of blocked Davidson during initial phase
 perform sub-space diagonalisation
    before iterative eigenvector-optimisation
 modified Broyden-mixing scheme, WC =      100.0
 initial mixing is a Kerker type mixing with AMIX =  0.4000 and BMIX =      1.0000
 Hartree-type preconditioning will be used
 using additional bands           15
 reciprocal scheme for non local part
 use partial core corrections
 calculate Harris-corrections to forces 
   (improved forces if not selfconsistent)
 use gradient corrections 
 use of overlap-Matrix (Vanderbilt PP)
 Fermi weights with tetrahedron method with Bloechl corrections


--------------------------------------------------------------------------------------------------------


  energy-cutoff  :      680.00
  volume of cell :       70.71
      direct lattice vectors                 reciprocal lattice vectors
     4.019750926  0.000000000  2.320804042     0.248771632 -0.087954008  0.000000000
     1.339916630  3.789858536  2.320804038     0.000000000  0.263862092  0.000000000
     0.000000000  0.000000000  4.641610150    -0.124385761 -0.087954002  0.215442480

  length of vectors
     4.641608440  4.641609170  4.641610150     0.263862147  0.263862092  0.263862059


 
 k-points in units of 2pi/SCALE and weight: pymatgen with grid density = 449 / numbe
   0.00000000  0.00000000  0.00000000       0.005
   0.04146194 -0.01465900  0.00000000       0.037
   0.08292388 -0.02931800  0.00000000       0.037
   0.12438582 -0.04397700  0.00000000       0.019
   0.04146194  0.02931801  0.00000000       0.028
   0.08292388  0.01465901  0.00000000       0.111
   0.12438582  0.00000001  0.00000000       0.111
  -0.08292388  0.07329502  0.00000000       0.111
  -0.04146194  0.05863602  0.00000000       0.056
   0.08292388  0.05863603  0.00000000       0.028
   0.12438582  0.04397703  0.00000000       0.111
  -0.08292388  0.11727203  0.00000000       0.056
   0.12438582  0.08795404  0.00000000       0.014
   0.10365486  0.02931803  0.03590708       0.111
  -0.10365484  0.10261303  0.03590708       0.111
  -0.10365484  0.14659005  0.03590708       0.056
 
 k-points in reciprocal lattice and weights: pymatgen with grid density = 449 / numbe
   0.00000000  0.00000000  0.00000000       0.005
   0.16666667  0.00000000  0.00000000       0.037
   0.33333333  0.00000000  0.00000000       0.037
   0.50000000  0.00000000  0.00000000       0.019
   0.16666667  0.16666667  0.00000000       0.028
   0.33333333  0.16666667  0.00000000       0.111
   0.50000000  0.16666667  0.00000000       0.111
  -0.33333333  0.16666667  0.00000000       0.111
  -0.16666667  0.16666667  0.00000000       0.056
   0.33333333  0.33333333  0.00000000       0.028
   0.50000000  0.33333333  0.00000000       0.111
  -0.33333333  0.33333333  0.00000000       0.056
   0.50000000  0.50000000  0.00000000       0.014
   0.50000000  0.33333333  0.16666667       0.111
  -0.33333333  0.33333333  0.16666667       0.111
  -0.33333333  0.50000000  0.16666667       0.056
 
 position of ions in fractional coordinates (direct lattice) 
   0.00000000  0.00000000  0.00000000
   0.25000000  0.25000000  0.25000000
 
 position of ions in cartesian coordinates  (Angst):
   0.00000000  0.00000000  0.00000000
   1.33991689  0.94746463  2.32080456
 


--------------------------------------------------------------------------------------------------------


 k-point   1 :   0.0000 0.0000 0.0000  plane waves:    2741
 k-point   2 :   0.1667 0.0000 0.0000  plane waves:    2824
 k-point   3 :   0.3333 0.0000 0.0000  plane waves:    2836
 k-point   4 :   0.5000 0.0000 0.0000  plane waves:    2884
 k-point   5 :   0.1667 0.1667 0.0000  plane waves:    2842
 k-point   6 :   0.3333 0.1667 0.0000  plane waves:    2844
 k-point   7 :   0.5000 0.1667 0.0000  plane waves:    2859
 k-point   8 :  -0.3333 0.1667 0.0000  plane waves:    2850
 k-point   9 :  -0.1667 0.1667 0.0000  plane waves:    2838
 k-point  10 :   0.3333 0.3333 0.0000  plane waves:    2854
 k-point  11 :   0.5000 0.3333 0.0000  plane waves:    2856
 k-point  12 :  -0.3333 0.3333 0.0000  plane waves:    2858
 k-point  13 :   0.5000 0.5000 0.0000  plane waves:    2874
 k-point  14 :   0.5000 0.3333 0.1667  plane waves:    2834
 k-point  15 :  -0.3333 0.3333 0.1667  plane waves:    2846
 k-point  16 :  -0.3333 0.5000 0.1667  plane waves:    2860

 maximum and minimum number of plane-waves per node :       295      270

 maximum number of plane-waves:      2884
 maximum index in each direction: 
   IXMAX=   10   IYMAX=    9   IZMAX=    9
   IXMIN=  -10   IYMIN=  -10   IZMIN=  -10


 parallel 3D FFT for wavefunctions:
    minimum data exchange during FFTs selected (reduces bandwidth)
 parallel 3D FFT for charge:
    minimum data exchange during FFTs selected (reduces bandwidth)


 total amount of memory used by VASP MPI-rank0    33220. kBytes
=======================================================================

   base      :      30000. kBytes
   nonl-proj :       1392. kBytes
   fftplans  :        427. kBytes
   grid      :       1039. kBytes
   one-center:         31. kBytes
   wavefun   :        331. kBytes
 
     INWAV:  cpu time      0.0000: real time      0.0001
 Broyden mixing: mesh for mixing (old mesh)
   NGX = 19   NGY = 19   NGZ = 19
  (NGX  = 80   NGY  = 80   NGZ  = 80)
  gives a total of   6859 points

 initial charge density was supplied:
 charge density of overlapping atoms calculated
 number of electron      18.0000000 magnetization       1.2000000
 keeping initial charge density in first step


--------------------------------------------------------------------------------------------------------


 Maximum index for augmentation-charges         1237 (set IRDMAX)


--------------------------------------------------------------------------------------------------------


 First call to EWALD:  gamma=   0.429
 Maximum number of real-space cells 3x 3x 3
 Maximum number of reciprocal cells 3x 3x 3

    FEWALD:  cpu time      0.0029: real time      0.0031


--------------------------------------- Ionic step        1  -------------------------------------------




--------------------------------------- Iteration      1(   1)  ---------------------------------------


    POTLOK:  cpu time      0.0247: real time      0.0269
    SETDIJ:  cpu time      0.3998: real time      0.4017
     EDDAV:  cpu time      0.2721: real time      0.2775
 BZINTS: Fermi energy:    8.646567;   18.000000 electrons
         Band energy: 0.451171E+02;  BLOECHL correction:   -0.166126
       DOS:  cpu time      0.0055: real time      0.0057
    --------------------------------------------
      LOOP:  cpu time      0.7021: real time      0.7118

 eigenvalue-minimisations  :  1536
 total energy-change (2. order) : 0.1106715E+03  (-0.9013771E+03)
 number of electron      18.0000000 magnetization       1.2000000
 augmentation part       18.0000000 magnetization       1.2000000

 Free energy of the ion-electron system (eV)
  ---------------------------------------------------
  alpha Z        PSCENC =        48.32593859
  Ewald energy   TEWEN  =     -1031.85467228
  -Hartree energ DENC   =      -517.30053658
  -exchange      EXHF   =         0.00000000
  -V(xc)+E(xc)   XCENC  =       -20.71905240
  PAW double counting   =      1402.40119149    -1331.50887785
  entropy T*S    EENTRO =         0.00000000
  eigenvalues    EBANDS =        45.11705752
  atomic energy  EATOM  =      1516.21046352
  Solvation  Ediel_sol  =         0.00000000
  ---------------------------------------------------
  free energy    TOTEN  =       110.67151200 eV

  energy without entropy =      110.67151200  energy(sigma->0) =      110.67151200


--------------------------------------------------------------------------------------------------------




--------------------------------------- Iteration      1(   2)  ---------------------------------------


     EDDAV:  cpu time      0.3267: real time      0.3288
 BZINTS: Fermi energy:    2.175548;   18.000000 electrons
         Band energy:-0.673956E+02;  BLOECHL correction:    0.000000
       DOS:  cpu time      0.0012: real time      0.0012
    --------------------------------------------
      LOOP:  cpu time      0.3279: real time      0.3300

 eigenvalue-minimisations  :  1956
 total energy-change (2. order) :-0.1125127E+03  (-0.1062380E+03)
 number of electron      18.0000000 magnetization       1.2000000
 augmentation part       18.0000000 magnetization       1.2000000

 Free energy of the ion-electron system (eV)
  ---------------------------------------------------
  alpha Z        PSCENC =        48.32593859
  Ewald energy   TEWEN  =     -1031.85467228
  -Hartree energ DENC   =      -517.30053658
  -exchange      EXHF   =         0.00000000
  -V(xc)+E(xc)   XCENC  =       -20.71905240
  PAW double counting   =      1402.40119149    -1331.50887785
  entropy T*S    EENTRO =         0.00000000
  eigenvalues    EBANDS =       -67.39564205
  atomic energy  EATOM  =      1516.21046352
  Solvation  Ediel_sol  =         0.00000000
  ---------------------------------------------------
  free energy    TOTEN  =        -1.84118756 eV

  energy without entropy =       -1.84118756  energy(sigma->0) =       -1.84118756


--------------------------------------------------------------------------------------------------------




--------------------------------------- Iteration      1(   3)  ---------------------------------------


     EDDAV:  cpu time      0.2545: real time      0.2692
 BZINTS: Fermi energy:    1.874815;   18.000000 electrons
         Band energy:-0.711526E+02;  BLOECHL correction:    0.000000
       DOS:  cpu time      0.0012: real time      0.0012
    --------------------------------------------
      LOOP:  cpu time      0.2557: real time      0.2704

 eigenvalue-minimisations  :  1884
 total energy-change (2. order) :-0.3756985E+01  (-0.3752225E+01)
 number of electron      18.0000000 magnetization       1.2000000
 augmentation part       18.0000000 magnetization       1.2000000

 Free energy of the ion-electron system (eV)
  ---------------------------------------------------
  alpha Z        PSCENC =        48.32593859
  Ewald energy   TEWEN  =     -1031.85467228
  -Hartree energ DENC   =      -517.30053658
  -exchange      EXHF   =         0.00000000
  -V(xc)+E(xc)   XCENC  =       -20.71905240
  PAW double counting   =      1402.40119149    -1331.50887785
  entropy T*S    EENTRO =         0.00000000
  eigenvalues    EBANDS =       -71.15262727
  atomic energy  EATOM  =      1516.21046352
  Solvation  Ediel_sol  =         0.00000000
  ---------------------------------------------------
  free energy    TOTEN  =        -5.59817278 eV

  energy without entropy =       -5.59817278  energy(sigma->0) =       -5.59817278


--------------------------------------------------------------------------------------------------------




--------------------------------------- Iteration      1(   4)  ---------------------------------------


     EDDAV:  cpu time      0.2893: real time      0.3037
 BZINTS: Fermi energy:    1.766974;   18.000000 electrons
         Band energy:-0.711815E+02;  BLOECHL correction:    0.000000
       DOS:  cpu time      0.0011: real time      0.0011
    --------------------------------------------
      LOOP:  cpu time      0.2905: real time      0.3049

 eigenvalue-minimisations  :  2196
 total energy-change (2. order) :-0.2885369E-01  (-0.2885246E-01)
 number of electron      18.0000000 magnetization       1.2000000
 augmentation part       18.0000000 magnetization       1.2000000

 Free energy of the ion-electron system (eV)
  ---------------------------------------------------
  alpha Z        PSCENC =        48.32593859
  Ewald energy   TEWEN  =     -1031.85467228
  -Hartree energ DENC   =      -517.30053658
  -exchange      EXHF   =         0.00000000
  -V(xc)+E(xc)   XCENC  =       -20.71905240
  PAW double counting   =      1402.40119149    -1331.50887785
  entropy T*S    EENTRO =         0.00000000
  eigenvalues    EBANDS =       -71.18148096
  atomic energy  EATOM  =      1516.21046352
  Solvation  Ediel_sol  =         0.00000000
  ---------------------------------------------------
  free energy    TOTEN  =        -5.62702648 eV

  energy without entropy =       -5.62702648  energy(sigma->0) =       -5.62702648


--------------------------------------------------------------------------------------------------------




--------------------------------------- Iteration      1(   5)  ---------------------------------------


     EDDAV:  cpu time      0.2578: real time      0.2746
 BZINTS: Fermi energy:    1.866380;   18.000000 electrons
         Band energy:-0.711818E+02;  BLOECHL correction:    0.000000
       DOS:  cpu time      0.0012: real time      0.0012
    CHARGE:  cpu time      0.0251: real time      0.0254
    MIXING:  cpu time      0.0052: real time      0.0055
    --------------------------------------------
      LOOP:  cpu time      0.2893: real time      0.3067

 eigenvalue-minimisations  :  1956
 total energy-change (2. order) :-0.3625213E-03  (-0.3625188E-03)
 number of electron      17.9999999 magnetization      -0.2078106
 augmentation part        4.4493646 magnetization      -0.2007091

 Broyden mixing:
  rms(total) = 0.61025E+00    rms(broyden)= 0.61025E+00
  rms(prec ) = 0.89524E+00
  weight for this iteration     100.00

 Free energy of the ion-electron system (eV)
  ---------------------------------------------------
  alpha Z        PSCENC =        48.32593859
  Ewald energy   TEWEN  =     -1031.85467228
  -Hartree energ DENC   =      -517.30053658
  -exchange      EXHF   =         0.00000000
  -V(xc)+E(xc)   XCENC  =       -20.71905240
  PAW double counting   =      1402.40119149    -1331.50887785
  entropy T*S    EENTRO =         0.00000000
  eigenvalues    EBANDS =       -71.18184348
  atomic energy  EATOM  =      1516.21046352
  Solvation  Ediel_sol  =         0.00000000
  ---------------------------------------------------
  free energy    TOTEN  =        -5.62738900 eV

  energy without entropy =       -5.62738900  energy(sigma->0) =       -5.62738900


--------------------------------------------------------------------------------------------------------




--------------------------------------- Iteration      1(   6)  ---------------------------------------


    POTLOK:  cpu time      0.0121: real time      0.0266
    SETDIJ:  cpu time      0.3979: real time      0.3990
    EDDIAG:  cpu time      0.1030: real time      0.1038
  RMM-DIIS:  cpu time      0.0400: real time      0.0404
    ORTHCH:  cpu time      0.0086: real time      0.0087
 BZINTS: Fermi energy:    1.831572;   18.000000 electrons
         Band energy:-0.782013E+02;  BLOECHL correction:    0.000000
       DOS:  cpu time      0.0012: real time      0.0012
    CHARGE:  cpu time      0.0191: real time      0.0192
    MIXING:  cpu time      0.0014: real time      0.0015
    --------------------------------------------
      LOOP:  cpu time      0.5833: real time      0.6003

 eigenvalue-minimisations  :  1539
 total energy-change (2. order) : 0.1377608E+00  (-0.2598015E-01)
 number of electron      17.9999999 magnetization       0.0764210
 augmentation part        4.5496456 magnetization       0.0730846

 Broyden mixing:
  rms(total) = 0.41390E+00    rms(broyden)= 0.41390E+00
  rms(prec ) = 0.47663E+00
  weight for this iteration     100.00

 eigenvalues of (default mixing * dielectric matrix)
  average eigenvalue GAMMA=   0.8183
  0.8183

 Free energy of the ion-electron system (eV)
  ---------------------------------------------------
  alpha Z        PSCENC =        48.32593859
  Ewald energy   TEWEN  =     -1031.85467228
  -Hartree energ DENC   =      -510.57627456
  -exchange      EXHF   =         0.00000000
  -V(xc)+E(xc)   XCENC  =       -20.89020880
  PAW double counting   =      1491.97998381    -1420.48359844
  entropy T*S    EENTRO =         0.00000000
  eigenvalues    EBANDS =       -78.20126005
  atomic energy  EATOM  =      1516.21046352
  Solvation  Ediel_sol  =         0.00000000
  ---------------------------------------------------
  free energy    TOTEN  =        -5.48962821 eV

  energy without entropy =       -5.48962821  energy(sigma->0) =       -5.48962821


--------------------------------------------------------------------------------------------------------




--------------------------------------- Iteration      1(   7)  ---------------------------------------


    POTLOK:  cpu time      0.0115: real time      0.0250
    SETDIJ:  cpu time      0.3989: real time      0.3999
    EDDIAG:  cpu time      0.1004: real time      0.1006
  RMM-DIIS:  cpu time      0.0368: real time      0.0369
    ORTHCH:  cpu time      0.0090: real time      0.0090
 BZINTS: Fermi energy:    1.925912;   18.000000 electrons
         Band energy:-0.791801E+02;  BLOECHL correction:    0.000000
       DOS:  cpu time      0.0011: real time      0.0014
    CHARGE:  cpu time      0.0172: real time      0.0173
    MIXING:  cpu time      0.0005: real time      0.0005
    --------------------------------------------
      LOOP:  cpu time      0.5754: real time      0.5906

 eigenvalue-minimisations  :  1574
 total energy-change (2. order) : 0.1207648E-01  (-0.3211366E-02)
 number of electron      17.9999999 magnetization      -0.0032429
 augmentation part        4.5673682 magnetization       0.0013132

 Broyden mixing:
  rms(total) = 0.23248E+00    rms(broyden)= 0.23248E+00
  rms(prec ) = 0.25459E+00
  weight for this iteration     100.00

 eigenvalues of (default mixing * dielectric matrix)
  average eigenvalue GAMMA=   1.4456
  0.7468  2.1444

 Free energy of the ion-electron system (eV)
  ---------------------------------------------------
  alpha Z        PSCENC =        48.32593859
  Ewald energy   TEWEN  =     -1031.85467228
  -Hartree energ DENC   =      -509.64032595
  -exchange      EXHF   =         0.00000000
  -V(xc)+E(xc)   XCENC  =       -20.86782214
  PAW double counting   =      1570.86433172    -1499.33536387
  entropy T*S    EENTRO =         0.00000000
  eigenvalues    EBANDS =       -79.18010132
  atomic energy  EATOM  =      1516.21046352
  Solvation  Ediel_sol  =         0.00000000
  ---------------------------------------------------
  free energy    TOTEN  =        -5.47755173 eV

  energy without entropy =       -5.47755173  energy(sigma->0) =       -5.47755173


--------------------------------------------------------------------------------------------------------




--------------------------------------- Iteration      1(   8)  ---------------------------------------


    POTLOK:  cpu time      0.0149: real time      0.0270
    SETDIJ:  cpu time      0.3934: real time      0.3945
    EDDIAG:  cpu time      0.0975: real time      0.0977
  RMM-DIIS:  cpu time      0.0345: real time      0.0346
    ORTHCH:  cpu time      0.0085: real time      0.0086
 BZINTS: Fermi energy:    1.967751;   18.000000 electrons
         Band energy:-0.793108E+02;  BLOECHL correction:    0.000000
       DOS:  cpu time      0.0012: real time      0.0012
    CHARGE:  cpu time      0.0176: real time      0.0176
    MIXING:  cpu time      0.0004: real time      0.0004
    --------------------------------------------
      LOOP:  cpu time      0.5681: real time      0.5815

 eigenvalue-minimisations  :  1622
 total energy-change (2. order) : 0.3178013E-03  (-0.1016044E-02)
 number of electron      17.9999999 magnetization      -0.0182446
 augmentation part        4.5691700 magnetization      -0.0183229

 Broyden mixing:
  rms(total) = 0.84929E-01    rms(broyden)= 0.84929E-01
  rms(prec ) = 0.92061E-01
  weight for this iteration     100.00

 eigenvalues of (default mixing * dielectric matrix)
  average eigenvalue GAMMA=   1.3472
  2.5844  0.8055  0.6516

 Free energy of the ion-electron system (eV)
  ---------------------------------------------------
  alpha Z        PSCENC =        48.32593859
  Ewald energy   TEWEN  =     -1031.85467228
  -Hartree energ DENC   =      -509.48513909
  -exchange      EXHF   =         0.00000000
  -V(xc)+E(xc)   XCENC  =       -20.83087746
  PAW double counting   =      1645.74035034    -1574.27245397
  entropy T*S    EENTRO =         0.00000000
  eigenvalues    EBANDS =       -79.31084357
  atomic energy  EATOM  =      1516.21046352
  Solvation  Ediel_sol  =         0.00000000
  ---------------------------------------------------
  free energy    TOTEN  =        -5.47723393 eV

  energy without entropy =       -5.47723393  energy(sigma->0) =       -5.47723393


--------------------------------------------------------------------------------------------------------




--------------------------------------- Iteration      1(   9)  ---------------------------------------


    POTLOK:  cpu time      0.0126: real time      0.0267
    SETDIJ:  cpu time      0.3937: real time      0.3946
    EDDIAG:  cpu time      0.0984: real time      0.0987
  RMM-DIIS:  cpu time      0.0445: real time      0.0447
    ORTHCH:  cpu time      0.0086: real time      0.0086
 BZINTS: Fermi energy:    1.961769;   18.000000 electrons
         Band energy:-0.792203E+02;  BLOECHL correction:    0.000000
       DOS:  cpu time      0.0012: real time      0.0012
    CHARGE:  cpu time      0.0179: real time      0.0179
    MIXING:  cpu time      0.0004: real time      0.0004
    --------------------------------------------
      LOOP:  cpu time      0.5773: real time      0.5928

 eigenvalue-minimisations  :  1705
 total energy-change (2. order) : 0.1216771E-02  (-0.1573937E-03)
 number of electron      17.9999999 magnetization      -0.0008177
 augmentation part        4.5664620 magnetization      -0.0014462

 Broyden mixing:
  rms(total) = 0.22953E-01    rms(broyden)= 0.22953E-01
  rms(prec ) = 0.27440E-01
  weight for this iteration     100.00

 eigenvalues of (default mixing * dielectric matrix)
  average eigenvalue GAMMA=   1.2179
  2.4118  1.0300  0.7949  0.6349

 Free energy of the ion-electron system (eV)
  ---------------------------------------------------
  alpha Z        PSCENC =        48.32593859
  Ewald energy   TEWEN  =     -1031.85467228
  -Hartree energ DENC   =      -509.54643620
  -exchange      EXHF   =         0.00000000
  -V(xc)+E(xc)   XCENC  =       -20.81795880
  PAW double counting   =      1671.59925858    -1600.17235356
  entropy T*S    EENTRO =         0.00000000
  eigenvalues    EBANDS =       -79.22025701
  atomic energy  EATOM  =      1516.21046352
  Solvation  Ediel_sol  =         0.00000000
  ---------------------------------------------------
  free energy    TOTEN  =        -5.47601716 eV

  energy without entropy =       -5.47601716  energy(sigma->0) =       -5.47601716


--------------------------------------------------------------------------------------------------------




--------------------------------------- Iteration      1(  10)  ---------------------------------------


    POTLOK:  cpu time      0.0117: real time      0.0273
    SETDIJ:  cpu time      0.3939: real time      0.3948
    EDDIAG:  cpu time      0.0983: real time      0.0986
  RMM-DIIS:  cpu time      0.0457: real time      0.0458
    ORTHCH:  cpu time      0.0086: real time      0.0086
 BZINTS: Fermi energy:    1.955411;   18.000000 electrons
         Band energy:-0.792341E+02;  BLOECHL correction:    0.000000
       DOS:  cpu time      0.0012: real time      0.0012
    CHARGE:  cpu time      0.0206: real time      0.0206
    MIXING:  cpu time      0.0004: real time      0.0004
    --------------------------------------------
      LOOP:  cpu time      0.5804: real time      0.5973

 eigenvalue-minimisations  :  1711
 total energy-change (2. order) :-0.1262055E-04  (-0.4205567E-04)
 number of electron      17.9999999 magnetization       0.0019279
 augmentation part        4.5657920 magnetization       0.0023602

 Broyden mixing:
  rms(total) = 0.60308E-02    rms(broyden)= 0.60308E-02
  rms(prec ) = 0.93192E-02
  weight for this iteration     100.00

 eigenvalues of (default mixing * dielectric matrix)
  average eigenvalue GAMMA=   1.2405
  2.3838  1.2704  1.1194  0.7943  0.6347

 Free energy of the ion-electron system (eV)
  ---------------------------------------------------
  alpha Z        PSCENC =        48.32593859
  Ewald energy   TEWEN  =     -1031.85467228
  -Hartree energ DENC   =      -509.52724620
  -exchange      EXHF   =         0.00000000
  -V(xc)+E(xc)   XCENC  =       -20.81680409
  PAW double counting   =      1677.87136166    -1606.45094447
  entropy T*S    EENTRO =         0.00000000
  eigenvalues    EBANDS =       -79.23412651
  atomic energy  EATOM  =      1516.21046352
  Solvation  Ediel_sol  =         0.00000000
  ---------------------------------------------------
  free energy    TOTEN  =        -5.47602978 eV

  energy without entropy =       -5.47602978  energy(sigma->0) =       -5.47602978


--------------------------------------------------------------------------------------------------------




--------------------------------------- Iteration      1(  11)  ---------------------------------------


    POTLOK:  cpu time      0.0148: real time      0.0290
    SETDIJ:  cpu time      0.3942: real time      0.3953
    EDDIAG:  cpu time      0.0904: real time      0.0906
  RMM-DIIS:  cpu time      0.0392: real time      0.0393
    ORTHCH:  cpu time      0.0082: real time      0.0082
 BZINTS: Fermi energy:    1.952636;   18.000000 electrons
         Band energy:-0.792595E+02;  BLOECHL correction:    0.000000
       DOS:  cpu time      0.0012: real time      0.0012
    CHARGE:  cpu time      0.0144: real time      0.0144
    MIXING:  cpu time      0.0004: real time      0.0004
    --------------------------------------------
      LOOP:  cpu time      0.5627: real time      0.5783

 eigenvalue-minimisations  :  1715
 total energy-change (2. order) :-0.4699678E-04  (-0.1266888E-04)
 number of electron      17.9999999 magnetization       0.0004027
 augmentation part        4.5654784 magnetization       0.0003166

 Broyden mixing:
  rms(total) = 0.36912E-02    rms(broyden)= 0.36912E-02
  rms(prec ) = 0.45992E-02
  weight for this iteration     100.00

 eigenvalues of (default mixing * dielectric matrix)
  average eigenvalue GAMMA=   1.1778
  2.3723  1.5515  1.0881  0.7466  0.6542  0.6542

 Free energy of the ion-electron system (eV)
  ---------------------------------------------------
  alpha Z        PSCENC =        48.32593859
  Ewald energy   TEWEN  =     -1031.85467228
  -Hartree energ DENC   =      -509.50278070
  -exchange      EXHF   =         0.00000000
  -V(xc)+E(xc)   XCENC  =       -20.81617011
  PAW double counting   =      1682.24619148    -1610.82550481
  entropy T*S    EENTRO =         0.00000000
  eigenvalues    EBANDS =       -79.25954247
  atomic energy  EATOM  =      1516.21046352
  Solvation  Ediel_sol  =         0.00000000
  ---------------------------------------------------
  free energy    TOTEN  =        -5.47607677 eV

  energy without entropy =       -5.47607677  energy(sigma->0) =       -5.47607677


--------------------------------------------------------------------------------------------------------




--------------------------------------- Iteration      1(  12)  ---------------------------------------


    POTLOK:  cpu time      0.0130: real time      0.0271
    SETDIJ:  cpu time      0.3942: real time      0.3952
    EDDIAG:  cpu time      0.0954: real time      0.0956
  RMM-DIIS:  cpu time      0.0463: real time      0.0464
    ORTHCH:  cpu time      0.0082: real time      0.0082
 BZINTS: Fermi energy:    1.953114;   18.000000 electrons
         Band energy:-0.792568E+02;  BLOECHL correction:    0.000000
       DOS:  cpu time      0.0012: real time      0.0012
    CHARGE:  cpu time      0.0194: real time      0.0195
    MIXING:  cpu time      0.0005: real time      0.0004
    --------------------------------------------
      LOOP:  cpu time      0.5781: real time      0.5936

 eigenvalue-minimisations  :  1555
 total energy-change (2. order) :-0.1024548E-04  (-0.1694192E-05)
 number of electron      17.9999999 magnetization      -0.0011262
 augmentation part        4.5654509 magnetization      -0.0010540

 Broyden mixing:
  rms(total) = 0.26815E-02    rms(broyden)= 0.26815E-02
  rms(prec ) = 0.33010E-02
  weight for this iteration     100.00

 eigenvalues of (default mixing * dielectric matrix)
  average eigenvalue GAMMA=   1.2308
  2.4750  1.6145  1.6145  0.9358  0.7917  0.6383  0.5457

 Free energy of the ion-electron system (eV)
  ---------------------------------------------------
  alpha Z        PSCENC =        48.32593859
  Ewald energy   TEWEN  =     -1031.85467228
  -Hartree energ DENC   =      -509.50724489
  -exchange      EXHF   =         0.00000000
  -V(xc)+E(xc)   XCENC  =       -20.81578135
  PAW double counting   =      1682.78278885    -1611.36078222
  entropy T*S    EENTRO =         0.00000000
  eigenvalues    EBANDS =       -79.25679724
  atomic energy  EATOM  =      1516.21046352
  Solvation  Ediel_sol  =         0.00000000
  ---------------------------------------------------
  free energy    TOTEN  =        -5.47608702 eV

  energy without entropy =       -5.47608702  energy(sigma->0) =       -5.47608702


--------------------------------------------------------------------------------------------------------




--------------------------------------- Iteration      1(  13)  ---------------------------------------


    POTLOK:  cpu time      0.0111: real time      0.0269
    SETDIJ:  cpu time      0.3961: real time      0.3972
    EDDIAG:  cpu time      0.0899: real time      0.0901
  RMM-DIIS:  cpu time      0.0367: real time      0.0368
    ORTHCH:  cpu time      0.0078: real time      0.0078
 BZINTS: Fermi energy:    1.954143;   18.000000 electrons
         Band energy:-0.792479E+02;  BLOECHL correction:    0.000000
       DOS:  cpu time      0.0012: real time      0.0012
    --------------------------------------------
      LOOP:  cpu time      0.5428: real time      0.5600

 eigenvalue-minimisations  :  1369
 total energy-change (2. order) :-0.6452300E-05  (-0.5236441E-06)
 number of electron      17.9999999 magnetization      -0.0011262
 augmentation part        4.5654509 magnetization      -0.0010540

 Free energy of the ion-electron system (eV)
  ---------------------------------------------------
  alpha Z        PSCENC =        48.32593859
  Ewald energy   TEWEN  =     -1031.85467228
  -Hartree energ DENC   =      -509.51851896
  -exchange      EXHF   =         0.00000000
  -V(xc)+E(xc)   XCENC  =       -20.81514986
  PAW double counting   =      1683.24845269    -1611.82466516
  entropy T*S    EENTRO =         0.00000000
  eigenvalues    EBANDS =       -79.24794202
  atomic energy  EATOM  =      1516.21046352
  Solvation  Ediel_sol  =         0.00000000
  ---------------------------------------------------
  free energy    TOTEN  =        -5.47609347 eV

  energy without entropy =       -5.47609347  energy(sigma->0) =       -5.47609347


--------------------------------------------------------------------------------------------------------




 average (electrostatic) potential at core
  the test charge radii are     1.0698  1.1897
  (the norm of the test charge is              1.0000)
       1 -39.2255       2 -91.5184
 
 
 
 E-fermi :   1.9541     XC(G=0):  -8.6117     alpha+bet : -7.1495

 Fermi energy:         1.9541433562

 spin component 1

 k-point     1 :       0.0000    0.0000    0.0000
  band No.  band energies     occupation 
      1      -9.1239      1.00000
      2      -6.2601      1.00000
      3      -6.2601      1.00000
      4      -6.2601      1.00000
      5      -6.0231      1.00000
      6      -6.0231      1.00000
      7       1.8751      1.00000
      8       1.8751      1.00000
      9       1.8751      1.00000
     10       2.4227      0.00000
     11       6.4431      0.00000
     12       6.4431      0.00000
     13       6.4431      0.00000
     14       9.1195      0.00000
     15      11.1493      0.00000
     16      11.1493      0.00000
     17      11.8474      0.00000
     18      11.8474      0.00000
     19      11.8474      0.00000
     20      14.0877      0.00000
     21      21.4107      0.00000
     22      21.4117      0.00000
     23      21.4135      0.00000
     24      22.1830      0.00000

 k-point     2 :       0.1667    0.0000    0.0000
  band No.  band energies     occupation 
      1      -9.0310      1.00000
      2      -6.2432      1.00000
      3      -6.2432      1.00000
      4      -6.1820      1.00000
      5      -6.0241      1.00000
      6      -6.0241      1.00000
      7       0.1473      1.00000
      8       1.6616      1.00000
      9       1.6616      1.00000
     10       3.5643      0.00000
     11       6.4993      0.00000
     12       6.7666      0.00000
     13       6.7666      0.00000
     14      10.1265      0.00000
     15      10.2726      0.00000
     16      10.2726      0.00000
     17      11.4678      0.00000
     18      13.6095      0.00000
     19      13.6095      0.00000
     20      15.7770      0.00000
     21      18.7550      0.00000
     22      18.7550      0.00000
     23      19.1263      0.00000
     24      21.5741      0.00000

 k-point     3 :       0.3333    0.0000    0.0000
  band No.  band energies     occupation 
      1      -8.8448      1.00000
      2      -6.2141      1.00000
      3      -6.2141      1.00000
      4      -6.0205      1.00000
      5      -6.0205      1.00000
      6      -5.9265      1.00000
      7      -1.6006      1.00000
      8       1.3028      1.00000
      9       1.3028      1.00000
     10       3.6711      0.00000
     11       7.0463      0.00000
     12       7.0463      0.00000
     13       7.9290      0.00000
     14       9.7920      0.00000
     15      10.6562      0.00000
     16      10.6562      0.00000
     17      13.7677      0.00000
     18      15.3948      0.00000
     19      15.3948      0.00000
     20      15.9481      0.00000
     21      16.4745      0.00000
     22      16.4746      0.00000
     23      18.9494      0.00000
     24      21.9574      0.00000

 k-point     4 :       0.5000    0.0000    0.0000
  band No.  band energies     occupation 
      1      -8.7533      1.00000
      2      -6.2027      1.00000
      3      -6.2027      1.00000
      4      -6.0150      1.00000
      5      -6.0150      1.00000
      6      -5.7065      1.00000
      7      -2.3863      1.00000
      8       1.1466      1.00000
      9       1.1466      1.00000
     10       3.5689      0.00000
     11       7.0163      0.00000
     12       7.0163      0.00000
     13       8.7714      0.00000
     14      10.2587      0.00000
     15      12.0384      0.00000
     16      12.0384      0.00000
     17      12.9234      0.00000
     18      13.3401      0.00000
     19      13.3401      0.00000
     20      17.5322      0.00000
     21      19.0813      0.00000
     22      19.0814      0.00000
     23      19.6596      0.00000
     24      20.0312      0.00000

 k-point     5 :       0.1667    0.1667    0.0000
  band No.  band energies     occupation 
      1      -9.0003      1.00000
      2      -6.2261      1.00000
      3      -6.2261      1.00000
      4      -6.1817      1.00000
      5      -6.0304      1.00000
      6      -6.0161      1.00000
      7       0.1231      1.00000
      8       1.3075      1.00000
      9       1.3075      1.00000
     10       4.1849      0.00000
     11       5.5472      0.00000
     12       7.3460      0.00000
     13       7.3460      0.00000
     14       8.9794      0.00000
     15      10.8409      0.00000
     16      11.3901      0.00000
     17      12.5872      0.00000
     18      12.5872      0.00000
     19      13.1630      0.00000
     20      16.7507      0.00000
     21      18.5431      0.00000
     22      18.5431      0.00000
     23      19.1352      0.00000
     24      19.7840      0.00000

 k-point     6 :       0.3333    0.1667    0.0000
  band No.  band energies     occupation 
      1      -8.8463      1.00000
      2      -6.2031      1.00000
      3      -6.1932      1.00000
      4      -6.0666      1.00000
      5      -6.0108      1.00000
      6      -5.9510      1.00000
      7      -1.1825      1.00000
      8       0.8069      1.00000
      9       0.9218      1.00000
     10       4.5986      0.00000
     11       5.8418      0.00000
     12       7.5100      0.00000
     13       7.8970      0.00000
     14       9.6042      0.00000
     15      11.4774      0.00000
     16      11.5269      0.00000
     17      13.3229      0.00000
     18      14.4853      0.00000
     19      15.5456      0.00000
     20      15.5983      0.00000
     21      15.7976      0.00000
     22      18.7108      0.00000
     23      19.3113      0.00000
     24      19.5792      0.00000

 k-point     7 :       0.5000    0.1667    0.0000
  band No.  band energies     occupation 
      1      -8.7256      1.00000
      2      -6.1897      1.00000
      3      -6.1791      1.00000
      4      -6.0373      1.00000
      5      -6.0123      1.00000
      6      -5.6831      1.00000
      7      -2.1924      1.00000
      8       0.3013      1.00000
      9       0.8439      1.00000
     10       4.5237      0.00000
     11       6.5090      0.00000
     12       7.7364      0.00000
     13       8.2951      0.00000
     14      10.5098      0.00000
     15      11.6840      0.00000
     16      12.1271      0.00000
     17      12.8984      0.00000
     18      13.6085      0.00000
     19      16.0655      0.00000
     20      16.8618      0.00000
     21      17.4684      0.00000
     22      18.5561      0.00000
     23      19.3750      0.00000
     24      19.7370      0.00000

 k-point     8 :      -0.3333    0.1667    0.0000
  band No.  band energies     occupation 
      1      -8.7553      1.00000
      2      -6.1918      1.00000
      3      -6.1908      1.00000
      4      -6.0261      1.00000
      5      -6.0249      1.00000
      6      -5.7563      1.00000
      7      -1.9479      1.00000
      8       0.1764      1.00000
      9       1.1243      1.00000
     10       4.5659      0.00000
     11       6.7591      0.00000
     12       7.4434      0.00000
     13       8.0403      0.00000
     14      10.2571      0.00000
     15      10.8823      0.00000
     16      12.0318      0.00000
     17      13.0664      0.00000
     18      14.8199      0.00000
     19      15.8926      0.00000
     20      15.9296      0.00000
     21      17.0715      0.00000
     22      18.7168      0.00000
     23      19.5574      0.00000
     24      20.4130      0.00000

 k-point     9 :      -0.1667    0.1667    0.0000
  band No.  band energies     occupation 
      1      -8.9073      1.00000
      2      -6.2240      1.00000
      3      -6.2109      1.00000
      4      -6.0643      1.00000
      5      -6.0317      1.00000
      6      -6.0008      1.00000
      7      -0.7958      1.00000
      8       0.6936      1.00000
      9       1.5476      1.00000
     10       4.3746      0.00000
     11       6.4711      0.00000
     12       6.9917      0.00000
     13       7.2907      0.00000
     14       9.5362      0.00000
     15      10.7026      0.00000
     16      11.4377      0.00000
     17      12.5633      0.00000
     18      13.7524      0.00000
     19      15.4423      0.00000
     20      15.8755      0.00000
     21      17.7774      0.00000
     22      18.6772      0.00000
     23      18.7887      0.00000
     24      19.3648      0.00000

 k-point    10 :       0.3333    0.3333    0.0000
  band No.  band energies     occupation 
      1      -8.7565      1.00000
      2      -6.1525      1.00000
      3      -6.1525      1.00000
      4      -6.1022      1.00000
      5      -6.0021      1.00000
      6      -5.8456      1.00000
      7      -1.5252      1.00000
      8       0.4636      1.00000
      9       0.4636      1.00000
     10       4.5572      0.00000
     11       4.9386      0.00000
     12       9.0125      0.00000
     13       9.2178      0.00000
     14       9.2178      0.00000
     15      12.0572      0.00000
     16      13.5462      0.00000
     17      14.7039      0.00000
     18      14.7039      0.00000
     19      14.9197      0.00000
     20      15.2865      0.00000
     21      15.2865      0.00000
     22      16.6477      0.00000
     23      16.6897      0.00000
     24      21.0908      0.00000

 k-point    11 :       0.5000    0.3333    0.0000
  band No.  band energies     occupation 
      1      -8.6689      1.00000
      2      -6.1502      1.00000
      3      -6.1334      1.00000
      4      -6.0816      1.00000
      5      -6.0030      1.00000
      6      -5.6234      1.00000
      7      -2.1008      1.00000
      8      -0.1674      1.00000
      9       0.3373      1.00000
     10       4.6378      0.00000
     11       5.4953      0.00000
     12       8.6827      0.00000
     13       9.4215      0.00000
     14      10.6921      0.00000
     15      12.4275      0.00000
     16      13.0974      0.00000
     17      13.7834      0.00000
     18      14.1189      0.00000
     19      15.9369      0.00000
     20      16.4441      0.00000
     21      16.8885      0.00000
     22      17.1177      0.00000
     23      17.8874      0.00000
     24      18.6662      0.00000

 k-point    12 :      -0.3333    0.3333    0.0000
  band No.  band energies     occupation 
      1      -8.6692      1.00000
      2      -6.1680      1.00000
      3      -6.1507      1.00000
      4      -6.0475      1.00000
      5      -6.0185      1.00000
      6      -5.5701      1.00000
      7      -2.1273      1.00000
      8      -0.6048      1.00000
      9       0.6296      1.00000
     10       4.8378      0.00000
     11       6.8477      0.00000
     12       8.6057      0.00000
     13       8.6790      0.00000
     14       9.2099      0.00000
     15      10.7727      0.00000
     16      13.8388      0.00000
     17      14.3670      0.00000
     18      15.0996      0.00000
     19      15.7094      0.00000
     20      15.9590      0.00000
     21      17.1925      0.00000
     22      18.8517      0.00000
     23      19.0666      0.00000
     24      19.2336      0.00000

 k-point    13 :       0.5000    0.5000    0.0000
  band No.  band energies     occupation 
      1      -8.6400      1.00000
      2      -6.1152      1.00000
      3      -6.1126      1.00000
      4      -6.1126      1.00000
      5      -5.9951      1.00000
      6      -5.5825      1.00000
      7      -2.2938      1.00000
      8       0.1164      1.00000
      9       0.1164      1.00000
     10       4.4461      0.00000
     11       4.4776      0.00000
     12      10.3941      0.00000
     13      10.7499      0.00000
     14      10.7499      0.00000
     15      12.6234      0.00000
     16      13.2636      0.00000
     17      13.2636      0.00000
     18      13.5650      0.00000
     19      15.4500      0.00000
     20      17.0877      0.00000
     21      17.3907      0.00000
     22      17.3907      0.00000
     23      17.7550      0.00000
     24      17.8059      0.00000

 k-point    14 :       0.5000    0.3333    0.1667
  band No.  band energies     occupation 
      1      -8.7269      1.00000
      2      -6.1737      1.00000
      3      -6.1663      1.00000
      4      -6.0596      1.00000
      5      -6.0115      1.00000
      6      -5.7342      1.00000
      7      -1.8042      1.00000
      8      -0.0891      1.00000
      9       0.6327      1.00000
     10       5.2858      0.00000
     11       5.9442      0.00000
     12       7.1113      0.00000
     13       9.1112      0.00000
     14       9.9151      0.00000
     15      11.9535      0.00000
     16      13.0797      0.00000
     17      13.2663      0.00000
     18      13.9433      0.00000
     19      15.5089      0.00000
     20      16.4709      0.00000
     21      16.9385      0.00000
     22      17.9475      0.00000
     23      19.3151      0.00000
     24      19.9042      0.00000

 k-point    15 :      -0.3333    0.3333    0.1667
  band No.  band energies     occupation 
      1      -8.6692      1.00000
      2      -6.1666      1.00000
      3      -6.1532      1.00000
      4      -6.0450      1.00000
      5      -6.0199      1.00000
      6      -5.5695      1.00000
      7      -2.1596      1.00000
      8      -0.3939      1.00000
      9       0.3660      1.00000
     10       5.4314      0.00000
     11       6.4368      0.00000
     12       7.4939      0.00000
     13       9.0396      0.00000
     14       9.6443      0.00000
     15      12.1553      0.00000
     16      12.8927      0.00000
     17      13.2932      0.00000
     18      15.4923      0.00000
     19      15.9699      0.00000
     20      16.2563      0.00000
     21      17.2152      0.00000
     22      18.0847      0.00000
     23      19.1486      0.00000
     24      19.6953      0.00000

 k-point    16 :      -0.3333    0.5000    0.1667
  band No.  band energies     occupation 
      1      -8.6410      1.00000
      2      -6.1411      1.00000
      3      -6.1398      1.00000
      4      -6.0660      1.00000
      5      -6.0111      1.00000
      6      -5.5275      1.00000
      7      -2.2065      1.00000
      8      -0.2245      1.00000
      9      -0.1266      1.00000
     10       5.4651      0.00000
     11       5.5962      0.00000
     12       8.4050      0.00000
     13       8.7041      0.00000
     14      11.1704      0.00000
     15      12.7617      0.00000
     16      13.0126      0.00000
     17      13.1228      0.00000
     18      15.5392      0.00000
     19      16.2958      0.00000
     20      16.8245      0.00000
     21      16.8513      0.00000
     22      16.9884      0.00000
     23      17.1503      0.00000
     24      19.8272      0.00000
 Fermi energy:         1.9541433562

 spin component 2

 k-point     1 :       0.0000    0.0000    0.0000
  band No.  band energies     occupation 
      1      -9.1242      1.00000
      2      -6.2602      1.00000
      3      -6.2602      1.00000
      4      -6.2602      1.00000
      5      -6.0231      1.00000
      6      -6.0231      1.00000
      7       1.8748      1.00000
      8       1.8748      1.00000
      9       1.8748      1.00000
     10       2.4223      0.00000
     11       6.4430      0.00000
     12       6.4430      0.00000
     13       6.4430      0.00000
     14       9.1187      0.00000
     15      11.1492      0.00000
     16      11.1492      0.00000
     17      11.8471      0.00000
     18      11.8471      0.00000
     19      11.8471      0.00000
     20      14.0854      0.00000
     21      21.4106      0.00000
     22      21.4108      0.00000
     23      21.4146      0.00000
     24      22.1821      0.00000

 k-point     2 :       0.1667    0.0000    0.0000
  band No.  band energies     occupation 
      1      -9.0313      1.00000
      2      -6.2433      1.00000
      3      -6.2433      1.00000
      4      -6.1820      1.00000
      5      -6.0242      1.00000
      6      -6.0242      1.00000
      7       0.1470      1.00000
      8       1.6613      1.00000
      9       1.6613      1.00000
     10       3.5639      0.00000
     11       6.4990      0.00000
     12       6.7664      0.00000
     13       6.7665      0.00000
     14      10.1258      0.00000
     15      10.2725      0.00000
     16      10.2725      0.00000
     17      11.4670      0.00000
     18      13.6094      0.00000
     19      13.6094      0.00000
     20      15.7753      0.00000
     21      18.7549      0.00000
     22      18.7549      0.00000
     23      19.1260      0.00000
     24      21.5753      0.00000

 k-point     3 :       0.3333    0.0000    0.0000
  band No.  band energies     occupation 
      1      -8.8451      1.00000
      2      -6.2141      1.00000
      3      -6.2141      1.00000
      4      -6.0205      1.00000
      5      -6.0205      1.00000
      6      -5.9266      1.00000
      7      -1.6009      1.00000
      8       1.3025      1.00000
      9       1.3025      1.00000
     10       3.6708      0.00000
     11       7.0461      0.00000
     12       7.0461      0.00000
     13       7.9283      0.00000
     14       9.7912      0.00000
     15      10.6561      0.00000
     16      10.6561      0.00000
     17      13.7670      0.00000
     18      15.3945      0.00000
     19      15.3945      0.00000
     20      15.9477      0.00000
     21      16.4745      0.00000
     22      16.4745      0.00000
     23      18.9480      0.00000
     24      21.9595      0.00000

 k-point     4 :       0.5000    0.0000    0.0000
  band No.  band energies     occupation 
      1      -8.7536      1.00000
      2      -6.2028      1.00000
      3      -6.2028      1.00000
      4      -6.0150      1.00000
      5      -6.0150      1.00000
      6      -5.7065      1.00000
      7      -2.3866      1.00000
      8       1.1463      1.00000
      9       1.1463      1.00000
     10       3.5686      0.00000
     11       7.0161      0.00000
     12       7.0161      0.00000
     13       8.7703      0.00000
     14      10.2582      0.00000
     15      12.0382      0.00000
     16      12.0382      0.00000
     17      12.9228      0.00000
     18      13.3401      0.00000
     19      13.3401      0.00000
     20      17.5314      0.00000
     21      19.0811      0.00000
     22      19.0812      0.00000
     23      19.6596      0.00000
     24      20.0310      0.00000

 k-point     5 :       0.1667    0.1667    0.0000
  band No.  band energies     occupation 
      1      -9.0006      1.00000
      2      -6.2261      1.00000
      3      -6.2261      1.00000
      4      -6.1817      1.00000
      5      -6.0304      1.00000
      6      -6.0162      1.00000
      7       0.1229      1.00000
      8       1.3072      1.00000
      9       1.3072      1.00000
     10       4.1845      0.00000
     11       5.5469      0.00000
     12       7.3458      0.00000
     13       7.3458      0.00000
     14       8.9791      0.00000
     15      10.8401      0.00000
     16      11.3900      0.00000
     17      12.5870      0.00000
     18      12.5870      0.00000
     19      13.1620      0.00000
     20      16.7494      0.00000
     21      18.5429      0.00000
     22      18.5429      0.00000
     23      19.1353      0.00000
     24      19.7837      0.00000

 k-point     6 :       0.3333    0.1667    0.0000
  band No.  band energies     occupation 
      1      -8.8465      1.00000
      2      -6.2032      1.00000
      3      -6.1932      1.00000
      4      -6.0667      1.00000
      5      -6.0108      1.00000
      6      -5.9510      1.00000
      7      -1.1828      1.00000
      8       0.8066      1.00000
      9       0.9216      1.00000
     10       4.5982      0.00000
     11       5.8414      0.00000
     12       7.5096      0.00000
     13       7.8968      0.00000
     14       9.6040      0.00000
     15      11.4768      0.00000
     16      11.5267      0.00000
     17      13.3221      0.00000
     18      14.4851      0.00000
     19      15.5453      0.00000
     20      15.5983      0.00000
     21      15.7971      0.00000
     22      18.7103      0.00000
     23      19.3113      0.00000
     24      19.5780      0.00000

 k-point     7 :       0.5000    0.1667    0.0000
  band No.  band energies     occupation 
      1      -8.7259      1.00000
      2      -6.1898      1.00000
      3      -6.1792      1.00000
      4      -6.0374      1.00000
      5      -6.0123      1.00000
      6      -5.6832      1.00000
      7      -2.1926      1.00000
      8       0.3011      1.00000
      9       0.8436      1.00000
     10       4.5233      0.00000
     11       6.5086      0.00000
     12       7.7362      0.00000
     13       8.2946      0.00000
     14      10.5092      0.00000
     15      11.6837      0.00000
     16      12.1269      0.00000
     17      12.8980      0.00000
     18      13.6085      0.00000
     19      16.0653      0.00000
     20      16.8611      0.00000
     21      17.4682      0.00000
     22      18.5558      0.00000
     23      19.3745      0.00000
     24      19.7369      0.00000

 k-point     8 :      -0.3333    0.1667    0.0000
  band No.  band energies     occupation 
      1      -8.7556      1.00000
      2      -6.1919      1.00000
      3      -6.1908      1.00000
      4      -6.0261      1.00000
      5      -6.0249      1.00000
      6      -5.7563      1.00000
      7      -1.9481      1.00000
      8       0.1762      1.00000
      9       1.1240      1.00000
     10       4.5656      0.00000
     11       6.7587      0.00000
     12       7.4432      0.00000
     13       8.0397      0.00000
     14      10.2570      0.00000
     15      10.8817      0.00000
     16      12.0315      0.00000
     17      13.0661      0.00000
     18      14.8194      0.00000
     19      15.8925      0.00000
     20      15.9292      0.00000
     21      17.0711      0.00000
     22      18.7167      0.00000
     23      19.5573      0.00000
     24      20.4122      0.00000

 k-point     9 :      -0.1667    0.1667    0.0000
  band No.  band energies     occupation 
      1      -8.9076      1.00000
      2      -6.2240      1.00000
      3      -6.2109      1.00000
      4      -6.0644      1.00000
      5      -6.0318      1.00000
[...]
     21      15.2863      0.00000
     22      16.6480      0.00000
     23      16.6894      0.00000
     24      21.0932      0.00000

 k-point    11 :       0.5000    0.3333    0.0000
  band No.  band energies     occupation 
      1      -8.6692      1.00000
      2      -6.1502      1.00000
      3      -6.1334      1.00000
      4      -6.0816      1.00000
      5      -6.0030      1.00000
      6      -5.6234      1.00000
      7      -2.1010      1.00000
      8      -0.1677      1.00000
      9       0.3370      1.00000
     10       4.6373      0.00000
     11       5.4948      0.00000
     12       8.6824      0.00000
     13       9.4212      0.00000
     14      10.6918      0.00000
     15      12.4272      0.00000
     16      13.0969      0.00000
     17      13.7834      0.00000
     18      14.1183      0.00000
     19      15.9364      0.00000
     20      16.4439      0.00000
     21      16.8878      0.00000
     22      17.1177      0.00000
     23      17.8869      0.00000
     24      18.6655      0.00000

 k-point    12 :      -0.3333    0.3333    0.0000
  band No.  band energies     occupation 
      1      -8.6695      1.00000
      2      -6.1680      1.00000
      3      -6.1507      1.00000
      4      -6.0476      1.00000
      5      -6.0185      1.00000
      6      -5.5701      1.00000
      7      -2.1275      1.00000
      8      -0.6051      1.00000
      9       0.6293      1.00000
     10       4.8373      0.00000
     11       6.8471      0.00000
     12       8.6055      0.00000
     13       8.6787      0.00000
     14       9.2096      0.00000
     15      10.7726      0.00000
     16      13.8382      0.00000
     17      14.3665      0.00000
     18      15.0991      0.00000
     19      15.7092      0.00000
     20      15.9587      0.00000
     21      17.1925      0.00000
     22      18.8517      0.00000
     23      19.0661      0.00000
     24      19.2327      0.00000

 k-point    13 :       0.5000    0.5000    0.0000
  band No.  band energies     occupation 
      1      -8.6402      1.00000
      2      -6.1152      1.00000
      3      -6.1126      1.00000
      4      -6.1126      1.00000
      5      -5.9951      1.00000
      6      -5.5826      1.00000
      7      -2.2940      1.00000
      8       0.1162      1.00000
      9       0.1162      1.00000
     10       4.4456      0.00000
     11       4.4771      0.00000
     12      10.3938      0.00000
     13      10.7497      0.00000
     14      10.7497      0.00000
     15      12.6230      0.00000
     16      13.2634      0.00000
     17      13.2634      0.00000
     18      13.5644      0.00000
     19      15.4504      0.00000
     20      17.0862      0.00000
     21      17.3903      0.00000
     22      17.3903      0.00000
     23      17.7544      0.00000
     24      17.8053      0.00000

 k-point    14 :       0.5000    0.3333    0.1667
  band No.  band energies     occupation 
      1      -8.7272      1.00000
      2      -6.1738      1.00000
      3      -6.1664      1.00000
      4      -6.0596      1.00000
      5      -6.0115      1.00000
      6      -5.7343      1.00000
      7      -1.8045      1.00000
      8      -0.0894      1.00000
      9       0.6324      1.00000
     10       5.2854      0.00000
     11       5.9438      0.00000
     12       7.1109      0.00000
     13       9.1109      0.00000
     14       9.9149      0.00000
     15      11.9532      0.00000
     16      13.0793      0.00000
     17      13.2657      0.00000
     18      13.9429      0.00000
     19      15.5086      0.00000
     20      16.4708      0.00000
     21      16.9381      0.00000
     22      17.9471      0.00000
     23      19.3146      0.00000
     24      19.8425      0.00000

 k-point    15 :      -0.3333    0.3333    0.1667
  band No.  band energies     occupation 
      1      -8.6695      1.00000
      2      -6.1666      1.00000
      3      -6.1532      1.00000
      4      -6.0451      1.00000
      5      -6.0200      1.00000
      6      -5.5696      1.00000
      7      -2.1599      1.00000
      8      -0.3941      1.00000
      9       0.3657      1.00000
     10       5.4309      0.00000
     11       6.4362      0.00000
     12       7.4935      0.00000
     13       9.0393      0.00000
     14       9.6441      0.00000
     15      12.1553      0.00000
     16      12.8923      0.00000
     17      13.2926      0.00000
     18      15.4921      0.00000
     19      15.9697      0.00000
     20      16.2556      0.00000
     21      17.2148      0.00000
     22      18.0847      0.00000
     23      19.1481      0.00000
     24      19.6950      0.00000

 k-point    16 :      -0.3333    0.5000    0.1667
  band No.  band energies     occupation 
      1      -8.6413      1.00000
      2      -6.1412      1.00000
      3      -6.1398      1.00000
      4      -6.0661      1.00000
      5      -6.0111      1.00000
      6      -5.5276      1.00000
      7      -2.2067      1.00000
      8      -0.2247      1.00000
      9      -0.1269      1.00000
     10       5.4647      0.00000
     11       5.5957      0.00000
     12       8.4047      0.00000
     13       8.7037      0.00000
     14      11.1702      0.00000
     15      12.7612      0.00000
     16      13.0128      0.00000
     17      13.1224      0.00000
     18      15.5381      0.00000
     19      16.2956      0.00000
     20      16.8242      0.00000
     21      16.8510      0.00000
     22      16.9882      0.00000
     23      17.1501      0.00000
     24      19.8375      0.00000


--------------------------------------------------------------------------------------------------------


 soft charge-density along one line, spin component           1
         0         1         2         3         4         5         6         7         8         9
 total charge-density along one line
 
 soft charge-density along one line, spin component           2
         0         1         2         3         4         5         6         7         8         9
 total charge-density along one line
 
 pseudopotential strength for first ion, spin component:           1
-18.084  -0.000   0.001  -0.000  -0.000 -18.121  -0.000   0.001
 -0.000 -18.084  -0.000   0.001   0.000  -0.000 -18.121  -0.000
  0.001  -0.000 -18.084  -0.000   0.000   0.001  -0.000 -18.120
 -0.000   0.001  -0.000 -18.084  -0.000  -0.000   0.001  -0.000
 -0.000   0.000   0.000  -0.000 -18.083  -0.000   0.000   0.000
-18.121  -0.000   0.001  -0.000  -0.000 -18.137  -0.000   0.001
 -0.000 -18.121  -0.000   0.001   0.000  -0.000 -18.137  -0.000
  0.001  -0.000 -18.120  -0.000   0.000   0.001  -0.000 -18.137
 -0.000   0.001  -0.000 -18.120  -0.000  -0.000   0.001  -0.000
 -0.000   0.000   0.000  -0.000 -18.120  -0.000   0.000   0.000
  0.000   0.000  -0.000   0.000   0.000   0.000   0.000  -0.000
  0.000   0.000  -0.000   0.000   0.000   0.000   0.000  -0.000
 -0.000   0.000  -0.001  -0.000  -0.002  -0.000   0.000  -0.001
 -0.000  -0.001   0.000  -0.002  -0.000  -0.000  -0.001   0.000
 -0.001  -0.000  -0.001   0.000   0.001  -0.001  -0.000  -0.001
 -0.000   0.000  -0.001  -0.000  -0.001  -0.000   0.000  -0.001
 -0.000  -0.001   0.000  -0.001  -0.000  -0.000  -0.001   0.000
 -0.001  -0.000  -0.001   0.000   0.001  -0.001  -0.000  -0.001
 pseudopotential strength for first ion, spin component:           2
-18.084  -0.000   0.001  -0.000  -0.000 -18.121  -0.000   0.001
 -0.000 -18.084  -0.000   0.001   0.000  -0.000 -18.121  -0.000
  0.001  -0.000 -18.083  -0.000   0.000   0.001  -0.000 -18.120
 -0.000   0.001  -0.000 -18.083  -0.000  -0.000   0.001  -0.000
 -0.000   0.000   0.000  -0.000 -18.083  -0.000   0.000   0.000
-18.121  -0.000   0.001  -0.000  -0.000 -18.137  -0.000   0.001
 -0.000 -18.121  -0.000   0.001   0.000  -0.000 -18.137  -0.000
  0.001  -0.000 -18.120  -0.000   0.000   0.001  -0.000 -18.137
 -0.000   0.001  -0.000 -18.120  -0.000  -0.000   0.001  -0.000
 -0.000   0.000   0.000  -0.000 -18.120  -0.000   0.000   0.000
  0.000   0.000  -0.000   0.000   0.000   0.000   0.000  -0.000
  0.000   0.000  -0.000   0.000   0.000   0.000   0.000  -0.000
 -0.000   0.000  -0.001  -0.000  -0.002  -0.000   0.000  -0.001
 -0.000  -0.001   0.000  -0.002  -0.000  -0.000  -0.001   0.000
 -0.001  -0.000  -0.001   0.000   0.001  -0.001  -0.000  -0.001
 -0.000   0.000  -0.001  -0.000  -0.001  -0.000   0.000  -0.001
 -0.000  -0.001   0.000  -0.001  -0.000  -0.000  -0.001   0.000
 -0.001  -0.000  -0.001   0.000   0.001  -0.001  -0.000  -0.001
 total augmentation occupancy for first ion, spin component:           1
  2.960  -0.000   0.585  -0.000  -0.338  -0.940   0.000  -0.562   0.000   0.324  -0.000   0.000  -0.000   0.000  -0.281   0.000
 -0.000   2.960  -0.000   0.675   0.000   0.000  -0.940   0.000  -0.649  -0.000  -0.000   0.000  -0.000  -0.281   0.000   0.000
  0.585  -0.000   3.557  -0.000   0.207  -0.562   0.000  -1.514   0.000  -0.199   0.000  -0.000  -0.243   0.000  -0.344   0.032
 -0.000   0.675  -0.000   3.438  -0.000   0.000  -0.649   0.000  -1.399   0.000  -0.000   0.000   0.000  -0.397  -0.000  -0.000
 -0.338   0.000   0.207  -0.000   3.796   0.324  -0.000  -0.199   0.000  -1.743  -0.000   0.000  -0.421   0.000   0.199   0.055
 -0.940   0.000  -0.562   0.000   0.324   0.915  -0.000   0.540  -0.000  -0.312   0.000  -0.000   0.000  -0.000   0.269  -0.000
  0.000  -0.940   0.000  -0.649  -0.000  -0.000   0.915  -0.000   0.624   0.000   0.000  -0.000   0.000   0.269  -0.000  -0.000
 -0.562   0.000  -1.514   0.000  -0.199   0.540  -0.000   1.466  -0.000   0.191  -0.000   0.000   0.233  -0.000   0.330  -0.038
  0.000  -0.649   0.000  -1.399   0.000  -0.000   0.624  -0.000   1.356  -0.000   0.000  -0.000  -0.000   0.381   0.000   0.000
  0.324  -0.000  -0.199   0.000  -1.743  -0.312   0.000   0.191  -0.000   1.687   0.000  -0.000   0.404  -0.000  -0.191  -0.066
 -0.000  -0.000   0.000  -0.000  -0.000   0.000   0.000  -0.000   0.000   0.000   2.687  -0.646  -0.000   0.000  -0.000  -0.000
  0.000   0.000  -0.000   0.000   0.000  -0.000  -0.000   0.000  -0.000  -0.000  -0.646   0.193  -0.000   0.000  -0.000  -0.000
 -0.000  -0.000  -0.243   0.000  -0.421   0.000   0.000   0.233  -0.000   0.404   0.000   0.000   0.192  -0.000  -0.000  -0.032
  0.000  -0.281   0.000  -0.397   0.000  -0.000   0.269  -0.000   0.381  -0.000  -0.000   0.000  -0.000   0.192  -0.000   0.000
 -0.281   0.000  -0.344  -0.000   0.199   0.269  -0.000   0.330   0.000  -0.191   0.000  -0.000  -0.000  -0.000   0.192   0.000
  0.000   0.000   0.032  -0.000   0.055  -0.000  -0.000  -0.038   0.000  -0.066  -0.000  -0.000  -0.032   0.000   0.000   0.007
 -0.000   0.037  -0.000   0.052  -0.000   0.000  -0.044   0.000  -0.062   0.000  -0.000   0.000   0.000  -0.032   0.000  -0.000
  0.037  -0.000   0.045   0.000  -0.026  -0.044   0.000  -0.054  -0.000   0.031  -0.000   0.000   0.000   0.000  -0.032  -0.000
 total augmentation occupancy for first ion, spin component:           2
  0.001  -0.000   0.000  -0.000  -0.000  -0.000   0.000  -0.000   0.000   0.000  -0.000  -0.000   0.000  -0.000   0.000  -0.000
 -0.000   0.001  -0.000   0.000   0.000   0.000  -0.000   0.000  -0.000  -0.000  -0.000  -0.000   0.000   0.000  -0.000  -0.000
  0.000  -0.000   0.001  -0.000   0.000  -0.000   0.000  -0.000   0.000  -0.000   0.000   0.000   0.000  -0.000   0.000  -0.000
 -0.000   0.000  -0.000   0.001  -0.000   0.000  -0.000   0.000  -0.000   0.000  -0.000  -0.000  -0.000   0.000   0.000   0.000
 -0.000   0.000   0.000  -0.000   0.001   0.000  -0.000  -0.000   0.000  -0.000  -0.000  -0.000   0.000  -0.000  -0.000  -0.000
 -0.000   0.000  -0.000   0.000   0.000   0.000  -0.000  -0.000  -0.000   0.000   0.000   0.000   0.000  -0.000   0.000  -0.000
  0.000  -0.000   0.000  -0.000  -0.000  -0.000   0.000   0.000  -0.000  -0.000   0.000   0.000   0.000   0.000  -0.000  -0.000
 -0.000   0.000  -0.000   0.000  -0.000  -0.000   0.000  -0.000   0.000  -0.000  -0.000  -0.000   0.000  -0.000   0.000  -0.000
  0.000  -0.000   0.000  -0.000   0.000  -0.000  -0.000   0.000   0.000  -0.000   0.000   0.000  -0.000   0.000   0.000   0.000
  0.000  -0.000  -0.000   0.000  -0.000   0.000  -0.000  -0.000  -0.000  -0.000   0.000   0.000   0.000  -0.000  -0.000  -0.000
 -0.000  -0.000   0.000  -0.000  -0.000   0.000   0.000  -0.000   0.000   0.000  -0.000   0.000   0.000   0.000  -0.000   0.000
 -0.000  -0.000   0.000  -0.000  -0.000   0.000   0.000  -0.000   0.000   0.000   0.000  -0.000   0.000  -0.000   0.000   0.000
  0.000   0.000   0.000  -0.000   0.000   0.000   0.000   0.000  -0.000   0.000  -0.000   0.000   0.000  -0.000  -0.000  -0.000
 -0.000   0.000  -0.000   0.000  -0.000  -0.000   0.000  -0.000   0.000  -0.000   0.000  -0.000  -0.000   0.000  -0.000   0.000
  0.000  -0.000   0.000   0.000  -0.000   0.000  -0.000   0.000   0.000  -0.000  -0.000   0.000  -0.000  -0.000   0.000   0.000
 -0.000  -0.000  -0.000   0.000  -0.000  -0.000  -0.000  -0.000   0.000  -0.000   0.000  -0.000  -0.000   0.000   0.000   0.000
  0.000  -0.000   0.000  -0.000   0.000   0.000  -0.000   0.000  -0.000   0.000  -0.000   0.000   0.000  -0.000   0.000  -0.000
 -0.000   0.000  -0.000  -0.000   0.000  -0.000   0.000  -0.000  -0.000   0.000   0.000   0.000   0.000   0.000  -0.000  -0.000


------------------------ aborting loop because EDIFF is reached ----------------------------------------





 total charge

# of ion       s       p       d       tot
------------------------------------------
    1        0.467   0.298   9.531  10.296
    2        1.353   2.030   0.019   3.402
--------------------------------------------------
tot          1.820   2.328   9.550  13.698



 magnetization (x)

# of ion       s       p       d       tot
------------------------------------------
    1       -0.000   0.000  -0.000  -0.000
    2        0.000   0.000   0.000   0.000
--------------------------------------------------
tot          0.000   0.000  -0.000   0.000
 
    CHARGE:  cpu time      0.0146: real time      0.0147
    FORLOC:  cpu time      0.0007: real time      0.0007
    FORNL :  cpu time      0.0118: real time      0.0121
    STRESS:  cpu time      0.0470: real time      0.0480
    FORCOR:  cpu time      0.0114: real time      0.0118
    FORHAR:  cpu time      0.0035: real time      0.0036
    MIXING:  cpu time      0.0005: real time      0.0005
    OFIELD:  cpu time      0.0008: real time      0.0009

  FORCE on cell =-STRESS in cart. coord.  units (eV):
  Direction    XX          YY          ZZ          XY          YZ          ZX
  --------------------------------------------------------------------------------------
  Alpha Z    48.32594    48.32594    48.32594
  Ewald    -343.95163  -343.95173  -343.95170    -0.00009     0.00006     0.00009
  Hartree   169.84604   169.84605   169.84607    -0.00004     0.00001     0.00001
  E(xc)     -86.12534   -86.12534   -86.12534     0.00000     0.00000     0.00000
  Local     -22.27556   -22.27556   -22.27562     0.00013    -0.00003    -0.00004
  n-local    20.38001    24.95142    29.73907    -0.21884    -0.62739    -0.08721
  augment     6.19376     6.19378     6.19377    -0.00000    -0.00001    -0.00001
  Kinetic   198.23047   202.32599   206.79369     0.33624    -0.11186    -0.27071
  Fock        0.00000     0.00000     0.00000     0.00000     0.00000     0.00000
  -------------------------------------------------------------------------------------
  Total      -0.51330    -0.51330    -0.51330     0.00000     0.00000     0.00000
  in kB     -11.63028   -11.63029   -11.63029     0.00000     0.00000     0.00000
  external pressure =      -11.63 kB  Pullay stress =        0.00 kB


 VOLUME and BASIS-vectors are now :
 -----------------------------------------------------------------------------
  energy-cutoff  :      680.00
  volume of cell :       70.71
      direct lattice vectors                 reciprocal lattice vectors
     4.019750926  0.000000000  2.320804042     0.248771632 -0.087954008  0.000000000
     1.339916630  3.789858536  2.320804038     0.000000000  0.263862092  0.000000000
     0.000000000  0.000000000  4.641610150    -0.124385761 -0.087954002  0.215442480

  length of vectors
     4.641608440  4.641609170  4.641610150     0.263862147  0.263862092  0.263862059


 FORCES acting on ions
    electron-ion (+dipol)            ewald-force                    non-local-force                 convergence-correction
 -----------------------------------------------------------------------------------------------
   -.314E-04 0.153E-04 0.430E-04   0.550E-04 -.272E-04 -.763E-04   0.132E-16 0.204E-16 0.319E-16   -.264E-06 0.145E-06 0.405E-06
   0.459E-04 -.226E-04 -.634E-04   -.550E-04 0.272E-04 0.763E-04   -.714E-16 0.505E-16 0.882E-16   0.689E-07 -.344E-07 -.964E-07
 -----------------------------------------------------------------------------------------------
   0.145E-04 -.725E-05 -.203E-04   -.327E-15 -.204E-15 -.675E-15   -.582E-16 0.708E-16 0.120E-15   -.195E-06 0.111E-06 0.308E-06
 
 
 POSITION                                       TOTAL-FORCE (eV/Angst)
 -----------------------------------------------------------------------------------
      0.00000      0.00000      0.00000         0.000000     -0.000000      0.000000
      1.33992      0.94746      2.32080        -0.000000      0.000000     -0.000000
 -----------------------------------------------------------------------------------
    total drift:                                0.000014     -0.000007     -0.000020


--------------------------------------------------------------------------------------------------------



  FREE ENERGIE OF THE ION-ELECTRON SYSTEM (eV)
  ---------------------------------------------------
  free  energy   TOTEN  =        -5.47609347 eV

  energy  without entropy=       -5.47609347  energy(sigma->0) =       -5.47609347
 


--------------------------------------------------------------------------------------------------------


    POTLOK:  cpu time      0.4123: real time      0.4136


--------------------------------------------------------------------------------------------------------


 writing wavefunctions
     LOOP+:  cpu time      8.3901: real time      8.6072
    4ORBIT:  cpu time      0.0000: real time      0.0000



 total charge

# of ion       s       p       d       tot
------------------------------------------
    1        0.467   0.298   9.531  10.296
    2        1.353   2.030   0.019   3.402
--------------------------------------------------
tot          1.820   2.328   9.550  13.698



 magnetization (x)

# of ion       s       p       d       tot
------------------------------------------
    1       -0.000   0.000  -0.000  -0.000
    2        0.000   0.000   0.000   0.000
--------------------------------------------------
tot          0.000   0.000  -0.000   0.000
 
 BZINTS: Fermi energy:    1.954143;   18.000000 electrons
         Band energy:-0.792479E+02;  BLOECHL correction:    0.000000

 total amount of memory used by VASP MPI-rank0    33220. kBytes
=======================================================================

   base      :      30000. kBytes
   nonl-proj :       1392. kBytes
   fftplans  :        427. kBytes
   grid      :       1039. kBytes
   one-center:         31. kBytes
   wavefun   :        331. kBytes
 
  
  
 General timing and accounting informations for this job:
 ========================================================
  
                  Total CPU time used (sec):       13.908
                            User time (sec):       12.419
                          System time (sec):        1.489
                         Elapsed time (sec):       14.813
  
                   Maximum memory used (kb):      185260.
                   Average memory used (kb):          N/A
  
                          Minor page faults:        31460
                          Major page faults:            0
                 Voluntary context switches:         1921
