<?xml version="1.0" encoding="ISO-8859-1"?>
<modeling>
 <generator>
  <i name="program" type="string">vasp </i>
  <i name="version" type="string">6.4.2  </i>
  <i name="subversion" type="string">20Jul23 (build Mar 15 2024 16:31:38) complex                          parallel </i>
  <i name="platform" type="string">LinuxIFC </i>
  <i name="date" type="string">2025 03 19 </i>
  <i name="time" type="string">15:01:43 </i>
 </generator>
 <incar>
  <i type="string" name="PREC">Accurate</i>
  <i type="string" name="ALGO">Fast</i>
  <i type="int" name="ISPIN">     2</i>
  <i type="int" name="NELM">   200</i>
  <i name="EDIFF">      0.00001000</i>
  <i type="int" name="NSW">     0</i>
  <i name="ENCUT">    680.00000000</i>
  <i name="ENAUG">   1360.00000000</i>
  <v name="MAGMOM">      0.60000000      0.60000000</v>
  <i type="logical" name="LREAL"> F  </i>
  <i type="int" name="ISMEAR">    -5</i>
  <i name="SIGMA">      0.20000000</i>
  <i type="int" name="LMAXMIX">     4</i>
  <i type="logical" name="LWAVE"> T  </i>
  <i type="logical" name="LCHARG"> T  </i>
  <i type="logical" name="LVTOT"> T  </i>
  <i type="int" name="LORBIT">    11</i>
  <i type="logical" name="LELF"> F  </i>
  <i type="logical" name="LASPH"> T  </i>
  <i type="logical" name="LAECHG"> T  </i>
  <i type="string" name="GGA">Ps</i>
  <i type="logical" name="LMIXTAU"> T  </i>
 </incar>
 <primitive_cell>
  <structure name="primitive_cell" >
   <crystal>
    <varray name="basis" >
     <v>       4.01975093       0.00000000       2.32080404 </v>
     <v>       1.33991663       3.78985854       2.32080404 </v>
     <v>       0.00000000       0.00000000       4.64161015 </v>
    </varray>
    <i name="volume">     70.71162285 </i>
    <varray name="rec_basis" >
     <v>       0.24877163      -0.08795401       0.00000000 </v>
     <v>       0.00000000       0.26386209       0.00000000 </v>
     <v>      -0.12438576      -0.08795400       0.21544248 </v>
    </varray>
   </crystal>
   <varray name="positions" >
    <v>       0.00000000       0.00000000       0.00000000 </v>
    <v>       0.25000000       0.25000000       0.25000000 </v>
   </varray>
  </structure>
  <varray name="primitive_index" >
   <v type="int" >        1 </v>
   <v type="int" >        2 </v>
  </varray>
 </primitive_cell>
 <kpoints>
  <generation param="Gamma">
   <v type="int" name="divisions">       6        6        6 </v>
   <v name="usershift">      0.00000000       0.00000000       0.00000000 </v>
   <v name="genvec1">      0.16666667      -0.00000000       0.00000000 </v>
   <v name="genvec2">      0.00000000       0.16666667       0.00000000 </v>
   <v name="genvec3">      0.00000000      -0.00000000       0.16666667 </v>
   <v name="shift">      0.00000000       0.00000000       0.00000000 </v>
  </generation>
  <varray name="kpointlist" >
   <v>       0.00000000       0.00000000       0.00000000 </v>
   <v>       0.16666667       0.00000000       0.00000000 </v>
   <v>       0.33333333       0.00000000       0.00000000 </v>
   <v>       0.50000000       0.00000000       0.00000000 </v>
   <v>       0.16666667       0.16666667       0.00000000 </v>
   <v>       0.33333333       0.16666667       0.00000000 </v>
   <v>       0.50000000       0.16666667       0.00000000 </v>
   <v>      -0.33333333       0.16666667       0.00000000 </v>
   <v>      -0.16666667       0.16666667       0.00000000 </v>
   <v>       0.33333333       0.33333333       0.00000000 </v>
   <v>       0.50000000       0.33333333       0.00000000 </v>
   <v>      -0.33333333       0.33333333       0.00000000 </v>
   <v>       0.50000000       0.50000000       0.00000000 </v>
   <v>       0.50000000       0.33333333       0.16666667 </v>
   <v>      -0.33333333       0.33333333       0.16666667 </v>
   <v>      -0.33333333       0.50000000       0.16666667 </v>
  </varray>
  <varray name="weights" >
   <v>       0.00462963 </v>
   <v>       0.03703704 </v>
   <v>       0.03703704 </v>
   <v>       0.01851852 </v>
   <v>       0.02777778 </v>
   <v>       0.11111111 </v>
   <v>       0.11111111 </v>
   <v>       0.11111111 </v>
   <v>       0.05555556 </v>
   <v>       0.02777778 </v>
   <v>       0.11111111 </v>
   <v>       0.05555556 </v>
   <v>       0.01388889 </v>
   <v>       0.11111111 </v>
   <v>       0.11111111 </v>
   <v>       0.05555556 </v>
  </varray>
  <varray name="tetrahedronlist"  type="int" >
   <v type="int" >       48        2        3        6        9 </v>
   <v type="int" >       48        6        8        9       14 </v>
   <v type="int" >       24        8        8        9       14 </v>
   <v type="int" >       48        3        6        8        9 </v>
   <v type="int" >       48        8       12       14       15 </v>
   <v type="int" >       48        7        8       12       15 </v>
   <v type="int" >       24        8        8       12       14 </v>
   <v type="int" >       48        7       11       14       15 </v>
   <v type="int" >       48        6        7       11       14 </v>
   <v type="int" >       48        7       11       12       15 </v>
   <v type="int" >       24        6        6       10       14 </v>
   <v type="int" >       24        5        6        6       10 </v>
   <v type="int" >       48        6       10       11       14 </v>
   <v type="int" >       24        5        6        6        9 </v>
   <v type="int" >       48        2        5        6        9 </v>
   <v type="int" >       48        6        7        8       14 </v>
   <v type="int" >       48        3        6        7        8 </v>
   <v type="int" >       48       11       14       15       16 </v>
   <v type="int" >       24       14       15       15       16 </v>
   <v type="int" >       24       12       14       15       15 </v>
   <v type="int" >       48        7        8       14       15 </v>
   <v type="int" >       24       15       15       16       16 </v>
   <v type="int" >       24       12       15       15       16 </v>
   <v type="int" >       48       11       12       15       16 </v>
   <v type="int" >       24       11       11       14       16 </v>
   <v type="int" >       24       10       11       11       14 </v>
   <v type="int" >       24        6        6        9       14 </v>
   <v type="int" >       24       11       11       12       16 </v>
   <v type="int" >       48        7        7        8       15 </v>
   <v type="int" >       24        2        2        5        9 </v>
   <v type="int" >       48        3        4        7        8 </v>
   <v type="int" >       48        4        7        7        8 </v>
   <v type="int" >       48       11       11       13       16 </v>
   <v type="int" >       24       10       11       11       13 </v>
   <v type="int" >       24        1        2        2        5 </v>
  </varray>
  <i name="volumeweight">      0.00077160 </i>
 </kpoints>
 <parameters>
  <separator name="general" >
   <i type="string" name="SYSTEM">unknown system</i>
   <i type="logical" name="LCOMPAT"> F  </i>
  </separator>
  <separator name="electronic" >
   <i type="string" name="PREC">accura</i>
   <i name="ENMAX">    680.00000000</i>
   <i name="ENAUG">   1360.00000000</i>
   <i name="EDIFF">      0.00001000</i>
   <i type="int" name="IALGO">    68</i>
   <i type="int" name="IWAVPR">    10</i>
   <i type="int" name="NBANDS">    24</i>
   <i type="int" name="NBANDSLOW">    -1</i>
   <i type="int" name="NBANDSHIGH">    -1</i>
   <i name="NELECT">     18.00000000</i>
   <i type="int" name="TURBO">     0</i>
   <i type="int" name="IRESTART">     0</i>
   <i type="int" name="NREBOOT">     0</i>
   <i type="int" name="NMIN">     0</i>
   <i name="EREF">      0.00000000</i>
   <separator name="electronic smearing" >
    <i type="int" name="ISMEAR">    -5</i>
    <i name="SIGMA">      0.20000000</i>
    <i name="KSPACING">      0.50000000</i>
    <i type="logical" name="KGAMMA"> T  </i>
    <i type="logical" name="KBLOWUP"> T  </i>
   </separator>
   <separator name="electronic projectors" >
    <i type="logical" name="LREAL"> F  </i>
    <v name="ROPT">      0.00000000      0.00000000</v>
    <i type="int" name="LMAXPAW">  -100</i>
    <i type="int" name="LMAXMIX">     4</i>
    <i type="logical" name="NLSPLINE"> F  </i>
   </separator>
   <separator name="electronic startup" >
    <i type="int" name="ISTART">     0</i>
    <i type="int" name="ICHARG">     2</i>
    <i type="int" name="INIWAV">     1</i>
   </separator>
   <separator name="electronic spin" >
    <i type="int" name="ISPIN">     2</i>
    <i type="logical" name="LNONCOLLINEAR"> F  </i>
    <v name="MAGMOM">      0.60000000      0.60000000</v>
    <i name="NUPDOWN">     -1.00000000</i>
    <i type="logical" name="LSORBIT"> F  </i>
    <v name="SAXIS">      0.00000000      0.00000000      1.00000000</v>
    <i type="logical" name="LSPIRAL"> F  </i>
    <v name="QSPIRAL">      0.00000000      0.00000000      0.00000000</v>
    <i type="logical" name="LZEROZ"> F  </i>
   </separator>
   <separator name="electronic exchange-correlation" >
    <i type="logical" name="LASPH"> T  </i>
    <i type="logical" name="LMETAGGA"> F  </i>
   </separator>
   <separator name="electronic convergence" >
    <i type="int" name="NELM">   200</i>
    <i type="int" name="NELMDL">    -5</i>
    <i type="int" name="NELMIN">     2</i>
    <i name="ENINI">    680.00000000</i>
    <separator name="electronic convergence detail" >
     <i type="logical" name="LDIAG"> T  </i>
     <i type="logical" name="LSUBROT"> F  </i>
     <i name="WEIMIN">      0.00000000</i>
     <i name="EBREAK">      0.00000010</i>
     <i name="DEPER">      0.30000000</i>
     <i type="int" name="NRMM">     4</i>
     <i name="TIME">      0.40000000</i>
    </separator>
   </separator>
   <separator name="electronic mixer" >
    <i name="AMIX">      0.40000000</i>
    <i name="BMIX">      1.00000000</i>
    <i name="AMIN">      0.10000000</i>
    <i name="AMIX_MAG">      1.60000000</i>
    <i name="BMIX_MAG">      1.00000000</i>
    <separator name="electronic mixer details" >
     <i type="int" name="IMIX">     4</i>
     <i type="logical" name="MIXFIRST"> F  </i>
     <i type="int" name="MAXMIX">   -45</i>
     <i name="WC">    100.00000000</i>
     <i type="int" name="INIMIX">     1</i>
     <i type="int" name="MIXPRE">     1</i>
     <i type="int" name="MREMOVE">     5</i>
    </separator>
   </separator>
   <separator name="electronic dipolcorrection" >
    <i type="logical" name="LDIPOL"> F  </i>
    <i type="logical" name="LMONO"> F  </i>
    <i type="int" name="IDIPOL">     0</i>
    <i name="EPSILON">      1.00000000</i>
    <v name="DIPOL">   -100.00000000   -100.00000000   -100.00000000</v>
    <i name="EFIELD">      0.00000000</i>
   </separator>
  </separator>
  <separator name="grids" >
   <i type="int" name="NGX">    40</i>
   <i type="int" name="NGY">    40</i>
   <i type="int" name="NGZ">    40</i>
   <i type="int" name="NGXF">    80</i>
   <i type="int" name="NGYF">    80</i>
   <i type="int" name="NGZF">    80</i>
   <i type="logical" name="ADDGRID"> F  </i>
  </separator>
  <separator name="ionic" >
   <i type="int" name="NSW">     0</i>
   <i type="int" name="IBRION">    -1</i>
   <i type="int" name="MDALGO">     0</i>
   <i type="int" name="ISIF">     2</i>
   <i name="PSTRESS">      0.00000000</i>
   <i name="EDIFFG">      0.00010000</i>
   <i type="int" name="NFREE">     0</i>
   <i name="POTIM">      0.50000000</i>
   <i name="SMASS">     -3.00000000</i>
   <i name="SCALEE">      1.00000000</i>
  </separator>
  <separator name="ionic md" >
   <i name="TEBEG">      0.00010000</i>
   <i name="TEEND">      0.00010000</i>
   <i type="int" name="NBLOCK">     1</i>
   <i type="int" name="KBLOCK">     1</i>
   <i type="int" name="NPACO">   256</i>
   <i name="APACO">     10.00000000</i>
  </separator>
  <separator name="symmetry" >
   <i type="int" name="ISYM">     2</i>
   <i name="SYMPREC">      0.00001000</i>
  </separator>
  <separator name="dos" >
   <i type="int" name="LORBIT">    11</i>
   <v name="RWIGS">     -1.00000000     -1.00000000</v>
   <i type="int" name="NEDOS">   301</i>
   <i name="EMIN">     10.00000000</i>
   <i name="EMAX">    -10.00000000</i>
   <i name="EFERMI">      0.00000000</i>
  </separator>
  <separator name="writing" >
   <i type="int" name="NWRITE">     2</i>
   <i type="logical" name="LWAVE"> T  </i>
   <i type="logical" name="LDOWNSAMPLE"> F  </i>
   <i type="logical" name="LCHARG"> T  </i>
   <i type="logical" name="LPARD"> F  </i>
   <i type="logical" name="LVTOT"> T  </i>
   <i type="logical" name="LVHAR"> F  </i>
   <i type="logical" name="LELF"> F  </i>
   <i type="logical" name="LOPTICS"> F  </i>
   <v name="STM">      0.00000000      0.00000000      0.00000000      0.00000000      0.00000000      0.00000000      0.00000000</v>
  </separator>
  <separator name="performance" >
   <i type="int" name="NPAR">    12</i>
   <i type="int" name="NSIM">     4</i>
   <i type="int" name="NBLK">    -1</i>
   <i type="logical" name="LPLANE"> T  </i>
   <i type="logical" name="LSCALAPACK"> T  </i>
   <i type="logical" name="LSCAAWARE"> F  </i>
   <i type="logical" name="LSCALU"> F  </i>
   <i type="logical" name="LASYNC"> F  </i>
   <i type="logical" name="LORBITALREAL"> F  </i>
  </separator>
  <separator name="miscellaneous" >
   <i type="int" name="IDIOT">     3</i>
   <i type="int" name="PHON_NSTRUCT">    -1</i>
   <i type="logical" name="LMUSIC"> F  </i>
   <v name="POMASS">    112.41100000    127.60000000</v>
   <v name="DARWINR">      0.00000000      0.00000000</v>
   <v name="DARWINV">      1.00000000      1.00000000</v>
   <i type="logical" name="LCORR"> T  </i>
  </separator>
  <i type="logical" name="GGA_COMPAT"> T  </i>
  <i type="logical" name="LBERRY"> F  </i>
  <i type="int" name="ICORELEVEL">     0</i>
  <i type="logical" name="LDAU"> F  </i>
  <i type="int" name="I_CONSTRAINED_M">     0</i>
  <separator name="electronic exchange-correlation" >
   <i type="string" name="GGA">PS</i>
   <i type="int" name="VOSKOWN">     0</i>
   <i type="logical" name="LHFCALC"> F  </i>
   <i type="string" name="PRECFOCK"></i>
   <i type="logical" name="LSYMGRAD"> F  </i>
   <i type="logical" name="LHFONE"> F  </i>
   <i type="logical" name="LRHFCALC"> F  </i>
   <i type="logical" name="LTHOMAS"> F  </i>
   <i type="logical" name="LMODELHF"> F  </i>
   <i type="logical" name="LFOCKACE"> F  </i>
   <i name="ENCUT4O">     -1.00000000</i>
   <i type="int" name="EXXOEP">     0</i>
   <i type="int" name="FOURORBIT">     0</i>
   <i name="AEXX">      0.00000000</i>
   <i name="HFALPHA">      0.00000000</i>
   <i name="MCALPHA">      0.00000000</i>
   <i name="ALDAX">      1.00000000</i>
   <i name="AGGAX">      1.00000000</i>
   <i name="ALDAC">      1.00000000</i>
   <i name="AGGAC">      1.00000000</i>
   <i type="int" name="NKREDX">     1</i>
   <i type="int" name="NKREDY">     1</i>
   <i type="int" name="NKREDZ">     1</i>
   <i type="logical" name="SHIFTRED"> F  </i>
   <i type="logical" name="ODDONLY"> F  </i>
   <i type="logical" name="EVENONLY"> F  </i>
   <i type="int" name="LMAXFOCK">     0</i>
   <i type="int" name="NMAXFOCKAE">     0</i>
   <i type="logical" name="LFOCKAEDFT"> F  </i>
   <i name="HFSCREEN">      0.00000000</i>
   <i name="HFSCREENC">      0.00000000</i>
   <i type="int" name="NBANDSGWLOW">     0</i>
  </separator>
  <separator name="vdW DFT" >
   <i type="logical" name="LUSE_VDW"> F  </i>
   <i type="int" name="IVDW_NL">     1</i>
   <i type="logical" name="LSPIN_VDW"> F  </i>
   <i name="Zab_VDW">     -0.84910000</i>
   <i name="PARAM1">      0.12340000</i>
   <i name="PARAM2">      1.00000000</i>
   <i name="PARAM3">      0.00000000</i>
  </separator>
  <separator name="model GW" >
   <i type="int" name="MODEL_GW">     0</i>
   <i name="MODEL_EPS0">     21.21348685</i>
   <i name="MODEL_ALPHA">      1.00000000</i>
  </separator>
  <separator name="linear response parameters" >
   <i type="logical" name="LEPSILON"> F  </i>
   <i type="logical" name="LRPA"> F  </i>
   <i type="logical" name="LNABLA"> F  </i>
   <i type="logical" name="LVEL"> F  </i>
   <i name="CSHIFT">      0.10000000</i>
   <i name="OMEGAMAX">     -1.00000000</i>
   <i name="DEG_THRESHOLD">      0.00200000</i>
   <i name="RTIME">     -0.10000000</i>
   <i name="WPLASMAI">      0.00000000</i>
   <v name="DFIELD">      0.00000000      0.00000000      0.00000000</v>
   <v name="WPLASMA">      0.00000000      0.00000000      0.00000000      0.00000000      0.00000000      0.00000000      0.00000000      0.00000000      0.00000000</v>
  </separator>
  <separator name="orbital magnetization" >
   <i type="logical" name="NUCIND"> F  </i>
   <v name="MAGPOS">      0.00000000      0.00000000      0.00000000</v>
   <i type="logical" name="LNICSALL"> T  </i>
   <i type="logical" name="ORBITALMAG"> F  </i>
   <i type="logical" name="LMAGBLOCH"> F  </i>
   <i type="logical" name="LCHIMAG"> F  </i>
   <i type="logical" name="LGAUGE"> T  </i>
   <i type="int" name="MAGATOM">     0</i>
   <v name="MAGDIPOL">      0.00000000      0.00000000      0.00000000</v>
   <v name="AVECCONST">      0.00000000      0.00000000      0.00000000</v>
  </separator>
  <separator name="response functions" >
   <i type="logical" name="LALL_IN_ONE"> F  </i>
   <i type="int" name="IALL_IN_ONE">    -1</i>
   <i type="int" name="NBANDS_WAVE">    -1</i>
   <i type="logical" name="LFINITE_TEMPERATURE"> F  </i>
   <i type="logical" name="LADDER"> F  </i>
   <i type="logical" name="LRPAFORCE"> F  </i>
   <i type="logical" name="LFXC"> F  </i>
   <i type="logical" name="LHARTREE"> T  </i>
   <i type="int" name="IBSE">     0</i>
   <v type="int" name="KPOINT">    -1     0     0     0</v>
   <i type="logical" name="LTCTC"> F  </i>
   <i type="logical" name="LTCTE"> F  </i>
   <i type="logical" name="LTETE"> F  </i>
   <i type="logical" name="LTRIPLET"> F  </i>
   <i type="logical" name="LFXCEPS"> F  </i>
   <i type="logical" name="LFXHEG"> F  </i>
   <i type="int" name="NATURALO">     2</i>
   <i type="logical" name="LHOLEGF"> F  </i>
   <i type="logical" name="L2ORDER"> F  </i>
   <i type="logical" name="LDMP1"> F  </i>
   <i type="logical" name="LMP2LT"> F  </i>
   <i type="logical" name="LSMP2LT"> F  </i>
   <i type="logical" name="LGWLF"> F  </i>
   <i name="ENCUTGW">     -1.60000002</i>
   <i name="ENCUTGWSOFT">     -1.60000002</i>
   <i name="ENCUTLF">     -1.00000000</i>
   <i type="logical" name="LESF_SPLINES"> F  </i>
   <i type="int" name="LMAXMP2">    -1</i>
   <i name="SCISSOR">      0.00000000</i>
   <i type="int" name="NOMEGA">     0</i>
   <i type="int" name="NOMEGAR">     0</i>
   <i type="int" name="NBANDSGW">    -1</i>
   <i type="int" name="NBANDSO">    -1</i>
   <i type="int" name="NBANDSV">    -1</i>
   <i type="int" name="NELMGW">     1</i>
   <i type="int" name="NELMHF">     1</i>
   <i type="int" name="DIM">     3</i>
   <i type="int" name="IESPILON">     4</i>
   <i type="int" name="ANTIRES">     0</i>
   <i name="OMEGAMAX">    -30.00000000</i>
   <i name="OMEGAMIN">    -30.00000000</i>
   <i name="OMEGATL">   -200.00000000</i>
   <i type="int" name="OMEGAGRID">     0</i>
   <i name="CSHIFT">     -0.10000000</i>
   <i type="logical" name="LSELFENERGY"> F  </i>
   <i type="logical" name="LSPECTRAL"> F  </i>
   <i type="logical" name="LSPECTRALGW"> F  </i>
   <i type="logical" name="LSINGLES"> F  </i>
   <i type="logical" name="LFERMIGW"> F  </i>
   <i type="logical" name="ODDONLYGW"> F  </i>
   <i type="logical" name="EVENONLYGW"> F  </i>
   <i type="int" name="NKREDLFX">     1</i>
   <i type="int" name="NKREDLFY">     1</i>
   <i type="int" name="NKREDLFZ">     1</i>
   <i type="int" name="MAXMEM">  2800</i>
   <i type="int" name="TELESCOPE">     0</i>
   <i type="int" name="NTAUPAR">    -1</i>
   <i type="int" name="NOMEGAPAR">    -1</i>
   <i name="DAMP_NEWTON">      0.80000001</i>
   <i name="LAMBDA">      1.00000000</i>
  </separator>
  <separator name="External order field" >
   <i name="OFIELD_KAPPA">      0.00000000</i>
   <v name="OFIELD_K">      0.00000000      0.00000000      0.00000000</v>
   <i name="OFIELD_Q6_NEAR">      0.00000000</i>
   <i name="OFIELD_Q6_FAR">      0.00000000</i>
   <i name="OFIELD_A">      0.00000000</i>
  </separator>
  <separator name="optional k-points parameters" >
   <i type="int" name="KPOINTS_OPT_MODE">     1</i>
   <i type="logical" name="LKPOINTS_OPT"> F  </i>
  </separator>
 </parameters>
 <atominfo>
  <atoms>       2 </atoms>
  <types>       2 </types>
  <array name="atoms" >
   <dimension dim="1">ion</dimension>
   <field type="string">element</field>
   <field type="int">atomtype</field>
   <set>
    <rc><c>Cd</c><c>   1</c></rc>
    <rc><c>Te</c><c>   2</c></rc>
   </set>
  </array>
  <array name="atomtypes" >
   <dimension dim="1">type</dimension>
   <field type="int">atomspertype</field>
   <field type="string">element</field>
   <field>mass</field>
   <field>valence</field>
   <field type="string">pseudopotential</field>
   <set>
    <rc><c>   1</c><c>Cd</c><c>    112.41100000</c><c>     12.00000000</c><c>  PAW_PBE Cd 06Sep2000                  </c></rc>
    <rc><c>   1</c><c>Te</c><c>    127.60000000</c><c>      6.00000000</c><c>  PAW_PBE Te 08Apr2002                  </c></rc>
   </set>
  </array>
 </atominfo>
 <structure name="initialpos" >
  <crystal>
   <varray name="basis" >
    <v>       4.01975093       0.00000000       2.32080404 </v>
    <v>       1.33991663       3.78985854       2.32080404 </v>
    <v>       0.00000000       0.00000000       4.64161015 </v>
   </varray>
   <i name="volume">     70.71162285 </i>
   <varray name="rec_basis" >
    <v>       0.24877163      -0.08795401       0.00000000 </v>
    <v>       0.00000000       0.26386209       0.00000000 </v>
    <v>      -0.12438576      -0.08795400       0.21544248 </v>
   </varray>
  </crystal>
  <varray name="positions" >
   <v>       0.00000000       0.00000000       0.00000000 </v>
   <v>       0.25000000       0.25000000       0.25000000 </v>
  </varray>
 </structure>
 <calculation>
  <scstep>
   <time name="dav">    0.27    0.28</time>
   <time name="total">    0.70    0.71</time>
   <energy>
    <i name="alphaZ">     48.32593859 </i>
    <i name="ewald">  -1031.85467228 </i>
    <i name="hartreedc">   -517.30053658 </i>
    <i name="XCdc">    -20.71905240 </i>
    <i name="pawpsdc">   1402.40119149 </i>
    <i name="pawaedc">  -1331.50887785 </i>
    <i name="eentropy">      0.00000000 </i>
    <i name="bandstr">     45.11705752 </i>
    <i name="atom">   1516.21046352 </i>
    <i name="e_fr_energy">    110.67151200 </i>
    <i name="e_wo_entrp">    110.67151200 </i>
    <i name="e_0_energy">    110.67151200 </i>
   </energy>
  </scstep>
  <scstep>
   <time name="dav">    0.33    0.33</time>
   <time name="total">    0.33    0.33</time>
   <energy>
    <i name="e_fr_energy">     -1.84118756 </i>
    <i name="e_wo_entrp">     -1.84118756 </i>
    <i name="e_0_energy">     -1.84118756 </i>
   </energy>
  </scstep>
  <scstep>
   <time name="dav">    0.25    0.27</time>
   <time name="total">    0.26    0.27</time>
   <energy>
    <i name="e_fr_energy">     -5.59817278 </i>
    <i name="e_wo_entrp">     -5.59817278 </i>
    <i name="e_0_energy">     -5.59817278 </i>
   </energy>
  </scstep>
  <scstep>
   <time name="dav">    0.29    0.30</time>
   <time name="total">    0.29    0.30</time>
   <energy>
    <i name="e_fr_energy">     -5.62702648 </i>
    <i name="e_wo_entrp">     -5.62702648 </i>
    <i name="e_0_energy">     -5.62702648 </i>
   </energy>
  </scstep>
  <scstep>
   <time name="dav">    0.26    0.27</time>
   <time name="total">    0.29    0.31</time>
   <energy>
    <i name="e_fr_energy">     -5.62738900 </i>
    <i name="e_wo_entrp">     -5.62738900 </i>
    <i name="e_0_energy">     -5.62738900 </i>
   </energy>
  </scstep>
  <scstep>
   <time name="diag">    0.10    0.10</time>
   <time name="diis">    0.04    0.04</time>
   <time name="orth">    0.01    0.01</time>
   <time name="total">    0.58    0.60</time>
   <energy>
    <i name="e_fr_energy">     -5.48962821 </i>
    <i name="e_wo_entrp">     -5.48962821 </i>
    <i name="e_0_energy">     -5.48962821 </i>
   </energy>
  </scstep>
  <scstep>
   <time name="diag">    0.10    0.10</time>
   <time name="diis">    0.04    0.04</time>
   <time name="orth">    0.01    0.01</time>
   <time name="total">    0.58    0.59</time>
   <energy>
    <i name="e_fr_energy">     -5.47755173 </i>
    <i name="e_wo_entrp">     -5.47755173 </i>
    <i name="e_0_energy">     -5.47755173 </i>
   </energy>
  </scstep>
  <scstep>
   <time name="diag">    0.10    0.10</time>
   <time name="diis">    0.03    0.03</time>
   <time name="orth">    0.01    0.01</time>
   <time name="total">    0.57    0.58</time>
   <energy>
    <i name="e_fr_energy">     -5.47723393 </i>
    <i name="e_wo_entrp">     -5.47723393 </i>
    <i name="e_0_energy">     -5.47723393 </i>
   </energy>
  </scstep>
  <scstep>
   <time name="diag">    0.10    0.10</time>
   <time name="diis">    0.04    0.04</time>
   <time name="orth">    0.01    0.01</time>
   <time name="total">    0.58    0.59</time>
   <energy>
    <i name="e_fr_energy">     -5.47601716 </i>
    <i name="e_wo_entrp">     -5.47601716 </i>
    <i name="e_0_energy">     -5.47601716 </i>
   </energy>
  </scstep>
  <scstep>
   <time name="diag">    0.10    0.10</time>
   <time name="diis">    0.05    0.05</time>
   <time name="orth">    0.01    0.01</time>
   <time name="total">    0.58    0.60</time>
   <energy>
    <i name="e_fr_energy">     -5.47602978 </i>
    <i name="e_wo_entrp">     -5.47602978 </i>
    <i name="e_0_energy">     -5.47602978 </i>
   </energy>
  </scstep>
  <scstep>
   <time name="diag">    0.09    0.09</time>
   <time name="diis">    0.04    0.04</time>
   <time name="orth">    0.01    0.01</time>
   <time name="total">    0.56    0.58</time>
   <energy>
    <i name="e_fr_energy">     -5.47607677 </i>
    <i name="e_wo_entrp">     -5.47607677 </i>
    <i name="e_0_energy">     -5.47607677 </i>
   </energy>
  </scstep>
  <scstep>
   <time name="diag">    0.10    0.10</time>
   <time name="diis">    0.05    0.05</time>
   <time name="orth">    0.01    0.01</time>
   <time name="total">    0.58    0.59</time>
   <energy>
    <i name="e_fr_energy">     -5.47608702 </i>
    <i name="e_wo_entrp">     -5.47608702 </i>
    <i name="e_0_energy">     -5.47608702 </i>
   </energy>
  </scstep>
  <scstep>
   <time name="diag">    0.09    0.09</time>
   <time name="diis">    0.04    0.04</time>
   <time name="orth">    0.01    0.01</time>
   <time name="total">    0.54    0.56</time>
   <energy>
    <i name="alphaZ">     48.32593859 </i>
    <i name="ewald">  -1031.85467228 </i>
    <i name="hartreedc">   -509.51851896 </i>
    <i name="XCdc">    -20.81514986 </i>
    <i name="pawpsdc">   1683.24845269 </i>
    <i name="pawaedc">  -1611.82466516 </i>
    <i name="eentropy">      0.00000000 </i>
    <i name="bandstr">    -79.24794202 </i>
    <i name="atom">   1516.21046352 </i>
    <i name="e_fr_energy">     -5.47609347 </i>
    <i name="e_wo_entrp">     -5.47609347 </i>
    <i name="e_0_energy">     -5.47609347 </i>
   </energy>
  </scstep>
  <structure>
   <crystal>
    <varray name="basis" >
     <v>       4.01975093       0.00000000       2.32080404 </v>
     <v>       1.33991663       3.78985854       2.32080404 </v>
     <v>       0.00000000       0.00000000       4.64161015 </v>
    </varray>
    <i name="volume">     70.71162285 </i>
    <varray name="rec_basis" >
     <v>       0.24877163      -0.08795401       0.00000000 </v>
     <v>       0.00000000       0.26386209       0.00000000 </v>
     <v>      -0.12438576      -0.08795400       0.21544248 </v>
    </varray>
   </crystal>
   <varray name="positions" >
    <v>       0.00000000       0.00000000       0.00000000 </v>
    <v>       0.25000000       0.25000000       0.25000000 </v>
   </varray>
  </structure>
  <varray name="forces" >
   <v>       0.00000000      -0.00000000       0.00000000 </v>
   <v>      -0.00000000       0.00000000      -0.00000000 </v>
  </varray>
  <varray name="stress" >
   <v>     -11.63028103       0.00000106       0.00000299 </v>
   <v>       0.00000106     -11.63028728       0.00000212 </v>
   <v>       0.00000299       0.00000212     -11.63028901 </v>
  </varray>
  <energy>
   <i name="e_fr_energy">     -5.47609347 </i>
   <i name="e_wo_entrp">     -5.47609347 </i>
   <i name="e_0_energy">     -5.47609347 </i>
  </energy>
  <time name="totalsc">    8.39    8.61</time>
  <eigenvalues>
   <array>
    <dimension dim="1">band</dimension>
    <dimension dim="2">kpoint</dimension>
    <dimension dim="3">spin</dimension>
    <field>eigene</field>
    <field>occ</field>
    <set>
     <set comment="spin 1">
      <set comment="kpoint 1">
       <r>   -9.1239    1.0000 </r>
       <r>   -6.2601    1.0000 </r>
       <r>   -6.2601    1.0000 </r>
       <r>   -6.2601    1.0000 </r>
       <r>   -6.0231    1.0000 </r>
       <r>   -6.0231    1.0000 </r>
       <r>    1.8751    1.0000 </r>
       <r>    1.8751    1.0000 </r>
       <r>    1.8751    1.0000 </r>
       <r>    2.4227    0.0000 </r>
       <r>    6.4431    0.0000 </r>
       <r>    6.4431    0.0000 </r>
       <r>    6.4431    0.0000 </r>
       <r>    9.1195    0.0000 </r>
       <r>   11.1493    0.0000 </r>
       <r>   11.1493    0.0000 </r>
       <r>   11.8474    0.0000 </r>
       <r>   11.8474    0.0000 </r>
       <r>   11.8474    0.0000 </r>
       <r>   14.0877    0.0000 </r>
       <r>   21.4107    0.0000 </r>
       <r>   21.4117    0.0000 </r>
       <r>   21.4135    0.0000 </r>
       <r>   22.1830    0.0000 </r>
      </set>
      <set comment="kpoint 2">
       <r>   -9.0310    1.0000 </r>
       <r>   -6.2432    1.0000 </r>
       <r>   -6.2432    1.0000 </r>
       <r>   -6.1820    1.0000 </r>
       <r>   -6.0241    1.0000 </r>
       <r>   -6.0241    1.0000 </r>
       <r>    0.1473    1.0000 </r>
       <r>    1.6616    1.0000 </r>
       <r>    1.6616    1.0000 </r>
       <r>    3.5643    0.0000 </r>
       <r>    6.4993    0.0000 </r>
       <r>    6.7666    0.0000 </r>
       <r>    6.7666    0.0000 </r>
       <r>   10.1265    0.0000 </r>
       <r>   10.2726    0.0000 </r>
       <r>   10.2726    0.0000 </r>
       <r>   11.4678    0.0000 </r>
       <r>   13.6095    0.0000 </r>
       <r>   13.6095    0.0000 </r>
       <r>   15.7770    0.0000 </r>
       <r>   18.7550    0.0000 </r>
       <r>   18.7550    0.0000 </r>
       <r>   19.1263    0.0000 </r>
       <r>   21.5741    0.0000 </r>
      </set>
      <set comment="kpoint 3">
       <r>   -8.8448    1.0000 </r>
       <r>   -6.2141    1.0000 </r>
       <r>   -6.2141    1.0000 </r>
       <r>   -6.0205    1.0000 </r>
       <r>   -6.0205    1.0000 </r>
       <r>   -5.9265    1.0000 </r>
       <r>   -1.6006    1.0000 </r>
       <r>    1.3028    1.0000 </r>
       <r>    1.3028    1.0000 </r>
       <r>    3.6711    0.0000 </r>
       <r>    7.0463    0.0000 </r>
       <r>    7.0463    0.0000 </r>
       <r>    7.9290    0.0000 </r>
       <r>    9.7920    0.0000 </r>
       <r>   10.6562    0.0000 </r>
       <r>   10.6562    0.0000 </r>
       <r>   13.7677    0.0000 </r>
       <r>   15.3948    0.0000 </r>
       <r>   15.3948    0.0000 </r>
       <r>   15.9481    0.0000 </r>
       <r>   16.4745    0.0000 </r>
       <r>   16.4746    0.0000 </r>
       <r>   18.9494    0.0000 </r>
       <r>   21.9574    0.0000 </r>
      </set>
      <set comment="kpoint 4">
       <r>   -8.7533    1.0000 </r>
       <r>   -6.2027    1.0000 </r>
       <r>   -6.2027    1.0000 </r>
       <r>   -6.0150    1.0000 </r>
       <r>   -6.0150    1.0000 </r>
       <r>   -5.7065    1.0000 </r>
       <r>   -2.3863    1.0000 </r>
       <r>    1.1466    1.0000 </r>
       <r>    1.1466    1.0000 </r>
       <r>    3.5689    0.0000 </r>
       <r>    7.0163    0.0000 </r>
       <r>    7.0163    0.0000 </r>
       <r>    8.7714    0.0000 </r>
       <r>   10.2587    0.0000 </r>
       <r>   12.0384    0.0000 </r>
       <r>   12.0384    0.0000 </r>
       <r>   12.9234    0.0000 </r>
       <r>   13.3401    0.0000 </r>
       <r>   13.3401    0.0000 </r>
       <r>   17.5322    0.0000 </r>
       <r>   19.0813    0.0000 </r>
       <r>   19.0814    0.0000 </r>
       <r>   19.6596    0.0000 </r>
       <r>   20.0312    0.0000 </r>
      </set>
      <set comment="kpoint 5">
       <r>   -9.0003    1.0000 </r>
       <r>   -6.2261    1.0000 </r>
       <r>   -6.2261    1.0000 </r>
       <r>   -6.1817    1.0000 </r>
       <r>   -6.0304    1.0000 </r>
       <r>   -6.0161    1.0000 </r>
       <r>    0.1231    1.0000 </r>
       <r>    1.3075    1.0000 </r>
       <r>    1.3075    1.0000 </r>
       <r>    4.1849    0.0000 </r>
       <r>    5.5472    0.0000 </r>
       <r>    7.3460    0.0000 </r>
       <r>    7.3460    0.0000 </r>
       <r>    8.9794    0.0000 </r>
       <r>   10.8409    0.0000 </r>
       <r>   11.3901    0.0000 </r>
       <r>   12.5872    0.0000 </r>
       <r>   12.5872    0.0000 </r>
       <r>   13.1630    0.0000 </r>
       <r>   16.7507    0.0000 </r>
       <r>   18.5431    0.0000 </r>
       <r>   18.5431    0.0000 </r>
       <r>   19.1352    0.0000 </r>
       <r>   19.7840    0.0000 </r>
      </set>
      <set comment="kpoint 6">
       <r>   -8.8463    1.0000 </r>
       <r>   -6.2031    1.0000 </r>
       <r>   -6.1932    1.0000 </r>
       <r>   -6.0666    1.0000 </r>
       <r>   -6.0108    1.0000 </r>
       <r>   -5.9510    1.0000 </r>
       <r>   -1.1825    1.0000 </r>
       <r>    0.8069    1.0000 </r>
       <r>    0.9218    1.0000 </r>
       <r>    4.5986    0.0000 </r>
       <r>    5.8418    0.0000 </r>
       <r>    7.5100    0.0000 </r>
       <r>    7.8970    0.0000 </r>
       <r>    9.6042    0.0000 </r>
       <r>   11.4774    0.0000 </r>
       <r>   11.5269    0.0000 </r>
       <r>   13.3229    0.0000 </r>
       <r>   14.4853    0.0000 </r>
       <r>   15.5456    0.0000 </r>
       <r>   15.5983    0.0000 </r>
       <r>   15.7976    0.0000 </r>
       <r>   18.7108    0.0000 </r>
       <r>   19.3113    0.0000 </r>
       <r>   19.5792    0.0000 </r>
      </set>
      <set comment="kpoint 7">
       <r>   -8.7256    1.0000 </r>
       <r>   -6.1897    1.0000 </r>
       <r>   -6.1791    1.0000 </r>
       <r>   -6.0373    1.0000 </r>
       <r>   -6.0123    1.0000 </r>
       <r>   -5.6831    1.0000 </r>
       <r>   -2.1924    1.0000 </r>
       <r>    0.3013    1.0000 </r>
       <r>    0.8439    1.0000 </r>
       <r>    4.5237    0.0000 </r>
       <r>    6.5090    0.0000 </r>
       <r>    7.7364    0.0000 </r>
       <r>    8.2951    0.0000 </r>
       <r>   10.5098    0.0000 </r>
       <r>   11.6840    0.0000 </r>
       <r>   12.1271    0.0000 </r>
       <r>   12.8984    0.0000 </r>
       <r>   13.6085    0.0000 </r>
       <r>   16.0655    0.0000 </r>
       <r>   16.8618    0.0000 </r>
       <r>   17.4684    0.0000 </r>
       <r>   18.5561    0.0000 </r>
       <r>   19.3750    0.0000 </r>
       <r>   19.7370    0.0000 </r>
      </set>
      <set comment="kpoint 8">
       <r>   -8.7553    1.0000 </r>
       <r>   -6.1918    1.0000 </r>
       <r>   -6.1908    1.0000 </r>
       <r>   -6.0261    1.0000 </r>
       <r>   -6.0249    1.0000 </r>
       <r>   -5.7563    1.0000 </r>
       <r>   -1.9479    1.0000 </r>
       <r>    0.1764    1.0000 </r>
       <r>    1.1243    1.0000 </r>
       <r>    4.5659    0.0000 </r>
       <r>    6.7591    0.0000 </r>
       <r>    7.4434    0.0000 </r>
       <r>    8.0403    0.0000 </r>
       <r>   10.2571    0.0000 </r>
       <r>   10.8823    0.0000 </r>
       <r>   12.0318    0.0000 </r>
       <r>   13.0664    0.0000 </r>
       <r>   14.8199    0.0000 </r>
       <r>   15.8926    0.0000 </r>
       <r>   15.9296    0.0000 </r>
       <r>   17.0715    0.0000 </r>
       <r>   18.7168    0.0000 </r>
       <r>   19.5574    0.0000 </r>
       <r>   20.4130    0.0000 </r>
      </set>
      <set comment="kpoint 9">
       <r>   -8.9073    1.0000 </r>
       <r>   -6.2240    1.0000 </r>
       <r>   -6.2109    1.0000 </r>
       <r>   -6.0643    1.0000 </r>
       <r>   -6.0317    1.0000 </r>
       <r>   -6.0008    1.0000 </r>
       <r>   -0.7958    1.0000 </r>
       <r>    0.6936    1.0000 </r>
       <r>    1.5476    1.0000 </r>
       <r>    4.3746    0.0000 </r>
       <r>    6.4711    0.0000 </r>
       <r>    6.9917    0.0000 </r>
       <r>    7.2907    0.0000 </r>
       <r>    9.5362    0.0000 </r>
       <r>   10.7026    0.0000 </r>
       <r>   11.4377    0.0000 </r>
       <r>   12.5633    0.0000 </r>
       <r>   13.7524    0.0000 </r>
       <r>   15.4423    0.0000 </r>
       <r>   15.8755    0.0000 </r>
       <r>   17.7774    0.0000 </r>
       <r>   18.6772    0.0000 </r>
       <r>   18.7887    0.0000 </r>
       <r>   19.3648    0.0000 </r>
      </set>
      <set comment="kpoint 10">
       <r>   -8.7565    1.0000 </r>
       <r>   -6.1525    1.0000 </r>
       <r>   -6.1525    1.0000 </r>
       <r>   -6.1022    1.0000 </r>
       <r>   -6.0021    1.0000 </r>
       <r>   -5.8456    1.0000 </r>
       <r>   -1.5252    1.0000 </r>
       <r>    0.4636    1.0000 </r>
       <r>    0.4636    1.0000 </r>
       <r>    4.5572    0.0000 </r>
       <r>    4.9386    0.0000 </r>
       <r>    9.0125    0.0000 </r>
       <r>    9.2178    0.0000 </r>
       <r>    9.2178    0.0000 </r>
       <r>   12.0572    0.0000 </r>
       <r>   13.5462    0.0000 </r>
       <r>   14.7039    0.0000 </r>
       <r>   14.7039    0.0000 </r>
       <r>   14.9197    0.0000 </r>
       <r>   15.2865    0.0000 </r>
       <r>   15.2865    0.0000 </r>
       <r>   16.6477    0.0000 </r>
       <r>   16.6897    0.0000 </r>
       <r>   21.0908    0.0000 </r>
      </set>
      <set comment="kpoint 11">
       <r>   -8.6689    1.0000 </r>
       <r>   -6.1502    1.0000 </r>
       <r>   -6.1334    1.0000 </r>
       <r>   -6.0816    1.0000 </r>
       <r>   -6.0030    1.0000 </r>
       <r>   -5.6234    1.0000 </r>
       <r>   -2.1008    1.0000 </r>
       <r>   -0.1674    1.0000 </r>
       <r>    0.3373    1.0000 </r>
       <r>    4.6378    0.0000 </r>
       <r>    5.4953    0.0000 </r>
       <r>    8.6827    0.0000 </r>
       <r>    9.4215    0.0000 </r>
       <r>   10.6921    0.0000 </r>
       <r>   12.4275    0.0000 </r>
       <r>   13.0974    0.0000 </r>
       <r>   13.7834    0.0000 </r>
       <r>   14.1189    0.0000 </r>
       <r>   15.9369    0.0000 </r>
       <r>   16.4441    0.0000 </r>
       <r>   16.8885    0.0000 </r>
       <r>   17.1177    0.0000 </r>
       <r>   17.8874    0.0000 </r>
       <r>   18.6662    0.0000 </r>
      </set>
      <set comment="kpoint 12">
       <r>   -8.6692    1.0000 </r>
       <r>   -6.1680    1.0000 </r>
       <r>   -6.1507    1.0000 </r>
       <r>   -6.0475    1.0000 </r>
       <r>   -6.0185    1.0000 </r>
       <r>   -5.5701    1.0000 </r>
       <r>   -2.1273    1.0000 </r>
       <r>   -0.6048    1.0000 </r>
       <r>    0.6296    1.0000 </r>
       <r>    4.8378    0.0000 </r>
       <r>    6.8477    0.0000 </r>
       <r>    8.6057    0.0000 </r>
       <r>    8.6790    0.0000 </r>
       <r>    9.2099    0.0000 </r>
       <r>   10.7727    0.0000 </r>
       <r>   13.8388    0.0000 </r>
       <r>   14.3670    0.0000 </r>
       <r>   15.0996    0.0000 </r>
       <r>   15.7094    0.0000 </r>
       <r>   15.9590    0.0000 </r>
       <r>   17.1925    0.0000 </r>
       <r>   18.8517    0.0000 </r>
       <r>   19.0666    0.0000 </r>
       <r>   19.2336    0.0000 </r>
      </set>
      <set comment="kpoint 13">
       <r>   -8.6400    1.0000 </r>
       <r>   -6.1152    1.0000 </r>
       <r>   -6.1126    1.0000 </r>
       <r>   -6.1126    1.0000 </r>
       <r>   -5.9951    1.0000 </r>
       <r>   -5.5825    1.0000 </r>
       <r>   -2.2938    1.0000 </r>
       <r>    0.1164    1.0000 </r>
       <r>    0.1164    1.0000 </r>
       <r>    4.4461    0.0000 </r>
       <r>    4.4776    0.0000 </r>
       <r>   10.3941    0.0000 </r>
       <r>   10.7499    0.0000 </r>
       <r>   10.7499    0.0000 </r>
       <r>   12.6234    0.0000 </r>
       <r>   13.2636    0.0000 </r>
       <r>   13.2636    0.0000 </r>
       <r>   13.5650    0.0000 </r>
       <r>   15.4500    0.0000 </r>
       <r>   17.0877    0.0000 </r>
       <r>   17.3907    0.0000 </r>
       <r>   17.3907    0.0000 </r>
       <r>   17.7550    0.0000 </r>
       <r>   17.8059    0.0000 </r>
      </set>
      <set comment="kpoint 14">
       <r>   -8.7269    1.0000 </r>
       <r>   -6.1737    1.0000 </r>
       <r>   -6.1663    1.0000 </r>
       <r>   -6.0596    1.0000 </r>
       <r>   -6.0115    1.0000 </r>
       <r>   -5.7342    1.0000 </r>
       <r>   -1.8042    1.0000 </r>
       <r>   -0.0891    1.0000 </r>
       <r>    0.6327    1.0000 </r>
       <r>    5.2858    0.0000 </r>
       <r>    5.9442    0.0000 </r>
       <r>    7.1113    0.0000 </r>
       <r>    9.1112    0.0000 </r>
       <r>    9.9151    0.0000 </r>
       <r>   11.9535    0.0000 </r>
       <r>   13.0797    0.0000 </r>
       <r>   13.2663    0.0000 </r>
       <r>   13.9433    0.0000 </r>
       <r>   15.5089    0.0000 </r>
       <r>   16.4709    0.0000 </r>
       <r>   16.9385    0.0000 </r>
       <r>   17.9475    0.0000 </r>
       <r>   19.3151    0.0000 </r>
       <r>   19.9042    0.0000 </r>
      </set>
      <set comment="kpoint 15">
       <r>   -8.6692    1.0000 </r>
       <r>   -6.1666    1.0000 </r>
       <r>   -6.1532    1.0000 </r>
       <r>   -6.0450    1.0000 </r>
       <r>   -6.0199    1.0000 </r>
       <r>   -5.5695    1.0000 </r>
       <r>   -2.1596    1.0000 </r>
       <r>   -0.3939    1.0000 </r>
       <r>    0.3660    1.0000 </r>
       <r>    5.4314    0.0000 </r>
       <r>    6.4368    0.0000 </r>
       <r>    7.4939    0.0000 </r>
       <r>    9.0396    0.0000 </r>
       <r>    9.6443    0.0000 </r>
       <r>   12.1553    0.0000 </r>
       <r>   12.8927    0.0000 </r>
       <r>   13.2932    0.0000 </r>
       <r>   15.4923    0.0000 </r>
       <r>   15.9699    0.0000 </r>
       <r>   16.2563    0.0000 </r>
       <r>   17.2152    0.0000 </r>
       <r>   18.0847    0.0000 </r>
       <r>   19.1486    0.0000 </r>
       <r>   19.6953    0.0000 </r>
      </set>
      <set comment="kpoint 16">
       <r>   -8.6410    1.0000 </r>
       <r>   -6.1411    1.0000 </r>
       <r>   -6.1398    1.0000 </r>
       <r>   -6.0660    1.0000 </r>
       <r>   -6.0111    1.0000 </r>
       <r>   -5.5275    1.0000 </r>
       <r>   -2.2065    1.0000 </r>
       <r>   -0.2245    1.0000 </r>
       <r>   -0.1266    1.0000 </r>
       <r>    5.4651    0.0000 </r>
       <r>    5.5962    0.0000 </r>
       <r>    8.4050    0.0000 </r>
       <r>    8.7041    0.0000 </r>
       <r>   11.1704    0.0000 </r>
       <r>   12.7617    0.0000 </r>
       <r>   13.0126    0.0000 </r>
       <r>   13.1228    0.0000 </r>
       <r>   15.5392    0.0000 </r>
       <r>   16.2958    0.0000 </r>
       <r>   16.8245    0.0000 </r>
       <r>   16.8513    0.0000 </r>
       <r>   16.9884    0.0000 </r>
       <r>   17.1503    0.0000 </r>
       <r>   19.8272    0.0000 </r>
      </set>
     </set>
     <set comment="spin 2">
      <set comment="kpoint 1">
       <r>   -9.1242    1.0000 </r>
       <r>   -6.2602    1.0000 </r>
       <r>   -6.2602    1.0000 </r>
       <r>   -6.2602    1.0000 </r>
       <r>   -6.0231    1.0000 </r>
       <r>   -6.0231    1.0000 </r>
       <r>    1.8748    1.0000 </r>
       <r>    1.8748    1.0000 </r>
       <r>    1.8748    1.0000 </r>
       <r>    2.4223    0.0000 </r>
       <r>    6.4430    0.0000 </r>
       <r>    6.4430    0.0000 </r>
       <r>    6.4430    0.0000 </r>
       <r>    9.1187    0.0000 </r>
       <r>   11.1492    0.0000 </r>
       <r>   11.1492    0.0000 </r>
       <r>   11.8471    0.0000 </r>
       <r>   11.8471    0.0000 </r>
       <r>   11.8471    0.0000 </r>
       <r>   14.0854    0.0000 </r>
       <r>   21.4106    0.0000 </r>
       <r>   21.4108    0.0000 </r>
       <r>   21.4146    0.0000 </r>
       <r>   22.1821    0.0000 </r>
      </set>
      <set comment="kpoint 2">
       <r>   -9.0313    1.0000 </r>
       <r>   -6.2433    1.0000 </r>
       <r>   -6.2433    1.0000 </r>
       <r>   -6.1820    1.0000 </r>
       <r>   -6.0242    1.0000 </r>
       <r>   -6.0242    1.0000 </r>
       <r>    0.1470    1.0000 </r>
       <r>    1.6613    1.0000 </r>
       <r>    1.6613    1.0000 </r>
       <r>    3.5639    0.0000 </r>
       <r>    6.4990    0.0000 </r>
       <r>    6.7664    0.0000 </r>
       <r>    6.7665    0.0000 </r>
       <r>   10.1258    0.0000 </r>
       <r>   10.2725    0.0000 </r>
       <r>   10.2725    0.0000 </r>
       <r>   11.4670    0.0000 </r>
       <r>   13.6094    0.0000 </r>
       <r>   13.6094    0.0000 </r>
       <r>   15.7753    0.0000 </r>
       <r>   18.7549    0.0000 </r>
       <r>   18.7549    0.0000 </r>
       <r>   19.1260    0.0000 </r>
       <r>   21.5753    0.0000 </r>
      </set>
      <set comment="kpoint 3">
       <r>   -8.8451    1.0000 </r>
       <r>   -6.2141    1.0000 </r>
       <r>   -6.2141    1.0000 </r>
       <r>   -6.0205    1.0000 </r>
       <r>   -6.0205    1.0000 </r>
       <r>   -5.9266    1.0000 </r>
       <r>   -1.6009    1.0000 </r>
       <r>    1.3025    1.0000 </r>
       <r>    1.3025    1.0000 </r>
       <r>    3.6708    0.0000 </r>
       <r>    7.0461    0.0000 </r>
       <r>    7.0461    0.0000 </r>
       <r>    7.9283    0.0000 </r>
       <r>    9.7912    0.0000 </r>
       <r>   10.6561    0.0000 </r>
       <r>   10.6561    0.0000 </r>
       <r>   13.7670    0.0000 </r>
       <r>   15.3945    0.0000 </r>
       <r>   15.3945    0.0000 </r>
       <r>   15.9477    0.0000 </r>
       <r>   16.4745    0.0000 </r>
       <r>   16.4745    0.0000 </r>
       <r>   18.9480    0.0000 </r>
       <r>   21.9595    0.0000 </r>
      </set>
      <set comment="kpoint 4">
       <r>   -8.7536    1.0000 </r>
       <r>   -6.2028    1.0000 </r>
       <r>   -6.2028    1.0000 </r>
       <r>   -6.0150    1.0000 </r>
       <r>   -6.0150    1.0000 </r>
       <r>   -5.7065    1.0000 </r>
       <r>   -2.3866    1.0000 </r>
       <r>    1.1463    1.0000 </r>
       <r>    1.1463    1.0000 </r>
       <r>    3.5686    0.0000 </r>
       <r>    7.0161    0.0000 </r>
       <r>    7.0161    0.0000 </r>
       <r>    8.7703    0.0000 </r>
       <r>   10.2582    0.0000 </r>
       <r>   12.0382    0.0000 </r>
       <r>   12.0382    0.0000 </r>
       <r>   12.9228    0.0000 </r>
       <r>   13.3401    0.0000 </r>
       <r>   13.3401    0.0000 </r>
       <r>   17.5314    0.0000 </r>
       <r>   19.0811    0.0000 </r>
       <r>   19.0812    0.0000 </r>
       <r>   19.6596    0.0000 </r>
       <r>   20.0310    0.0000 </r>
      </set>
      <set comment="kpoint 5">
       <r>   -9.0006    1.0000 </r>
       <r>   -6.2261    1.0000 </r>
       <r>   -6.2261    1.0000 </r>
       <r>   -6.1817    1.0000 </r>
       <r>   -6.0304    1.0000 </r>
       <r>   -6.0162    1.0000 </r>
       <r>    0.1229    1.0000 </r>
       <r>    1.3072    1.0000 </r>
       <r>    1.3072    1.0000 </r>
       <r>    4.1845    0.0000 </r>
       <r>    5.5469    0.0000 </r>
       <r>    7.3458    0.0000 </r>
       <r>    7.3458    0.0000 </r>
       <r>    8.9791    0.0000 </r>
       <r>   10.8401    0.0000 </r>
       <r>   11.3900    0.0000 </r>
       <r>   12.5870    0.0000 </r>
       <r>   12.5870    0.0000 </r>
       <r>   13.1620    0.0000 </r>
       <r>   16.7494    0.0000 </r>
       <r>   18.5429    0.0000 </r>
       <r>   18.5429    0.0000 </r>
       <r>   19.1353    0.0000 </r>
       <r>   19.7837    0.0000 </r>
      </set>
      <set comment="kpoint 6">
       <r>   -8.8465    1.0000 </r>
       <r>   -6.2032    1.0000 </r>
       <r>   -6.1932    1.0000 </r>
       <r>   -6.0667    1.0000 </r>
       <r>   -6.0108    1.0000 </r>
       <r>   -5.9510    1.0000 </r>
       <r>   -1.1828    1.0000 </r>
       <r>    0.8066    1.0000 </r>
       <r>    0.9216    1.0000 </r>
       <r>    4.5982    0.0000 </r>
       <r>    5.8414    0.0000 </r>
       <r>    7.5096    0.0000 </r>
       <r>    7.8968    0.0000 </r>
       <r>    9.6040    0.0000 </r>
       <r>   11.4768    0.0000 </r>
       <r>   11.5267    0.0000 </r>
       <r>   13.3221    0.0000 </r>
       <r>   14.4851    0.0000 </r>
       <r>   15.5453    0.0000 </r>
       <r>   15.5983    0.0000 </r>
       <r>   15.7971    0.0000 </r>
       <r>   18.7103    0.0000 </r>
       <r>   19.3113    0.0000 </r>
       <r>   19.5780    0.0000 </r>
      </set>
      <set comment="kpoint 7">
       <r>   -8.7259    1.0000 </r>
       <r>   -6.1898    1.0000 </r>
       <r>   -6.1792    1.0000 </r>
       <r>   -6.0374    1.0000 </r>
       <r>   -6.0123    1.0000 </r>
       <r>   -5.6832    1.0000 </r>
       <r>   -2.1926    1.0000 </r>
       <r>    0.3011    1.0000 </r>
       <r>    0.8436    1.0000 </r>
       <r>    4.5233    0.0000 </r>
       <r>    6.5086    0.0000 </r>
       <r>    7.7362    0.0000 </r>
       <r>    8.2946    0.0000 </r>
       <r>   10.5092    0.0000 </r>
       <r>   11.6837    0.0000 </r>
       <r>   12.1269    0.0000 </r>
       <r>   12.8980    0.0000 </r>
       <r>   13.6085    0.0000 </r>
       <r>   16.0653    0.0000 </r>
       <r>   16.8611    0.0000 </r>
       <r>   17.4682    0.0000 </r>
       <r>   18.5558    0.0000 </r>
       <r>   19.3745    0.0000 </r>
       <r>   19.7369    0.0000 </r>
      </set>
      <set comment="kpoint 8">
       <r>   -8.7556    1.0000 </r>
       <r>   -6.1919    1.0000 </r>
       <r>   -6.1908    1.0000 </r>
       <r>   -6.0261    1.0000 </r>
       <r>   -6.0249    1.0000 </r>
       <r>   -5.7563    1.0000 </r>
       <r>   -1.9481    1.0000 </r>
       <r>    0.1762    1.0000 </r>
       <r>    1.1240    1.0000 </r>
       <r>    4.5656    0.0000 </r>
       <r>    6.7587    0.0000 </r>
       <r>    7.4432    0.0000 </r>
       <r>    8.0397    0.0000 </r>
       <r>   10.2570    0.0000 </r>
       <r>   10.8817    0.0000 </r>
       <r>   12.0315    0.0000 </r>
       <r>   13.0661    0.0000 </r>
       <r>   14.8194    0.0000 </r>
       <r>   15.8925    0.0000 </r>
       <r>   15.9292    0.0000 </r>
       <r>   17.0711    0.0000 </r>
       <r>   18.7167    0.0000 </r>
       <r>   19.5573    0.0000 </r>
       <r>   20.4122    0.0000 </r>
      </set>
      <set comment="kpoint 9">
       <r>   -8.9076    1.0000 </r>
       <r>   -6.2240    1.0000 </r>
       <r>   -6.2109    1.0000 </r>
       <r>   -6.0644    1.0000 </r>
       <r>   -6.0318    1.0000 </r>
       <r>   -6.0008    1.0000 </r>
       <r>   -0.7960    1.0000 </r>
       <r>    0.6933    1.0000 </r>
       <r>    1.5473    1.0000 </r>
       <r>    4.3743    0.0000 </r>
       <r>    6.4708    0.0000 </r>
       <r>    6.9915    0.0000 </r>
       <r>    7.2902    0.0000 </r>
       <r>    9.5362    0.0000 </r>
       <r>   10.7022    0.0000 </r>
       <r>   11.4370    0.0000 </r>
       <r>   12.5627    0.0000 </r>
       <r>   13.7521    0.0000 </r>
       <r>   15.4421    0.0000 </r>
       <r>   15.8752    0.0000 </r>
       <r>   17.7761    0.0000 </r>
       <r>   18.6768    0.0000 </r>
       <r>   18.7885    0.0000 </r>
       <r>   19.3648    0.0000 </r>
      </set>
      <set comment="kpoint 10">
       <r>   -8.7568    1.0000 </r>
       <r>   -6.1525    1.0000 </r>
       <r>   -6.1525    1.0000 </r>
       <r>   -6.1022    1.0000 </r>
       <r>   -6.0021    1.0000 </r>
       <r>   -5.8457    1.0000 </r>
       <r>   -1.5255    1.0000 </r>
       <r>    0.4633    1.0000 </r>
       <r>    0.4633    1.0000 </r>
       <r>    4.5567    0.0000 </r>
       <r>    4.9381    0.0000 </r>
       <r>    9.0123    0.0000 </r>
       <r>    9.2175    0.0000 </r>
       <r>    9.2175    0.0000 </r>
       <r>   12.0570    0.0000 </r>
       <r>   13.5452    0.0000 </r>
       <r>   14.7038    0.0000 </r>
       <r>   14.7038    0.0000 </r>
       <r>   14.9187    0.0000 </r>
       <r>   15.2863    0.0000 </r>
       <r>   15.2863    0.0000 </r>
       <r>   16.6480    0.0000 </r>
       <r>   16.6894    0.0000 </r>
       <r>   21.0932    0.0000 </r>
      </set>
      <set comment="kpoint 11">
       <r>   -8.6692    1.0000 </r>
       <r>   -6.1502    1.0000 </r>
       <r>   -6.1334    1.0000 </r>
       <r>   -6.0816    1.0000 </r>
       <r>   -6.0030    1.0000 </r>
       <r>   -5.6234    1.0000 </r>
       <r>   -2.1010    1.0000 </r>
       <r>   -0.1677    1.0000 </r>
       <r>    0.3370    1.0000 </r>
       <r>    4.6373    0.0000 </r>
       <r>    5.4948    0.0000 </r>
       <r>    8.6824    0.0000 </r>
       <r>    9.4212    0.0000 </r>
       <r>   10.6918    0.0000 </r>
       <r>   12.4272    0.0000 </r>
       <r>   13.0969    0.0000 </r>
       <r>   13.7834    0.0000 </r>
       <r>   14.1183    0.0000 </r>
       <r>   15.9364    0.0000 </r>
       <r>   16.4439    0.0000 </r>
       <r>   16.8878    0.0000 </r>
       <r>   17.1177    0.0000 </r>
       <r>   17.8869    0.0000 </r>
       <r>   18.6655    0.0000 </r>
      </set>
      <set comment="kpoint 12">
       <r>   -8.6695    1.0000 </r>
       <r>   -6.1680    1.0000 </r>
       <r>   -6.1507    1.0000 </r>
       <r>   -6.0476    1.0000 </r>
       <r>   -6.0185    1.0000 </r>
       <r>   -5.5701    1.0000 </r>
       <r>   -2.1275    1.0000 </r>
       <r>   -0.6051    1.0000 </r>
       <r>    0.6293    1.0000 </r>
       <r>    4.8373    0.0000 </r>
       <r>    6.8471    0.0000 </r>
       <r>    8.6055    0.0000 </r>
       <r>    8.6787    0.0000 </r>
       <r>    9.2096    0.0000 </r>
       <r>   10.7726    0.0000 </r>
       <r>   13.8382    0.0000 </r>
       <r>   14.3665    0.0000 </r>
       <r>   15.0991    0.0000 </r>
       <r>   15.7092    0.0000 </r>
       <r>   15.9587    0.0000 </r>
       <r>   17.1925    0.0000 </r>
       <r>   18.8517    0.0000 </r>
       <r>   19.0661    0.0000 </r>
       <r>   19.2327    0.0000 </r>
      </set>
      <set comment="kpoint 13">
       <r>   -8.6402    1.0000 </r>
       <r>   -6.1152    1.0000 </r>
       <r>   -6.1126    1.0000 </r>
       <r>   -6.1126    1.0000 </r>
       <r>   -5.9951    1.0000 </r>
       <r>   -5.5826    1.0000 </r>
       <r>   -2.2940    1.0000 </r>
       <r>    0.1162    1.0000 </r>
       <r>    0.1162    1.0000 </r>
       <r>    4.4456    0.0000 </r>
       <r>    4.4771    0.0000 </r>
       <r>   10.3938    0.0000 </r>
       <r>   10.7497    0.0000 </r>
       <r>   10.7497    0.0000 </r>
       <r>   12.6230    0.0000 </r>
       <r>   13.2634    0.0000 </r>
       <r>   13.2634    0.0000 </r>
       <r>   13.5644    0.0000 </r>
       <r>   15.4504    0.0000 </r>
       <r>   17.0862    0.0000 </r>
       <r>   17.3903    0.0000 </r>
       <r>   17.3903    0.0000 </r>
       <r>   17.7544    0.0000 </r>
       <r>   17.8053    0.0000 </r>
      </set>
      <set comment="kpoint 14">
       <r>   -8.7272    1.0000 </r>
       <r>   -6.1738    1.0000 </r>
       <r>   -6.1664    1.0000 </r>
       <r>   -6.0596    1.0000 </r>
       <r>   -6.0115    1.0000 </r>
       <r>   -5.7343    1.0000 </r>
       <r>   -1.8045    1.0000 </r>
       <r>   -0.0894    1.0000 </r>
       <r>    0.6324    1.0000 </r>
       <r>    5.2854    0.0000 </r>
       <r>    5.9438    0.0000 </r>
       <r>    7.1109    0.0000 </r>
       <r>    9.1109    0.0000 </r>
       <r>    9.9149    0.0000 </r>
       <r>   11.9532    0.0000 </r>
       <r>   13.0793    0.0000 </r>
       <r>   13.2657    0.0000 </r>
       <r>   13.9429    0.0000 </r>
       <r>   15.5086    0.0000 </r>
       <r>   16.4708    0.0000 </r>
       <r>   16.9381    0.0000 </r>
       <r>   17.9471    0.0000 </r>
       <r>   19.3146    0.0000 </r>
       <r>   19.8425    0.0000 </r>
      </set>
      <set comment="kpoint 15">
       <r>   -8.6695    1.0000 </r>
       <r>   -6.1666    1.0000 </r>
       <r>   -6.1532    1.0000 </r>
       <r>   -6.0451    1.0000 </r>
       <r>   -6.0200    1.0000 </r>
       <r>   -5.5696    1.0000 </r>
       <r>   -2.1599    1.0000 </r>
       <r>   -0.3941    1.0000 </r>
       <r>    0.3657    1.0000 </r>
       <r>    5.4309    0.0000 </r>
       <r>    6.4362    0.0000 </r>
       <r>    7.4935    0.0000 </r>
       <r>    9.0393    0.0000 </r>
       <r>    9.6441    0.0000 </r>
       <r>   12.1553    0.0000 </r>
       <r>   12.8923    0.0000 </r>
       <r>   13.2926    0.0000 </r>
       <r>   15.4921    0.0000 </r>
       <r>   15.9697    0.0000 </r>
       <r>   16.2556    0.0000 </r>
       <r>   17.2148    0.0000 </r>
       <r>   18.0847    0.0000 </r>
       <r>   19.1481    0.0000 </r>
       <r>   19.6950    0.0000 </r>
      </set>
      <set comment="kpoint 16">
       <r>   -8.6413    1.0000 </r>
       <r>   -6.1412    1.0000 </r>
       <r>   -6.1398    1.0000 </r>
       <r>   -6.0661    1.0000 </r>
       <r>   -6.0111    1.0000 </r>
       <r>   -5.5276    1.0000 </r>
       <r>   -2.2067    1.0000 </r>
       <r>   -0.2247    1.0000 </r>
       <r>   -0.1269    1.0000 </r>
       <r>    5.4647    0.0000 </r>
       <r>    5.5957    0.0000 </r>
       <r>    8.4047    0.0000 </r>
       <r>    8.7037    0.0000 </r>
       <r>   11.1702    0.0000 </r>
       <r>   12.7612    0.0000 </r>
       <r>   13.0128    0.0000 </r>
       <r>   13.1224    0.0000 </r>
       <r>   15.5381    0.0000 </r>
       <r>   16.2956    0.0000 </r>
       <r>   16.8242    0.0000 </r>
       <r>   16.8510    0.0000 </r>
       <r>   16.9882    0.0000 </r>
       <r>   17.1501    0.0000 </r>
       <r>   19.8375    0.0000 </r>
      </set>
     </set>
    </set>
   </array>
  </eigenvalues>
  <separator name="orbital magnetization" >
   <v name="MAGDIPOLOUT">      0.00000000      0.00000000      0.00000000</v>
  </separator>
  <dos>
   <i name="efermi">      1.95414336 </i>
   <total>
    <array>
     <dimension dim="1">gridpoints</dimension>
     <dimension dim="2">spin</dimension>
     <field>energy</field>
     <field>total</field>
     <field>integrated</field>
     <set>
      <set comment="spin 1">
       <r>   -11.1242     0.0000     0.0000 </r>
       <r>   -11.0065     0.0000     0.0000 </r>
       <r>   -10.8888     0.0000     0.0000 </r>
       <r>   -10.7712     0.0000     0.0000 </r>
       <r>   -10.6535     0.0000     0.0000 </r>
       <r>   -10.5358     0.0000     0.0000 </r>
       <r>   -10.4181     0.0000     0.0000 </r>
       <r>   -10.3004     0.0000     0.0000 </r>
       <r>   -10.1827     0.0000     0.0000 </r>
       <r>   -10.0650     0.0000     0.0000 </r>
       <r>    -9.9473     0.0000     0.0000 </r>
       <r>    -9.8296     0.0000     0.0000 </r>
       <r>    -9.7119     0.0000     0.0000 </r>
       <r>    -9.5943     0.0000     0.0000 </r>
       <r>    -9.4766     0.0000     0.0000 </r>
       <r>    -9.3589     0.0000     0.0000 </r>
       <r>    -9.2412     0.0000     0.0000 </r>
       <r>    -9.1235     0.0000     0.0000 </r>
       <r>    -9.0058     0.4912     0.0256 </r>
       <r>    -8.8881     1.0676     0.1142 </r>
       <r>    -8.7704     2.9223     0.3344 </r>
       <r>    -8.6527     7.4651     0.9709 </r>
       <r>    -8.5350     0.0000     1.0000 </r>
       <r>    -8.4173     0.0000     1.0000 </r>
       <r>    -8.2997     0.0000     1.0000 </r>
       <r>    -8.1820     0.0000     1.0000 </r>
       <r>    -8.0643     0.0000     1.0000 </r>
       <r>    -7.9466     0.0000     1.0000 </r>
       <r>    -7.8289     0.0000     1.0000 </r>
       <r>    -7.7112     0.0000     1.0000 </r>
       <r>    -7.5935     0.0000     1.0000 </r>
       <r>    -7.4758     0.0000     1.0000 </r>
       <r>    -7.3581     0.0000     1.0000 </r>
       <r>    -7.2404     0.0000     1.0000 </r>
       <r>    -7.1227     0.0000     1.0000 </r>
       <r>    -7.0051     0.0000     1.0000 </r>
       <r>    -6.8874     0.0000     1.0000 </r>
       <r>    -6.7697     0.0000     1.0000 </r>
       <r>    -6.6520     0.0000     1.0000 </r>
       <r>    -6.5343     0.0000     1.0000 </r>
       <r>    -6.4166     0.0000     1.0000 </r>
       <r>    -6.2989     0.0000     1.0000 </r>
       <r>    -6.1812    31.6030     1.9322 </r>
       <r>    -6.0635    22.1271     3.3706 </r>
       <r>    -5.9458    12.7119     5.1502 </r>
       <r>    -5.8282     1.3531     5.2901 </r>
       <r>    -5.7105     3.0604     5.5002 </r>
       <r>    -5.5928     3.5779     5.8560 </r>
       <r>    -5.4751     0.3147     6.0000 </r>
       <r>    -5.3574     0.0000     6.0000 </r>
       <r>    -5.2397     0.0000     6.0000 </r>
       <r>    -5.1220     0.0000     6.0000 </r>
       <r>    -5.0043     0.0000     6.0000 </r>
       <r>    -4.8866     0.0000     6.0000 </r>
       <r>    -4.7689     0.0000     6.0000 </r>
       <r>    -4.6512     0.0000     6.0000 </r>
       <r>    -4.5336     0.0000     6.0000 </r>
       <r>    -4.4159     0.0000     6.0000 </r>
       <r>    -4.2982     0.0000     6.0000 </r>
       <r>    -4.1805     0.0000     6.0000 </r>
       <r>    -4.0628     0.0000     6.0000 </r>
       <r>    -3.9451     0.0000     6.0000 </r>
       <r>    -3.8274     0.0000     6.0000 </r>
       <r>    -3.7097     0.0000     6.0000 </r>
       <r>    -3.5920     0.0000     6.0000 </r>
       <r>    -3.4743     0.0000     6.0000 </r>
       <r>    -3.3566     0.0000     6.0000 </r>
       <r>    -3.2390     0.0000     6.0000 </r>
       <r>    -3.1213     0.0000     6.0000 </r>
       <r>    -3.0036     0.0000     6.0000 </r>
       <r>    -2.8859     0.0000     6.0000 </r>
       <r>    -2.7682     0.0000     6.0000 </r>
       <r>    -2.6505     0.0000     6.0000 </r>
       <r>    -2.5328     0.0000     6.0000 </r>
       <r>    -2.4151     0.0000     6.0000 </r>
       <r>    -2.2974     0.0664     6.0020 </r>
       <r>    -2.1797     2.2582     6.0603 </r>
       <r>    -2.0621     1.6038     6.3904 </r>
       <r>    -1.9444     0.9898     6.5399 </r>
       <r>    -1.8267     0.4879     6.6205 </r>
       <r>    -1.7090     0.4227     6.6734 </r>
       <r>    -1.5913     0.3757     6.7204 </r>
       <r>    -1.4736     0.3322     6.7620 </r>
       <r>    -1.3559     0.2860     6.7984 </r>
       <r>    -1.2382     0.2362     6.8292 </r>
       <r>    -1.1205     0.1870     6.8540 </r>
       <r>    -1.0028     0.1503     6.8737 </r>
       <r>    -0.8851     0.1263     6.8899 </r>
       <r>    -0.7675     0.1145     6.9039 </r>
       <r>    -0.6498     0.1065     6.9169 </r>
       <r>    -0.5321     0.1686     6.9307 </r>
       <r>    -0.4144     0.5695     6.9706 </r>
       <r>    -0.2967     1.0691     7.0723 </r>
       <r>    -0.1790     1.3579     7.2019 </r>
       <r>    -0.0613     0.9040     7.3321 </r>
       <r>     0.0564     0.9605     7.4402 </r>
       <r>     0.1741     1.1315     7.5633 </r>
       <r>     0.2918     1.2460     7.7043 </r>
       <r>     0.4095     1.3010     7.8549 </r>
       <r>     0.5271     1.2976     8.0083 </r>
       <r>     0.6448     1.2524     8.1585 </r>
       <r>     0.7625     1.2313     8.3042 </r>
       <r>     0.8802     1.2153     8.4487 </r>
       <r>     0.9979     1.1699     8.5900 </r>
       <r>     1.1156     0.9994     8.7190 </r>
       <r>     1.2333     0.6332     8.8147 </r>
       <r>     1.3510     0.4649     8.8776 </r>
       <r>     1.4687     0.3730     8.9265 </r>
       <r>     1.5864     0.3060     8.9667 </r>
       <r>     1.7041     0.1260     8.9928 </r>
       <r>     1.8217     0.0122     8.9998 </r>
       <r>     1.9394     0.0000     9.0000 </r>
       <r>     2.0571     0.0000     9.0000 </r>
       <r>     2.1748     0.0000     9.0000 </r>
       <r>     2.2925     0.0000     9.0000 </r>
       <r>     2.4102     0.0000     9.0000 </r>
       <r>     2.5279     0.0003     9.0000 </r>
       <r>     2.6456     0.0012     9.0001 </r>
       <r>     2.7633     0.0028     9.0003 </r>
       <r>     2.8810     0.0051     9.0008 </r>
       <r>     2.9986     0.0080     9.0015 </r>
       <r>     3.1163     0.0116     9.0027 </r>
       <r>     3.2340     0.0159     9.0043 </r>
       <r>     3.3517     0.0209     9.0065 </r>
       <r>     3.4694     0.0265     9.0092 </r>
       <r>     3.5871     0.0353     9.0128 </r>
       <r>     3.7048     0.0927     9.0198 </r>
       <r>     3.8225     0.1639     9.0349 </r>
       <r>     3.9402     0.2299     9.0581 </r>
       <r>     4.0579     0.2908     9.0888 </r>
       <r>     4.1756     0.3465     9.1264 </r>
       <r>     4.2932     0.4087     9.1706 </r>
       <r>     4.4109     0.4926     9.2234 </r>
       <r>     4.5286     0.7111     9.2904 </r>
       <r>     4.6463     1.1616     9.4102 </r>
       <r>     4.7640     1.1268     9.5463 </r>
       <r>     4.8817     0.9580     9.6699 </r>
       <r>     4.9994     0.7910     9.7724 </r>
       <r>     5.1171     0.6658     9.8577 </r>
       <r>     5.2348     0.5830     9.9308 </r>
       <r>     5.3525     0.5701     9.9972 </r>
       <r>     5.4702     0.4198    10.0786 </r>
       <r>     5.5878     0.3696    10.1161 </r>
       <r>     5.7055     0.4364    10.1635 </r>
       <r>     5.8232     0.5103    10.2191 </r>
       <r>     5.9409     0.6031    10.2848 </r>
       <r>     6.0586     0.6748    10.3600 </r>
       <r>     6.1763     0.7463    10.4436 </r>
       <r>     6.2940     0.8174    10.5356 </r>
       <r>     6.4117     0.8884    10.6360 </r>
       <r>     6.5294     1.1088    10.7525 </r>
       <r>     6.6471     0.9028    10.8718 </r>
       <r>     6.7647     0.5981    10.9613 </r>
       <r>     6.8824     0.4342    11.0174 </r>
       <r>     7.0001     0.4144    11.0674 </r>
       <r>     7.1178     0.6261    11.1245 </r>
       <r>     7.2355     0.9238    11.2166 </r>
       <r>     7.3532     1.1368    11.3387 </r>
       <r>     7.4709     1.2450    11.4798 </r>
       <r>     7.5886     1.1592    11.6232 </r>
       <r>     7.7063     0.8464    11.7436 </r>
       <r>     7.8240     0.7226    11.8308 </r>
       <r>     7.9417     0.7678    11.9163 </r>
       <r>     8.0593     0.7951    12.0110 </r>
       <r>     8.1770     0.8051    12.1038 </r>
       <r>     8.2947     0.9502    12.2058 </r>
       <r>     8.4124     0.8190    12.3098 </r>
       <r>     8.5301     0.7517    12.4014 </r>
       <r>     8.6478     0.6936    12.4888 </r>
       <r>     8.7655     0.7017    12.5616 </r>
       <r>     8.8832     0.8690    12.6554 </r>
       <r>     9.0009     0.8985    12.7607 </r>
       <r>     9.1186     0.5517    12.8484 </r>
       <r>     9.2363     0.4820    12.9077 </r>
       <r>     9.3539     0.4501    12.9629 </r>
       <r>     9.4716     0.4804    13.0146 </r>
       <r>     9.5893     0.7588    13.0834 </r>
       <r>     9.7070     1.0254    13.1936 </r>
       <r>     9.8247     1.0136    13.3152 </r>
       <r>     9.9424     1.0081    13.4335 </r>
       <r>    10.0601     0.9832    13.5513 </r>
       <r>    10.1778     0.9039    13.6626 </r>
       <r>    10.2955     0.8490    13.7628 </r>
       <r>    10.4132     0.7769    13.8619 </r>
       <r>    10.5309     0.4563    13.9329 </r>
       <r>    10.6485     0.4824    13.9878 </r>
       <r>    10.7662     0.7091    14.0585 </r>
       <r>    10.8839     0.7292    14.1418 </r>
       <r>    11.0016     0.6762    14.2240 </r>
       <r>    11.1193     0.6732    14.3029 </r>
       <r>    11.2370     0.7164    14.3844 </r>
       <r>    11.3547     0.7719    14.4719 </r>
       <r>    11.4724     1.0224    14.5738 </r>
       <r>    11.5901     0.8938    14.6815 </r>
       <r>    11.7078     0.9540    14.7917 </r>
       <r>    11.8254     0.8947    14.9004 </r>
       <r>    11.9431     0.8539    15.0030 </r>
       <r>    12.0608     1.3074    15.1095 </r>
       <r>    12.1785     0.9082    15.2426 </r>
       <r>    12.2962     0.8698    15.3473 </r>
       <r>    12.4139     0.8196    15.4469 </r>
       <r>    12.5316     0.8260    15.5451 </r>
       <r>    12.6493     0.6151    15.6316 </r>
       <r>    12.7670     0.5237    15.6958 </r>
       <r>    12.8847     0.6069    15.7621 </r>
       <r>    13.0024     1.8742    15.9483 </r>
       <r>    13.1200     2.2519    16.2003 </r>
       <r>    13.2377     2.0174    16.4429 </r>
       <r>    13.3554     1.3478    16.6399 </r>
       <r>    13.4731     1.0695    16.7810 </r>
       <r>    13.5908     0.9066    16.8963 </r>
       <r>    13.7085     0.7244    16.9920 </r>
       <r>    13.8262     0.6683    17.0723 </r>
       <r>    13.9439     0.7575    17.1551 </r>
       <r>    14.0616     0.9311    17.2539 </r>
       <r>    14.1793     1.0198    17.3722 </r>
       <r>    14.2970     0.9761    17.4899 </r>
       <r>    14.4146     0.9086    17.6011 </r>
       <r>    14.5323     0.7758    17.7015 </r>
       <r>    14.6500     0.6566    17.7848 </r>
       <r>    14.7677     0.6204    17.8596 </r>
       <r>    14.8854     0.5683    17.9301 </r>
       <r>    15.0031     0.5020    17.9930 </r>
       <r>    15.1208     0.4528    18.0490 </r>
       <r>    15.2385     0.4415    18.1011 </r>
       <r>    15.3562     0.4856    18.1549 </r>
       <r>    15.4739     0.8450    18.2237 </r>
       <r>    15.5915     1.1503    18.3657 </r>
       <r>    15.7092     1.5482    18.5103 </r>
       <r>    15.8269     2.4477    18.7457 </r>
       <r>    15.9446     2.7382    19.0551 </r>
       <r>    16.0623     1.4362    19.3149 </r>
       <r>    16.1800     1.2704    19.4703 </r>
       <r>    16.2977     1.2427    19.6183 </r>
       <r>    16.4154     1.4058    19.7729 </r>
       <r>    16.5331     1.2847    19.9427 </r>
       <r>    16.6508     0.9033    20.0702 </r>
       <r>    16.7685     0.6573    20.1607 </r>
       <r>    16.8861     1.6294    20.2435 </r>
       <r>    17.0038     1.4512    20.4088 </r>
       <r>    17.1215     2.2349    20.6311 </r>
       <r>    17.2392     1.3084    20.8526 </r>
       <r>    17.3569     0.8095    20.9743 </r>
       <r>    17.4746     0.5782    21.0537 </r>
       <r>    17.5923     0.6397    21.1251 </r>
       <r>    17.7100     0.7258    21.2052 </r>
       <r>    17.8277     0.7642    21.2952 </r>
       <r>    17.9454     0.6758    21.3770 </r>
       <r>    18.0631     0.7469    21.4598 </r>
       <r>    18.1807     0.8519    21.5540 </r>
       <r>    18.2984     0.9758    21.6613 </r>
       <r>    18.4161     1.1253    21.7847 </r>
       <r>    18.5338     1.3005    21.9272 </r>
       <r>    18.6515     1.8620    22.1051 </r>
       <r>    18.7692     0.5779    22.2668 </r>
       <r>    18.8869     0.5863    22.3303 </r>
       <r>    19.0046     0.9539    22.4191 </r>
       <r>    19.1223     1.5159    22.5587 </r>
       <r>    19.2400     1.5908    22.7407 </r>
       <r>    19.3576     1.9742    22.9463 </r>
       <r>    19.4753     1.2943    23.1380 </r>
       <r>    19.5930     1.0220    23.2695 </r>
       <r>    19.7107     1.1526    23.3877 </r>
       <r>    19.8284     1.1059    23.5457 </r>
       <r>    19.9461     0.8343    23.6570 </r>
       <r>    20.0638     0.6260    23.7431 </r>
       <r>    20.1815     0.4408    23.8055 </r>
       <r>    20.2992     0.2993    23.8486 </r>
       <r>    20.4169     0.2030    23.8777 </r>
       <r>    20.5346     0.1737    23.8998 </r>
       <r>    20.6522     0.1476    23.9187 </r>
       <r>    20.7699     0.1246    23.9347 </r>
       <r>    20.8876     0.1049    23.9481 </r>
       <r>    21.0053     0.0885    23.9595 </r>
       <r>    21.1230     0.0751    23.9691 </r>
       <r>    21.2407     0.0635    23.9772 </r>
       <r>    21.3584     0.0529    23.9841 </r>
       <r>    21.4761     0.0435    23.9897 </r>
       <r>    21.5938     0.0335    23.9943 </r>
       <r>    21.7115     0.0193    23.9974 </r>
       <r>    21.8292     0.0093    23.9990 </r>
       <r>    21.9468     0.0035    23.9997 </r>
       <r>    22.0645     0.0009    24.0000 </r>
       <r>    22.1822     0.0000    24.0000 </r>
       <r>    22.2999     0.0000    24.0000 </r>
       <r>    22.4176     0.0000    24.0000 </r>
       <r>    22.5353     0.0000    24.0000 </r>
       <r>    22.6530     0.0000    24.0000 </r>
       <r>    22.7707     0.0000    24.0000 </r>
       <r>    22.8884     0.0000    24.0000 </r>
       <r>    23.0061     0.0000    24.0000 </r>
       <r>    23.1238     0.0000    24.0000 </r>
       <r>    23.2414     0.0000    24.0000 </r>
       <r>    23.3591     0.0000    24.0000 </r>
       <r>    23.4768     0.0000    24.0000 </r>
       <r>    23.5945     0.0000    24.0000 </r>
       <r>    23.7122     0.0000    24.0000 </r>
       <r>    23.8299     0.0000    24.0000 </r>
       <r>    23.9476     0.0000    24.0000 </r>
       <r>    24.0653     0.0000    24.0000 </r>
       <r>    24.1830     0.0000    24.0000 </r>
      </set>
      <set comment="spin 2">
       <r>   -11.1242     0.0000     0.0000 </r>
       <r>   -11.0065     0.0000     0.0000 </r>
       <r>   -10.8888     0.0000     0.0000 </r>
       <r>   -10.7712     0.0000     0.0000 </r>
       <r>   -10.6535     0.0000     0.0000 </r>
       <r>   -10.5358     0.0000     0.0000 </r>
       <r>   -10.4181     0.0000     0.0000 </r>
       <r>   -10.3004     0.0000     0.0000 </r>
       <r>   -10.1827     0.0000     0.0000 </r>
       <r>   -10.0650     0.0000     0.0000 </r>
       <r>    -9.9473     0.0000     0.0000 </r>
       <r>    -9.8296     0.0000     0.0000 </r>
       <r>    -9.7119     0.0000     0.0000 </r>
       <r>    -9.5943     0.0000     0.0000 </r>
       <r>    -9.4766     0.0000     0.0000 </r>
       <r>    -9.3589     0.0000     0.0000 </r>
       <r>    -9.2412     0.0000     0.0000 </r>
       <r>    -9.1235     0.0000     0.0000 </r>
       <r>    -9.0058     0.4922     0.0257 </r>
       <r>    -8.8881     1.0699     0.1145 </r>
       <r>    -8.7704     2.9280     0.3352 </r>
       <r>    -8.6527     7.3624     0.9722 </r>
       <r>    -8.5350     0.0000     1.0000 </r>
       <r>    -8.4173     0.0000     1.0000 </r>
       <r>    -8.2997     0.0000     1.0000 </r>
       <r>    -8.1820     0.0000     1.0000 </r>
       <r>    -8.0643     0.0000     1.0000 </r>
       <r>    -7.9466     0.0000     1.0000 </r>
       <r>    -7.8289     0.0000     1.0000 </r>
       <r>    -7.7112     0.0000     1.0000 </r>
       <r>    -7.5935     0.0000     1.0000 </r>
       <r>    -7.4758     0.0000     1.0000 </r>
       <r>    -7.3581     0.0000     1.0000 </r>
       <r>    -7.2404     0.0000     1.0000 </r>
       <r>    -7.1227     0.0000     1.0000 </r>
       <r>    -7.0051     0.0000     1.0000 </r>
       <r>    -6.8874     0.0000     1.0000 </r>
       <r>    -6.7697     0.0000     1.0000 </r>
       <r>    -6.6520     0.0000     1.0000 </r>
       <r>    -6.5343     0.0000     1.0000 </r>
       <r>    -6.4166     0.0000     1.0000 </r>
       <r>    -6.2989     0.0000     1.0000 </r>
       <r>    -6.1812    31.5973     1.9333 </r>
       <r>    -6.0635    22.0842     3.3712 </r>
       <r>    -5.9458    12.7113     5.1503 </r>
       <r>    -5.8282     1.3534     5.2902 </r>
       <r>    -5.7105     3.0633     5.5003 </r>
       <r>    -5.5928     3.5769     5.8563 </r>
       <r>    -5.4751     0.3147     6.0000 </r>
       <r>    -5.3574     0.0000     6.0000 </r>
       <r>    -5.2397     0.0000     6.0000 </r>
       <r>    -5.1220     0.0000     6.0000 </r>
       <r>    -5.0043     0.0000     6.0000 </r>
       <r>    -4.8866     0.0000     6.0000 </r>
       <r>    -4.7689     0.0000     6.0000 </r>
       <r>    -4.6512     0.0000     6.0000 </r>
       <r>    -4.5336     0.0000     6.0000 </r>
       <r>    -4.4159     0.0000     6.0000 </r>
       <r>    -4.2982     0.0000     6.0000 </r>
       <r>    -4.1805     0.0000     6.0000 </r>
       <r>    -4.0628     0.0000     6.0000 </r>
       <r>    -3.9451     0.0000     6.0000 </r>
       <r>    -3.8274     0.0000     6.0000 </r>
       <r>    -3.7097     0.0000     6.0000 </r>
       <r>    -3.5920     0.0000     6.0000 </r>
       <r>    -3.4743     0.0000     6.0000 </r>
       <r>    -3.3566     0.0000     6.0000 </r>
       <r>    -3.2390     0.0000     6.0000 </r>
       <r>    -3.1213     0.0000     6.0000 </r>
       <r>    -3.0036     0.0000     6.0000 </r>
       <r>    -2.8859     0.0000     6.0000 </r>
       <r>    -2.7682     0.0000     6.0000 </r>
       <r>    -2.6505     0.0000     6.0000 </r>
       <r>    -2.5328     0.0000     6.0000 </r>
       <r>    -2.4151     0.0000     6.0000 </r>
       <r>    -2.2974     0.0668     6.0020 </r>
       <r>    -2.1797     2.2764     6.0608 </r>
       <r>    -2.0621     1.6021     6.3908 </r>
       <r>    -1.9444     0.9881     6.5401 </r>
       <r>    -1.8267     0.4876     6.6206 </r>
       <r>    -1.7090     0.4226     6.6736 </r>
       <r>    -1.5913     0.3756     6.7205 </r>
       <r>    -1.4736     0.3321     6.7621 </r>
       <r>    -1.3559     0.2859     6.7985 </r>
       <r>    -1.2382     0.2361     6.8293 </r>
       <r>    -1.1205     0.1869     6.8540 </r>
       <r>    -1.0028     0.1503     6.8738 </r>
       <r>    -0.8851     0.1263     6.8899 </r>
       <r>    -0.7675     0.1145     6.9040 </r>
       <r>    -0.6498     0.1065     6.9170 </r>
       <r>    -0.5321     0.1691     6.9308 </r>
       <r>    -0.4144     0.5709     6.9707 </r>
       <r>    -0.2967     1.0695     7.0726 </r>
       <r>    -0.1790     1.3614     7.2023 </r>
       <r>    -0.0613     0.9040     7.3323 </r>
       <r>     0.0564     0.9608     7.4404 </r>
       <r>     0.1741     1.1320     7.5636 </r>
       <r>     0.2918     1.2461     7.7047 </r>
       <r>     0.4095     1.3010     7.8552 </r>
       <r>     0.5271     1.2975     8.0087 </r>
       <r>     0.6448     1.2523     8.1589 </r>
       <r>     0.7625     1.2313     8.3046 </r>
       <r>     0.8802     1.2153     8.4490 </r>
       <r>     0.9979     1.1697     8.5903 </r>
       <r>     1.1156     0.9988     8.7192 </r>
       <r>     1.2333     0.6325     8.8149 </r>
       <r>     1.3510     0.4646     8.8777 </r>
       <r>     1.4687     0.3728     8.9266 </r>
       <r>     1.5864     0.3058     8.9667 </r>
       <r>     1.7041     0.1256     8.9929 </r>
       <r>     1.8217     0.0121     8.9998 </r>
       <r>     1.9394     0.0000     9.0000 </r>
       <r>     2.0571     0.0000     9.0000 </r>
       <r>     2.1748     0.0000     9.0000 </r>
       <r>     2.2925     0.0000     9.0000 </r>
       <r>     2.4102     0.0000     9.0000 </r>
       <r>     2.5279     0.0003     9.0000 </r>
       <r>     2.6456     0.0012     9.0001 </r>
       <r>     2.7633     0.0028     9.0003 </r>
       <r>     2.8810     0.0051     9.0008 </r>
       <r>     2.9986     0.0080     9.0015 </r>
       <r>     3.1163     0.0117     9.0027 </r>
       <r>     3.2340     0.0159     9.0043 </r>
       <r>     3.3517     0.0209     9.0065 </r>
       <r>     3.4694     0.0265     9.0093 </r>
       <r>     3.5871     0.0354     9.0128 </r>
       <r>     3.7048     0.0930     9.0198 </r>
       <r>     3.8225     0.1641     9.0350 </r>
       <r>     3.9402     0.2301     9.0582 </r>
       <r>     4.0579     0.2910     9.0889 </r>
       <r>     4.1756     0.3467     9.1265 </r>
       <r>     4.2932     0.4089     9.1708 </r>
       <r>     4.4109     0.4929     9.2236 </r>
       <r>     4.5286     0.7130     9.2907 </r>
       <r>     4.6463     1.1618     9.4107 </r>
       <r>     4.7640     1.1264     9.5468 </r>
       <r>     4.8817     0.9574     9.6703 </r>
       <r>     4.9994     0.7905     9.7728 </r>
       <r>     5.1171     0.6654     9.8580 </r>
       <r>     5.2348     0.5828     9.9311 </r>
[...]
       </set>
       <set comment="band 12">
        <r>  0.0729  0.0000  0.0000  0.0000  0.0044  0.0000  0.0016  0.0000  0.0005 </r>
        <r>  0.0000  0.1121  0.0000  0.2243  0.0036  0.0000  0.0120  0.0000  0.0004 </r>
       </set>
       <set comment="band 13">
        <r>  0.0000  0.1418  0.0000  0.0709  0.0014  0.0000  0.0000  0.0000  0.0111 </r>
        <r>  0.0000  0.1376  0.0000  0.0688  0.0046  0.0000  0.0000  0.0000  0.0371 </r>
       </set>
       <set comment="band 14">
        <r>  0.0000  0.0000  0.2127  0.0000  0.0000  0.0041  0.0000  0.0083  0.0000 </r>
        <r>  0.0000  0.0000  0.2065  0.0000  0.0000  0.0139  0.0000  0.0279  0.0000 </r>
       </set>
       <set comment="band 15">
        <r>  0.0000  0.0000  0.0000  0.0000  0.0000  0.0000  0.0000  0.0000  0.0000 </r>
        <r>  0.0000  0.0000  0.0000  0.0000  0.0000  0.2265  0.0000  0.1133  0.0000 </r>
       </set>
       <set comment="band 16">
        <r>  0.0000  0.0183  0.0000  0.0092  0.0065  0.0000  0.0000  0.0000  0.0518 </r>
        <r>  0.0000  0.0190  0.0000  0.0095  0.0307  0.0000  0.0000  0.0000  0.2458 </r>
       </set>
       <set comment="band 17">
        <r>  0.0000  0.0000  0.0275  0.0000  0.0000  0.0194  0.0000  0.0388  0.0000 </r>
        <r>  0.0000  0.0000  0.0284  0.0000  0.0000  0.0922  0.0000  0.1843  0.0001 </r>
       </set>
       <set comment="band 18">
        <r>  0.0000  0.0694  0.0000  0.1387  0.0077  0.0000  0.0259  0.0000  0.0010 </r>
        <r>  0.1072  0.0000  0.0000  0.0000  0.0097  0.0000  0.0036  0.0000  0.0012 </r>
       </set>
       <set comment="band 19">
        <r>  0.0000  0.0000  0.0000  0.0000  0.0000  0.1190  0.0000  0.0595  0.0000 </r>
        <r>  0.0000  0.0000  0.0000  0.0000  0.0000  0.0000  0.0000  0.0000  0.0000 </r>
       </set>
       <set comment="band 20">
        <r>  0.0000  0.0008  0.0000  0.0017  0.0018  0.0000  0.0062  0.0000  0.0002 </r>
        <r>  0.0182  0.0000  0.0000  0.0000  0.2774  0.0000  0.1040  0.0000  0.0347 </r>
       </set>
       <set comment="band 21">
        <r>  0.0000  0.0000  0.0440  0.0000  0.0000  0.0023  0.0000  0.0046  0.0000 </r>
        <r>  0.0000  0.0000  0.0005  0.0000  0.0000  0.0128  0.0000  0.0257  0.0001 </r>
       </set>
       <set comment="band 22">
        <r>  0.0000  0.0293  0.0001  0.0147  0.0008  0.0000  0.0000  0.0000  0.0061 </r>
        <r>  0.0000  0.0003  0.0000  0.0002  0.0043  0.0000  0.0000  0.0000  0.0342 </r>
       </set>
       <set comment="band 23">
        <r>  0.0337  0.0000  0.0000  0.0000  0.0137  0.0000  0.0051  0.0000  0.0017 </r>
        <r>  0.0000  0.0058  0.0000  0.0115  0.0009  0.0000  0.0030  0.0000  0.0001 </r>
       </set>
       <set comment="band 24">
        <r>  0.0000  0.0481  0.0000  0.0963  0.0001  0.0000  0.0005  0.0000  0.0000 </r>
        <r>  0.0155  0.0000  0.0000  0.0000  0.0031  0.0000  0.0011  0.0000  0.0004 </r>
       </set>
      </set>
      <set comment="kpoint 14">
       <set comment="band 1">
        <r>  0.0119  0.0018  0.0015  0.0068  0.0218  0.0052  0.0513  0.0106  0.0111 </r>
        <r>  0.5835  0.0000  0.0000  0.0001  0.0000  0.0000  0.0000  0.0000  0.0000 </r>
       </set>
       <set comment="band 2">
        <r>  0.0002  0.0001  0.0001  0.0001  0.0388  0.1744  0.2481  0.1299  0.3323 </r>
        <r>  0.0001  0.0065  0.0047  0.0002  0.0001  0.0002  0.0001  0.0003  0.0004 </r>
       </set>
       <set comment="band 3">
        <r>  0.0000  0.0002  0.0003  0.0001  0.1652  0.1976  0.0265  0.2237  0.3090 </r>
        <r>  0.0001  0.0049  0.0044  0.0032  0.0000  0.0000  0.0001  0.0003  0.0003 </r>
       </set>
       <set comment="band 4">
        <r>  0.0005  0.0000  0.0000  0.0000  0.5234  0.0229  0.1996  0.0482  0.1416 </r>
        <r>  0.0003  0.0003  0.0002  0.0017  0.0002  0.0000  0.0003  0.0001  0.0001 </r>
       </set>
       <set comment="band 5">
        <r>  0.0000  0.0000  0.0000  0.0000  0.0180  0.4963  0.0121  0.4143  0.0076 </r>
        <r>  0.0001  0.0000  0.0000  0.0000  0.0000  0.0002  0.0000  0.0000  0.0001 </r>
       </set>
       <set comment="band 6">
        <r>  0.0084  0.0002  0.0001  0.0013  0.1625  0.0392  0.3902  0.1140  0.1312 </r>
        <r>  0.0641  0.0005  0.0008  0.0055  0.0001  0.0000  0.0002  0.0000  0.0001 </r>
       </set>
       <set comment="band 7">
        <r>  0.2095  0.0031  0.0044  0.0025  0.0110  0.0007  0.0163  0.0021  0.0003 </r>
        <r>  0.0310  0.0236  0.0347  0.1582  0.0007  0.0001  0.0016  0.0003  0.0002 </r>
       </set>
       <set comment="band 8">
        <r>  0.0125  0.0090  0.0276  0.0300  0.0067  0.0120  0.0009  0.0022  0.0060 </r>
        <r>  0.0011  0.0872  0.1553  0.0893  0.0007  0.0005  0.0006  0.0001  0.0002 </r>
       </set>
       <set comment="band 9">
        <r>  0.0037  0.0363  0.0241  0.0052  0.0049  0.0035  0.0071  0.0068  0.0133 </r>
        <r>  0.0011  0.2324  0.1459  0.0063  0.0009  0.0003  0.0003  0.0002  0.0003 </r>
       </set>
       <set comment="band 10">
        <r>  0.2379  0.0034  0.0055  0.0026  0.0040  0.0028  0.0031  0.0001  0.0039 </r>
        <r>  0.0260  0.0735  0.0453  0.1131  0.0059  0.0032  0.0165  0.0015  0.0037 </r>
       </set>
       <set comment="band 11">
        <r>  0.0012  0.0495  0.0066  0.0577  0.0050  0.0014  0.0149  0.0011  0.0024 </r>
        <r>  0.0402  0.0120  0.0289  0.0199  0.0200  0.0002  0.0152  0.0001  0.0046 </r>
       </set>
       <set comment="band 12">
        <r>  0.0003  0.0359  0.0451  0.0116  0.0107  0.0079  0.0053  0.0011  0.0027 </r>
        <r>  0.0122  0.0198  0.0268  0.0072  0.0181  0.0244  0.0186  0.0011  0.0065 </r>
       </set>
       <set comment="band 13">
        <r>  0.0015  0.0801  0.0853  0.0121  0.0046  0.0044  0.0007  0.0063  0.0076 </r>
        <r>  0.0080  0.0517  0.0493  0.0333  0.0037  0.0161  0.0016  0.0218  0.0313 </r>
       </set>
       <set comment="band 14">
        <r>  0.0116  0.0115  0.0181  0.0068  0.0083  0.0087  0.0110  0.0010  0.0107 </r>
        <r>  0.0009  0.0064  0.0183  0.1109  0.0139  0.0271  0.0157  0.0224  0.0103 </r>
       </set>
       <set comment="band 15">
        <r>  0.0001  0.0134  0.0231  0.0944  0.0043  0.0090  0.0058  0.0262  0.0045 </r>
        <r>  0.0195  0.0007  0.0092  0.0174  0.0032  0.0232  0.0060  0.0144  0.0433 </r>
       </set>
       <set comment="band 16">
        <r>  0.0119  0.0246  0.0485  0.0394  0.0057  0.0052  0.0070  0.0055  0.0062 </r>
        <r>  0.0074  0.0037  0.0195  0.0404  0.0077  0.0078  0.0004  0.1270  0.0507 </r>
       </set>
       <set comment="band 17">
        <r>  0.0406  0.0143  0.0007  0.0177  0.0005  0.0004  0.0002  0.0008  0.0005 </r>
        <r>  0.0000  0.0076  0.0065  0.0037  0.0170  0.0447  0.0092  0.0336  0.0055 </r>
       </set>
       <set comment="band 18">
        <r>  0.0083  0.0053  0.0036  0.0059  0.0127  0.0174  0.0042  0.0091  0.0057 </r>
        <r>  0.0069  0.0023  0.0070  0.0081  0.0138  0.0361  0.0118  0.0141  0.0031 </r>
       </set>
       <set comment="band 19">
        <r>  0.0038  0.0167  0.0278  0.0117  0.0008  0.0098  0.0010  0.0134  0.0225 </r>
        <r>  0.0003  0.0235  0.0353  0.0119  0.0229  0.0469  0.0034  0.0924  0.1178 </r>
       </set>
       <set comment="band 20">
        <r>  0.0007  0.0249  0.0031  0.0586  0.0042  0.0134  0.0053  0.0424  0.0090 </r>
        <r>  0.0113  0.0247  0.0075  0.0063  0.0524  0.0076  0.0168  0.0169  0.0054 </r>
       </set>
       <set comment="band 21">
        <r>  0.0343  0.0024  0.0179  0.0267  0.0002  0.0142  0.0010  0.0041  0.0167 </r>
        <r>  0.0123  0.0032  0.0005  0.0018  0.0277  0.0374  0.0347  0.0063  0.0382 </r>
       </set>
       <set comment="band 22">
        <r>  0.0001  0.0019  0.0032  0.0013  0.0114  0.0026  0.0032  0.0077  0.0015 </r>
        <r>  0.0055  0.0181  0.0083  0.0011  0.0216  0.0205  0.0240  0.0018  0.0098 </r>
       </set>
       <set comment="band 23">
        <r>  0.0006  0.0302  0.0172  0.0101  0.0024  0.0203  0.0075  0.0163  0.0028 </r>
        <r>  0.0001  0.0252  0.0239  0.0030  0.1334  0.0402  0.1499  0.0094  0.0249 </r>
       </set>
       <set comment="band 24">
        <r>  0.0009  0.0107  0.0132  0.0046  0.0149  0.0163  0.0151  0.0170  0.0280 </r>
        <r>  0.0005  0.0416  0.0318  0.0055  0.0659  0.0336  0.1558  0.0020  0.0095 </r>
       </set>
      </set>
      <set comment="kpoint 15">
       <set comment="band 1">
        <r>  0.0039  0.0033  0.0015  0.0067  0.0237  0.0053  0.0425  0.0109  0.0399 </r>
        <r>  0.5811  0.0000  0.0000  0.0000  0.0000  0.0000  0.0000  0.0000  0.0000 </r>
       </set>
       <set comment="band 2">
        <r>  0.0001  0.0001  0.0000  0.0002  0.0717  0.1302  0.4408  0.0426  0.2394 </r>
        <r>  0.0000  0.0051  0.0028  0.0019  0.0003  0.0001  0.0000  0.0003  0.0005 </r>
       </set>
       <set comment="band 3">
        <r>  0.0000  0.0002  0.0004  0.0000  0.0629  0.3045  0.0860  0.3180  0.1533 </r>
        <r>  0.0001  0.0030  0.0072  0.0018  0.0000  0.0001  0.0001  0.0004  0.0001 </r>
       </set>
       <set comment="band 4">
        <r>  0.0000  0.0000  0.0000  0.0000  0.4274  0.1139  0.0614  0.1459  0.1943 </r>
        <r>  0.0000  0.0000  0.0000  0.0001  0.0002  0.0001  0.0004  0.0001  0.0003 </r>
       </set>
       <set comment="band 5">
        <r>  0.0001  0.0000  0.0000  0.0000  0.1867  0.3505  0.0289  0.3517  0.0282 </r>
        <r>  0.0000  0.0003  0.0002  0.0003  0.0000  0.0001  0.0001  0.0001  0.0000 </r>
       </set>
       <set comment="band 6">
        <r>  0.0030  0.0007  0.0003  0.0017  0.1699  0.0289  0.2739  0.0713  0.2884 </r>
        <r>  0.0919  0.0007  0.0003  0.0003  0.0000  0.0001  0.0001  0.0000  0.0001 </r>
       </set>
       <set comment="band 7">
        <r>  0.2324  0.0005  0.0001  0.0072  0.0017  0.0012  0.0004  0.0014  0.0012 </r>
        <r>  0.0058  0.0463  0.0166  0.1551  0.0008  0.0001  0.0010  0.0004  0.0013 </r>
       </set>
       <set comment="band 8">
        <r>  0.0149  0.0264  0.0112  0.0272  0.0042  0.0061  0.0133  0.0023  0.0026 </r>
        <r>  0.0034  0.1598  0.0590  0.0955  0.0005  0.0003  0.0006  0.0001  0.0001 </r>
       </set>
       <set comment="band 9">
        <r>  0.0012  0.0212  0.0439  0.0053  0.0039  0.0111  0.0037  0.0069  0.0033 </r>
        <r>  0.0001  0.0953  0.2647  0.0092  0.0005  0.0006  0.0006  0.0001  0.0001 </r>
       </set>
       <set comment="band 10">
        <r>  0.2076  0.0023  0.0081  0.0171  0.0001  0.0059  0.0059  0.0005  0.0032 </r>
        <r>  0.0278  0.0845  0.0602  0.0625  0.0038  0.0061  0.0154  0.0010  0.0069 </r>
       </set>
       <set comment="band 11">
        <r>  0.0004  0.0444  0.0200  0.0059  0.0027  0.0073  0.0172  0.0031  0.0034 </r>
        <r>  0.0133  0.0304  0.0415  0.0194  0.0121  0.0123  0.0226  0.0005  0.0035 </r>
       </set>
       <set comment="band 12">
        <r>  0.0423  0.0224  0.0544  0.0291  0.0049  0.0007  0.0046  0.0024  0.0024 </r>
        <r>  0.0202  0.0374  0.0097  0.0920  0.0110  0.0155  0.0055  0.0087  0.0129 </r>
       </set>
       <set comment="band 13">
        <r>  0.0002  0.0372  0.0163  0.0533  0.0137  0.0021  0.0001  0.0087  0.0108 </r>
        <r>  0.0163  0.0162  0.0061  0.0100  0.0251  0.0019  0.0152  0.0255  0.0128 </r>
       </set>
       <set comment="band 14">
        <r>  0.0001  0.0562  0.0709  0.0101  0.0075  0.0141  0.0056  0.0010  0.0094 </r>
        <r>  0.0141  0.0415  0.0353  0.0611  0.0052  0.0411  0.0070  0.0062  0.0095 </r>
       </set>
       <set comment="band 15">
        <r>  0.0004  0.0127  0.0246  0.0006  0.0031  0.0113  0.0045  0.0200  0.0081 </r>
        <r>  0.0052  0.0000  0.0298  0.0833  0.0144  0.0239  0.0095  0.0080  0.0117 </r>
       </set>
       <set comment="band 16">
        <r>  0.0010  0.0022  0.0180  0.0937  0.0040  0.0045  0.0095  0.0161  0.0013 </r>
        <r>  0.0168  0.0018  0.0002  0.0090  0.0056  0.0014  0.0023  0.1661  0.0908 </r>
       </set>
       <set comment="band 17">
        <r>  0.0335  0.0520  0.0249  0.0090  0.0107  0.0032  0.0015  0.0022  0.0043 </r>
        <r>  0.0021  0.0116  0.0038  0.0136  0.0108  0.0169  0.0258  0.0001  0.0032 </r>
       </set>
       <set comment="band 18">
        <r>  0.0053  0.0289  0.0115  0.0160  0.0050  0.0111  0.0062  0.0006  0.0000 </r>
        <r>  0.0023  0.0714  0.0293  0.0088  0.0871  0.0790  0.0153  0.0118  0.0342 </r>
       </set>
       <set comment="band 19">
        <r>  0.0007  0.0075  0.0163  0.0499  0.0008  0.0006  0.0020  0.0203  0.0089 </r>
        <r>  0.0001  0.0278  0.0209  0.0486  0.0295  0.0106  0.0096  0.0455  0.0625 </r>
       </set>
       <set comment="band 20">
        <r>  0.0031  0.0155  0.0054  0.0327  0.0002  0.0009  0.0004  0.0048  0.0025 </r>
        <r>  0.0031  0.0042  0.0117  0.0001  0.1079  0.0168  0.0077  0.0381  0.0434 </r>
       </set>
       <set comment="band 21">
        <r>  0.0316  0.0031  0.0013  0.0028  0.0073  0.0046  0.0066  0.0140  0.0245 </r>
        <r>  0.0072  0.0007  0.0008  0.0006  0.0276  0.0139  0.0547  0.0053  0.0433 </r>
       </set>
       <set comment="band 22">
        <r>  0.0031  0.0007  0.0001  0.0061  0.0304  0.0312  0.0023  0.0122  0.0224 </r>
        <r>  0.0196  0.0023  0.0017  0.0003  0.0100  0.0555  0.0563  0.0529  0.0008 </r>
       </set>
       <set comment="band 23">
        <r>  0.0004  0.0129  0.0031  0.0428  0.0029  0.0033  0.0093  0.0005  0.0049 </r>
        <r>  0.0042  0.0051  0.0131  0.0000  0.0206  0.0159  0.0307  0.0045  0.0031 </r>
       </set>
       <set comment="band 24">
        <r>  0.0004  0.0384  0.0242  0.0106  0.0028  0.0063  0.0043  0.0177  0.0262 </r>
        <r>  0.0001  0.0154  0.0431  0.0004  0.0151  0.0484  0.1446  0.0290  0.0931 </r>
       </set>
      </set>
      <set comment="kpoint 16">
       <set comment="band 1">
        <r>  0.0000  0.0041  0.0015  0.0067  0.0240  0.0056  0.0746  0.0111  0.0176 </r>
        <r>  0.5800  0.0000  0.0000  0.0000  0.0000  0.0000  0.0000  0.0000  0.0000 </r>
       </set>
       <set comment="band 2">
        <r>  0.0000  0.0001  0.0001  0.0001  0.0952  0.1120  0.1954  0.2239  0.3060 </r>
        <r>  0.0001  0.0025  0.0037  0.0012  0.0002  0.0002  0.0000  0.0004  0.0006 </r>
       </set>
       <set comment="band 3">
        <r>  0.0001  0.0002  0.0003  0.0001  0.2275  0.1191  0.0727  0.2107  0.2927 </r>
        <r>  0.0000  0.0039  0.0030  0.0048  0.0000  0.0001  0.0000  0.0001  0.0002 </r>
       </set>
       <set comment="band 4">
        <r>  0.0003  0.0000  0.0000  0.0000  0.4355  0.0519  0.1568  0.1037  0.1905 </r>
        <r>  0.0000  0.0006  0.0005  0.0008  0.0002  0.0001  0.0004  0.0002  0.0002 </r>
       </set>
       <set comment="band 5">
        <r>  0.0001  0.0000  0.0000  0.0000  0.0066  0.6159  0.0020  0.3132  0.0099 </r>
        <r>  0.0000  0.0002  0.0002  0.0002  0.0000  0.0000  0.0000  0.0000  0.0001 </r>
       </set>
       <set comment="band 6">
        <r>  0.0000  0.0012  0.0004  0.0021  0.1436  0.0393  0.4405  0.0786  0.1211 </r>
        <r>  0.1037  0.0000  0.0000  0.0000  0.0002  0.0000  0.0001  0.0000  0.0000 </r>
       </set>
       <set comment="band 7">
        <r>  0.2562  0.0000  0.0000  0.0000  0.0070  0.0005  0.0026  0.0003  0.0009 </r>
        <r>  0.0000  0.0713  0.0226  0.1200  0.0007  0.0002  0.0022  0.0004  0.0006 </r>
       </set>
       <set comment="band 8">
        <r>  0.0022  0.0217  0.0326  0.0109  0.0104  0.0054  0.0036  0.0065  0.0080 </r>
        <r>  0.0000  0.1129  0.1318  0.0940  0.0000  0.0000  0.0001  0.0000  0.0000 </r>
       </set>
       <set comment="band 9">
        <r>  0.0000  0.0268  0.0284  0.0251  0.0006  0.0014  0.0006  0.0029  0.0038 </r>
        <r>  0.0002  0.1123  0.1685  0.0562  0.0010  0.0003  0.0004  0.0002  0.0002 </r>
       </set>
       <set comment="band 10">
        <r>  0.2181  0.0022  0.0033  0.0011  0.0124  0.0008  0.0046  0.0006  0.0019 </r>
        <r>  0.0000  0.0690  0.0452  0.0928  0.0098  0.0003  0.0327  0.0007  0.0021 </r>
       </set>
       <set comment="band 11">
        <r>  0.0000  0.0274  0.0023  0.0526  0.0072  0.0008  0.0234  0.0016  0.0030 </r>
        <r>  0.0339  0.0234  0.0351  0.0117  0.0248  0.0000  0.0093  0.0001  0.0032 </r>
       </set>
       <set comment="band 12">
        <r>  0.0000  0.0464  0.0544  0.0385  0.0014  0.0036  0.0008  0.0071  0.0096 </r>
        <r>  0.0411  0.0313  0.0469  0.0156  0.0006  0.0264  0.0002  0.0138  0.0011 </r>
       </set>
       <set comment="band 13">
        <r>  0.0344  0.0268  0.0403  0.0134  0.0085  0.0052  0.0031  0.0037  0.0029 </r>
        <r>  0.0000  0.0365  0.0047  0.0682  0.0082  0.0109  0.0155  0.0218  0.0297 </r>
       </set>
       <set comment="band 14">
        <r>  0.0021  0.0488  0.0733  0.0244  0.0020  0.0053  0.0002  0.0100  0.0132 </r>
        <r>  0.0000  0.0912  0.0817  0.1006  0.0001  0.0003  0.0002  0.0005  0.0007 </r>
       </set>
       <set comment="band 15">
        <r>  0.0000  0.0503  0.0569  0.0437  0.0040  0.0044  0.0084  0.0089  0.0121 </r>
        <r>  0.0001  0.0026  0.0040  0.0013  0.0160  0.0579  0.0001  0.0995  0.1254 </r>
       </set>
       <set comment="band 16">
        <r>  0.0051  0.0022  0.0032  0.0011  0.0047  0.0329  0.0016  0.0179  0.0032 </r>
        <r>  0.0000  0.0401  0.0227  0.0576  0.0054  0.0107  0.0061  0.0213  0.0287 </r>
       </set>
       <set comment="band 17">
        <r>  0.0000  0.0282  0.0047  0.0517  0.0027  0.0000  0.0090  0.0000  0.0004 </r>
        <r>  0.0410  0.0001  0.0001  0.0000  0.0132  0.1390  0.0048  0.0716  0.0054 </r>
       </set>
       <set comment="band 18">
        <r>  0.0000  0.0100  0.0096  0.0105  0.0000  0.0000  0.0002  0.0000  0.0000 </r>
        <r>  0.0004  0.0027  0.0041  0.0014  0.1007  0.0095  0.0368  0.0159  0.0321 </r>
       </set>
       <set comment="band 19">
        <r>  0.0000  0.0435  0.0000  0.0871  0.0016  0.0006  0.0047  0.0013  0.0019 </r>
        <r>  0.0079  0.0299  0.0448  0.0149  0.0412  0.0469  0.0153  0.0256  0.0089 </r>
       </set>
       <set comment="band 20">
        <r>  0.0000  0.0252  0.0313  0.0190  0.0021  0.0030  0.0037  0.0061  0.0082 </r>
        <r>  0.0327  0.0118  0.0177  0.0059  0.0333  0.0099  0.0119  0.0120  0.0165 </r>
       </set>
       <set comment="band 21">
        <r>  0.0534  0.0017  0.0025  0.0008  0.0004  0.0241  0.0000  0.0135  0.0025 </r>
        <r>  0.0000  0.0018  0.0001  0.0036  0.0025  0.0043  0.0036  0.0086  0.0116 </r>
       </set>
       <set comment="band 22">
        <r>  0.0000  0.0037  0.0055  0.0018  0.0195  0.0262  0.0052  0.0384  0.0466 </r>
        <r>  0.0000  0.0011  0.0002  0.0020  0.0103  0.0209  0.0110  0.0419  0.0562 </r>
       </set>
       <set comment="band 23">
        <r>  0.0147  0.0000  0.0000  0.0000  0.0098  0.0298  0.0037  0.0149  0.0013 </r>
        <r>  0.0000  0.0050  0.0000  0.0100  0.0157  0.0283  0.0209  0.0566  0.0763 </r>
       </set>
       <set comment="band 24">
        <r>  0.0164  0.0002  0.0032  0.0001  0.0033  0.0043  0.0008  0.0086  0.0022 </r>
        <r>  0.0000  0.0097  0.0146  0.0055  0.0443  0.0007  0.4068  0.0008  0.0057 </r>
       </set>
      </set>
     </set>
    </set>
   </array>
  </projected>
 </calculation>
 <structure name="finalpos" >
  <crystal>
   <varray name="basis" >
    <v>       4.01975093       0.00000000       2.32080404 </v>
    <v>       1.33991663       3.78985854       2.32080404 </v>
    <v>       0.00000000       0.00000000       4.64161015 </v>
   </varray>
   <i name="volume">     70.71162285 </i>
   <varray name="rec_basis" >
    <v>       0.24877163      -0.08795401       0.00000000 </v>
    <v>       0.00000000       0.26386209       0.00000000 </v>
    <v>      -0.12438576      -0.08795400       0.21544248 </v>
   </varray>
  </crystal>
  <varray name="positions" >
   <v>       0.00000000       0.00000000       0.00000000 </v>
   <v>       0.25000000       0.25000000       0.25000000 </v>
  </varray>
 </structure>
</modeling>
