<?xml version="1.0" encoding="ISO-8859-1"?>
<modeling>
 <generator>
  <i name="program" type="string">vasp </i>
  <i name="version" type="string">6.4.2  </i>
  <i name="subversion" type="string">20Jul23 (build Mar 15 2024 16:31:38) complex                          parallel </i>
  <i name="platform" type="string">LinuxIFC </i>
  <i name="date" type="string">2025 03 19 </i>
  <i name="time" type="string">15:02:21 </i>
 </generator>
 <incar>
  <i type="string" name="PREC">Accurate</i>
  <i type="string" name="ALGO">Fast</i>
  <i type="int" name="ISPIN">     2</i>
  <i type="int" name="NELM">   200</i>
  <i name="EDIFF">      0.00001000</i>
  <i type="int" name="NSW">     0</i>
  <i name="ENCUT">    680.00000000</i>
  <i name="ENAUG">   1360.00000000</i>
  <v name="MAGMOM">      0.60000000      0.60000000</v>
  <i type="logical" name="LREAL"> F  </i>
  <i type="int" name="ISMEAR">    -5</i>
  <i name="SIGMA">      0.20000000</i>
  <i type="int" name="LMAXMIX">     4</i>
  <i type="logical" name="LWAVE"> T  </i>
  <i type="logical" name="LCHARG"> T  </i>
  <i type="logical" name="LVTOT"> T  </i>
  <i type="int" name="LORBIT">    11</i>
  <i type="logical" name="LELF"> F  </i>
  <i type="logical" name="LASPH"> T  </i>
  <i type="logical" name="LAECHG"> T  </i>
  <i type="string" name="GGA">Ps</i>
  <i type="logical" name="LMIXTAU"> T  </i>
 </incar>
 <primitive_cell>
  <structure name="primitive_cell" >
   <crystal>
    <varray name="basis" >
     <v>       3.61541800       0.00000000       2.08736254 </v>
     <v>       1.20513900       3.40864864       2.08736254 </v>
     <v>       0.00000000       0.00000000       4.17472507 </v>
    </varray>
    <i name="volume">     51.44801605 </i>
    <varray name="rec_basis" >
     <v>       0.27659319      -0.09779044       0.00000000 </v>
     <v>       0.00000000       0.29337139       0.00000000 </v>
     <v>      -0.13829660      -0.09779048       0.23953673 </v>
    </varray>
   </crystal>
   <varray name="positions" >
    <v>       0.00000000       0.00000000       0.00000000 </v>
    <v>       0.25000000       0.25000000       0.25000000 </v>
   </varray>
  </structure>
  <varray name="primitive_index" >
   <v type="int" >        1 </v>
   <v type="int" >        2 </v>
  </varray>
 </primitive_cell>
 <kpoints>
  <generation param="Gamma">
   <v type="int" name="divisions">       6        6        6 </v>
   <v name="usershift">      0.00000000       0.00000000       0.00000000 </v>
   <v name="genvec1">      0.16666667      -0.00000000       0.00000000 </v>
   <v name="genvec2">      0.00000000       0.16666667       0.00000000 </v>
   <v name="genvec3">      0.00000000      -0.00000000       0.16666667 </v>
   <v name="shift">      0.00000000       0.00000000       0.00000000 </v>
  </generation>
  <varray name="kpointlist" >
   <v>       0.00000000       0.00000000       0.00000000 </v>
   <v>       0.16666667      -0.00000000       0.00000000 </v>
   <v>       0.33333333       0.00000000       0.00000000 </v>
   <v>       0.50000000      -0.00000000       0.00000000 </v>
   <v>       0.16666667       0.16666667       0.00000000 </v>
   <v>       0.33333333       0.16666667       0.00000000 </v>
   <v>       0.50000000       0.16666667       0.00000000 </v>
   <v>      -0.33333333       0.16666667       0.00000000 </v>
   <v>      -0.16666667       0.16666667       0.00000000 </v>
   <v>       0.33333333       0.33333333       0.00000000 </v>
   <v>       0.50000000       0.33333333       0.00000000 </v>
   <v>      -0.33333333       0.33333333       0.00000000 </v>
   <v>       0.50000000       0.50000000       0.00000000 </v>
   <v>       0.50000000       0.33333333       0.16666667 </v>
   <v>      -0.33333333       0.33333333       0.16666667 </v>
   <v>      -0.33333333       0.50000000       0.16666667 </v>
  </varray>
  <varray name="weights" >
   <v>       0.00462963 </v>
   <v>       0.03703704 </v>
   <v>       0.03703704 </v>
   <v>       0.01851852 </v>
   <v>       0.02777778 </v>
   <v>       0.11111111 </v>
   <v>       0.11111111 </v>
   <v>       0.11111111 </v>
   <v>       0.05555556 </v>
   <v>       0.02777778 </v>
   <v>       0.11111111 </v>
   <v>       0.05555556 </v>
   <v>       0.01388889 </v>
   <v>       0.11111111 </v>
   <v>       0.11111111 </v>
   <v>       0.05555556 </v>
  </varray>
  <varray name="tetrahedronlist"  type="int" >
   <v type="int" >       48        2        3        6        9 </v>
   <v type="int" >       48        6        8        9       14 </v>
   <v type="int" >       24        8        8        9       14 </v>
   <v type="int" >       48        3        6        8        9 </v>
   <v type="int" >       48        8       12       14       15 </v>
   <v type="int" >       48        7        8       12       15 </v>
   <v type="int" >       24        8        8       12       14 </v>
   <v type="int" >       48        7       11       14       15 </v>
   <v type="int" >       48        6        7       11       14 </v>
   <v type="int" >       48        7       11       12       15 </v>
   <v type="int" >       24        6        6       10       14 </v>
   <v type="int" >       24        5        6        6       10 </v>
   <v type="int" >       48        6       10       11       14 </v>
   <v type="int" >       24        5        6        6        9 </v>
   <v type="int" >       48        2        5        6        9 </v>
   <v type="int" >       48        6        7        8       14 </v>
   <v type="int" >       48        3        6        7        8 </v>
   <v type="int" >       48       11       14       15       16 </v>
   <v type="int" >       24       14       15       15       16 </v>
   <v type="int" >       24       12       14       15       15 </v>
   <v type="int" >       48        7        8       14       15 </v>
   <v type="int" >       24       15       15       16       16 </v>
   <v type="int" >       24       12       15       15       16 </v>
   <v type="int" >       48       11       12       15       16 </v>
   <v type="int" >       24       11       11       14       16 </v>
   <v type="int" >       24       10       11       11       14 </v>
   <v type="int" >       24        6        6        9       14 </v>
   <v type="int" >       24       11       11       12       16 </v>
   <v type="int" >       48        7        7        8       15 </v>
   <v type="int" >       24        2        2        5        9 </v>
   <v type="int" >       48        3        4        7        8 </v>
   <v type="int" >       48        4        7        7        8 </v>
   <v type="int" >       48       11       11       13       16 </v>
   <v type="int" >       24       10       11       11       13 </v>
   <v type="int" >       24        1        2        2        5 </v>
  </varray>
  <i name="volumeweight">      0.00077160 </i>
 </kpoints>
 <parameters>
  <separator name="general" >
   <i type="string" name="SYSTEM">unknown system</i>
   <i type="logical" name="LCOMPAT"> F  </i>
  </separator>
  <separator name="electronic" >
   <i type="string" name="PREC">accura</i>
   <i name="ENMAX">    680.00000000</i>
   <i name="ENAUG">   1360.00000000</i>
   <i name="EDIFF">      0.00001000</i>
   <i type="int" name="IALGO">    68</i>
   <i type="int" name="IWAVPR">    10</i>
   <i type="int" name="NBANDS">    24</i>
   <i type="int" name="NBANDSLOW">    -1</i>
   <i type="int" name="NBANDSHIGH">    -1</i>
   <i name="NELECT">     18.00000000</i>
   <i type="int" name="TURBO">     0</i>
   <i type="int" name="IRESTART">     0</i>
   <i type="int" name="NREBOOT">     0</i>
   <i type="int" name="NMIN">     0</i>
   <i name="EREF">      0.00000000</i>
   <separator name="electronic smearing" >
    <i type="int" name="ISMEAR">    -5</i>
    <i name="SIGMA">      0.20000000</i>
    <i name="KSPACING">      0.50000000</i>
    <i type="logical" name="KGAMMA"> T  </i>
    <i type="logical" name="KBLOWUP"> T  </i>
   </separator>
   <separator name="electronic projectors" >
    <i type="logical" name="LREAL"> F  </i>
    <v name="ROPT">      0.00000000      0.00000000</v>
    <i type="int" name="LMAXPAW">  -100</i>
    <i type="int" name="LMAXMIX">     4</i>
    <i type="logical" name="NLSPLINE"> F  </i>
   </separator>
   <separator name="electronic startup" >
    <i type="int" name="ISTART">     0</i>
    <i type="int" name="ICHARG">     2</i>
    <i type="int" name="INIWAV">     1</i>
   </separator>
   <separator name="electronic spin" >
    <i type="int" name="ISPIN">     2</i>
    <i type="logical" name="LNONCOLLINEAR"> F  </i>
    <v name="MAGMOM">      0.60000000      0.60000000</v>
    <i name="NUPDOWN">     -1.00000000</i>
    <i type="logical" name="LSORBIT"> F  </i>
    <v name="SAXIS">      0.00000000      0.00000000      1.00000000</v>
    <i type="logical" name="LSPIRAL"> F  </i>
    <v name="QSPIRAL">      0.00000000      0.00000000      0.00000000</v>
    <i type="logical" name="LZEROZ"> F  </i>
   </separator>
   <separator name="electronic exchange-correlation" >
    <i type="logical" name="LASPH"> T  </i>
    <i type="logical" name="LMETAGGA"> F  </i>
   </separator>
   <separator name="electronic convergence" >
    <i type="int" name="NELM">   200</i>
    <i type="int" name="NELMDL">    -5</i>
    <i type="int" name="NELMIN">     2</i>
    <i name="ENINI">    680.00000000</i>
    <separator name="electronic convergence detail" >
     <i type="logical" name="LDIAG"> T  </i>
     <i type="logical" name="LSUBROT"> F  </i>
     <i name="WEIMIN">      0.00000000</i>
     <i name="EBREAK">      0.00000010</i>
     <i name="DEPER">      0.30000000</i>
     <i type="int" name="NRMM">     4</i>
     <i name="TIME">      0.40000000</i>
    </separator>
   </separator>
   <separator name="electronic mixer" >
    <i name="AMIX">      0.40000000</i>
    <i name="BMIX">      1.00000000</i>
    <i name="AMIN">      0.10000000</i>
    <i name="AMIX_MAG">      1.60000000</i>
    <i name="BMIX_MAG">      1.00000000</i>
    <separator name="electronic mixer details" >
     <i type="int" name="IMIX">     4</i>
     <i type="logical" name="MIXFIRST"> F  </i>
     <i type="int" name="MAXMIX">   -45</i>
     <i name="WC">    100.00000000</i>
     <i type="int" name="INIMIX">     1</i>
     <i type="int" name="MIXPRE">     1</i>
     <i type="int" name="MREMOVE">     5</i>
    </separator>
   </separator>
   <separator name="electronic dipolcorrection" >
    <i type="logical" name="LDIPOL"> F  </i>
    <i type="logical" name="LMONO"> F  </i>
    <i type="int" name="IDIPOL">     0</i>
    <i name="EPSILON">      1.00000000</i>
    <v name="DIPOL">   -100.00000000   -100.00000000   -100.00000000</v>
    <i name="EFIELD">      0.00000000</i>
   </separator>
  </separator>
  <separator name="grids" >
   <i type="int" name="NGX">    36</i>
   <i type="int" name="NGY">    36</i>
   <i type="int" name="NGZ">    36</i>
   <i type="int" name="NGXF">    72</i>
   <i type="int" name="NGYF">    72</i>
   <i type="int" name="NGZF">    72</i>
   <i type="logical" name="ADDGRID"> F  </i>
  </separator>
  <separator name="ionic" >
   <i type="int" name="NSW">     0</i>
   <i type="int" name="IBRION">    -1</i>
   <i type="int" name="MDALGO">     0</i>
   <i type="int" name="ISIF">     2</i>
   <i name="PSTRESS">      0.00000000</i>
   <i name="EDIFFG">      0.00010000</i>
   <i type="int" name="NFREE">     0</i>
   <i name="POTIM">      0.50000000</i>
   <i name="SMASS">     -3.00000000</i>
   <i name="SCALEE">      1.00000000</i>
  </separator>
  <separator name="ionic md" >
   <i name="TEBEG">      0.00010000</i>
   <i name="TEEND">      0.00010000</i>
   <i type="int" name="NBLOCK">     1</i>
   <i type="int" name="KBLOCK">     1</i>
   <i type="int" name="NPACO">   256</i>
   <i name="APACO">     10.00000000</i>
  </separator>
  <separator name="symmetry" >
   <i type="int" name="ISYM">     2</i>
   <i name="SYMPREC">      0.00001000</i>
  </separator>
  <separator name="dos" >
   <i type="int" name="LORBIT">    11</i>
   <v name="RWIGS">     -1.00000000     -1.00000000</v>
   <i type="int" name="NEDOS">   301</i>
   <i name="EMIN">     10.00000000</i>
   <i name="EMAX">    -10.00000000</i>
   <i name="EFERMI">      0.00000000</i>
  </separator>
  <separator name="writing" >
   <i type="int" name="NWRITE">     2</i>
   <i type="logical" name="LWAVE"> T  </i>
   <i type="logical" name="LDOWNSAMPLE"> F  </i>
   <i type="logical" name="LCHARG"> T  </i>
   <i type="logical" name="LPARD"> F  </i>
   <i type="logical" name="LVTOT"> T  </i>
   <i type="logical" name="LVHAR"> F  </i>
   <i type="logical" name="LELF"> F  </i>
   <i type="logical" name="LOPTICS"> F  </i>
   <v name="STM">      0.00000000      0.00000000      0.00000000      0.00000000      0.00000000      0.00000000      0.00000000</v>
  </separator>
  <separator name="performance" >
   <i type="int" name="NPAR">    12</i>
   <i type="int" name="NSIM">     4</i>
   <i type="int" name="NBLK">    -1</i>
   <i type="logical" name="LPLANE"> T  </i>
   <i type="logical" name="LSCALAPACK"> T  </i>
   <i type="logical" name="LSCAAWARE"> T  </i>
   <i type="logical" name="LSCALU"> F  </i>
   <i type="logical" name="LASYNC"> F  </i>
   <i type="logical" name="LORBITALREAL"> F  </i>
  </separator>
  <separator name="miscellaneous" >
   <i type="int" name="IDIOT">     3</i>
   <i type="int" name="PHON_NSTRUCT">    -1</i>
   <i type="logical" name="LMUSIC"> F  </i>
   <v name="POMASS">    114.82000000     30.97400000</v>
   <v name="DARWINR">      0.00000000      0.00000000</v>
   <v name="DARWINV">      1.00000000      1.00000000</v>
   <i type="logical" name="LCORR"> T  </i>
  </separator>
  <i type="logical" name="GGA_COMPAT"> T  </i>
  <i type="logical" name="LBERRY"> F  </i>
  <i type="int" name="ICORELEVEL">     0</i>
  <i type="logical" name="LDAU"> F  </i>
  <i type="int" name="I_CONSTRAINED_M">     0</i>
  <separator name="electronic exchange-correlation" >
   <i type="string" name="GGA">PS</i>
   <i type="int" name="VOSKOWN">     0</i>
   <i type="logical" name="LHFCALC"> F  </i>
   <i type="string" name="PRECFOCK"></i>
   <i type="logical" name="LSYMGRAD"> F  </i>
   <i type="logical" name="LHFONE"> F  </i>
   <i type="logical" name="LRHFCALC"> F  </i>
   <i type="logical" name="LTHOMAS"> F  </i>
   <i type="logical" name="LMODELHF"> F  </i>
   <i type="logical" name="LFOCKACE"> F  </i>
   <i name="ENCUT4O">     -1.00000000</i>
   <i type="int" name="EXXOEP">     0</i>
   <i type="int" name="FOURORBIT">     0</i>
   <i name="AEXX">      0.00000000</i>
   <i name="HFALPHA">      0.00000000</i>
   <i name="MCALPHA">      0.00000000</i>
   <i name="ALDAX">      1.00000000</i>
   <i name="AGGAX">      1.00000000</i>
   <i name="ALDAC">      1.00000000</i>
   <i name="AGGAC">      1.00000000</i>
   <i type="int" name="NKREDX">     1</i>
   <i type="int" name="NKREDY">     1</i>
   <i type="int" name="NKREDZ">     1</i>
   <i type="logical" name="SHIFTRED"> F  </i>
   <i type="logical" name="ODDONLY"> F  </i>
   <i type="logical" name="EVENONLY"> F  </i>
   <i type="int" name="LMAXFOCK">     0</i>
   <i type="int" name="NMAXFOCKAE">     0</i>
   <i type="logical" name="LFOCKAEDFT"> F  </i>
   <i name="HFSCREEN">      0.00000000</i>
   <i name="HFSCREENC">      0.00000000</i>
   <i type="int" name="NBANDSGWLOW">     0</i>
  </separator>
  <separator name="vdW DFT" >
   <i type="logical" name="LUSE_VDW"> F  </i>
   <i type="int" name="IVDW_NL">     1</i>
   <i type="logical" name="LSPIN_VDW"> F  </i>
   <i name="Zab_VDW">     -0.84910000</i>
   <i name="PARAM1">      0.12340000</i>
   <i name="PARAM2">      1.00000000</i>
   <i name="PARAM3">      0.00000000</i>
  </separator>
  <separator name="model GW" >
   <i type="int" name="MODEL_GW">     0</i>
   <i name="MODEL_EPS0">     15.43440481</i>
   <i name="MODEL_ALPHA">      1.00000000</i>
  </separator>
  <separator name="linear response parameters" >
   <i type="logical" name="LEPSILON"> F  </i>
   <i type="logical" name="LRPA"> F  </i>
   <i type="logical" name="LNABLA"> F  </i>
   <i type="logical" name="LVEL"> F  </i>
   <i name="CSHIFT">      0.10000000</i>
   <i name="OMEGAMAX">     -1.00000000</i>
   <i name="DEG_THRESHOLD">      0.00200000</i>
   <i name="RTIME">     -0.10000000</i>
   <i name="WPLASMAI">      0.00000000</i>
   <v name="DFIELD">      0.00000000      0.00000000      0.00000000</v>
   <v name="WPLASMA">      0.00000000      0.00000000      0.00000000      0.00000000      0.00000000      0.00000000      0.00000000      0.00000000      0.00000000</v>
  </separator>
  <separator name="orbital magnetization" >
   <i type="logical" name="NUCIND"> F  </i>
   <v name="MAGPOS">      0.00000000      0.00000000      0.00000000</v>
   <i type="logical" name="LNICSALL"> T  </i>
   <i type="logical" name="ORBITALMAG"> F  </i>
   <i type="logical" name="LMAGBLOCH"> F  </i>
   <i type="logical" name="LCHIMAG"> F  </i>
   <i type="logical" name="LGAUGE"> T  </i>
   <i type="int" name="MAGATOM">     0</i>
   <v name="MAGDIPOL">      0.00000000      0.00000000      0.00000000</v>
   <v name="AVECCONST">      0.00000000      0.00000000      0.00000000</v>
  </separator>
  <separator name="response functions" >
   <i type="logical" name="LALL_IN_ONE"> F  </i>
   <i type="int" name="IALL_IN_ONE">    -1</i>
   <i type="int" name="NBANDS_WAVE">    -1</i>
   <i type="logical" name="LFINITE_TEMPERATURE"> F  </i>
   <i type="logical" name="LADDER"> F  </i>
   <i type="logical" name="LRPAFORCE"> F  </i>
   <i type="logical" name="LFXC"> F  </i>
   <i type="logical" name="LHARTREE"> T  </i>
   <i type="int" name="IBSE">     0</i>
   <v type="int" name="KPOINT">    -1     0     0     0</v>
   <i type="logical" name="LTCTC"> F  </i>
   <i type="logical" name="LTCTE"> F  </i>
   <i type="logical" name="LTETE"> F  </i>
   <i type="logical" name="LTRIPLET"> F  </i>
   <i type="logical" name="LFXCEPS"> F  </i>
   <i type="logical" name="LFXHEG"> F  </i>
   <i type="int" name="NATURALO">     2</i>
   <i type="logical" name="LHOLEGF"> F  </i>
   <i type="logical" name="L2ORDER"> F  </i>
   <i type="logical" name="LDMP1"> F  </i>
   <i type="logical" name="LMP2LT"> F  </i>
   <i type="logical" name="LSMP2LT"> F  </i>
   <i type="logical" name="LGWLF"> F  </i>
   <i name="ENCUTGW">     -1.60000002</i>
   <i name="ENCUTGWSOFT">     -1.60000002</i>
   <i name="ENCUTLF">     -1.00000000</i>
   <i type="logical" name="LESF_SPLINES"> F  </i>
   <i type="int" name="LMAXMP2">    -1</i>
   <i name="SCISSOR">      0.00000000</i>
   <i type="int" name="NOMEGA">     0</i>
   <i type="int" name="NOMEGAR">     0</i>
   <i type="int" name="NBANDSGW">    -1</i>
   <i type="int" name="NBANDSO">    -1</i>
   <i type="int" name="NBANDSV">    -1</i>
   <i type="int" name="NELMGW">     1</i>
   <i type="int" name="NELMHF">     1</i>
   <i type="int" name="DIM">     3</i>
   <i type="int" name="IESPILON">     4</i>
   <i type="int" name="ANTIRES">     0</i>
   <i name="OMEGAMAX">    -30.00000000</i>
   <i name="OMEGAMIN">    -30.00000000</i>
   <i name="OMEGATL">   -200.00000000</i>
   <i type="int" name="OMEGAGRID">     0</i>
   <i name="CSHIFT">     -0.10000000</i>
   <i type="logical" name="LSELFENERGY"> F  </i>
   <i type="logical" name="LSPECTRAL"> F  </i>
   <i type="logical" name="LSPECTRALGW"> F  </i>
   <i type="logical" name="LSINGLES"> F  </i>
   <i type="logical" name="LFERMIGW"> F  </i>
   <i type="logical" name="ODDONLYGW"> F  </i>
   <i type="logical" name="EVENONLYGW"> F  </i>
   <i type="int" name="NKREDLFX">     1</i>
   <i type="int" name="NKREDLFY">     1</i>
   <i type="int" name="NKREDLFZ">     1</i>
   <i type="int" name="MAXMEM">  2800</i>
   <i type="int" name="TELESCOPE">     0</i>
   <i type="int" name="NTAUPAR">    -1</i>
   <i type="int" name="NOMEGAPAR">    -1</i>
   <i name="DAMP_NEWTON">      0.80000001</i>
   <i name="LAMBDA">      1.00000000</i>
  </separator>
  <separator name="External order field" >
   <i name="OFIELD_KAPPA">      0.00000000</i>
   <v name="OFIELD_K">      0.00000000      0.00000000      0.00000000</v>
   <i name="OFIELD_Q6_NEAR">      0.00000000</i>
   <i name="OFIELD_Q6_FAR">      0.00000000</i>
   <i name="OFIELD_A">      0.00000000</i>
  </separator>
  <separator name="optional k-points parameters" >
   <i type="int" name="KPOINTS_OPT_MODE">     1</i>
   <i type="logical" name="LKPOINTS_OPT"> F  </i>
  </separator>
 </parameters>
 <atominfo>
  <atoms>       2 </atoms>
  <types>       2 </types>
  <array name="atoms" >
   <dimension dim="1">ion</dimension>
   <field type="string">element</field>
   <field type="int">atomtype</field>
   <set>
    <rc><c>In</c><c>   1</c></rc>
    <rc><c>P </c><c>   2</c></rc>
   </set>
  </array>
  <array name="atomtypes" >
   <dimension dim="1">type</dimension>
   <field type="int">atomspertype</field>
   <field type="string">element</field>
   <field>mass</field>
   <field>valence</field>
   <field type="string">pseudopotential</field>
   <set>
    <rc><c>   1</c><c>In</c><c>    114.82000000</c><c>     13.00000000</c><c>  PAW_PBE In_d 06Sep2000                </c></rc>
    <rc><c>   1</c><c>P </c><c>     30.97400000</c><c>      5.00000000</c><c>  PAW_PBE P 06Sep2000                   </c></rc>
   </set>
  </array>
 </atominfo>
 <structure name="initialpos" >
  <crystal>
   <varray name="basis" >
    <v>       3.61541800       0.00000000       2.08736254 </v>
    <v>       1.20513900       3.40864864       2.08736254 </v>
    <v>       0.00000000       0.00000000       4.17472507 </v>
   </varray>
   <i name="volume">     51.44801605 </i>
   <varray name="rec_basis" >
    <v>       0.27659319      -0.09779044       0.00000000 </v>
    <v>       0.00000000       0.29337139       0.00000000 </v>
    <v>      -0.13829660      -0.09779048       0.23953673 </v>
   </varray>
  </crystal>
  <varray name="positions" >
   <v>       0.00000000       0.00000000       0.00000000 </v>
   <v>       0.25000000       0.25000000       0.25000000 </v>
  </varray>
 </structure>
 <calculation>
  <scstep>
   <time name="dav">    0.26    0.26</time>
   <time name="total">    0.67    0.68</time>
   <energy>
    <i name="alphaZ">     31.71721604 </i>
    <i name="ewald">  -1211.83925518 </i>
    <i name="hartreedc">   -558.38470678 </i>
    <i name="XCdc">     46.21090930 </i>
    <i name="pawpsdc">   1519.48059358 </i>
    <i name="pawaedc">  -1502.50222866 </i>
    <i name="eentropy">      0.00000000 </i>
    <i name="bandstr">     37.30439540 </i>
    <i name="atom">   1751.84042551 </i>
    <i name="e_fr_energy">    113.82734922 </i>
    <i name="e_wo_entrp">    113.82734922 </i>
    <i name="e_0_energy">    113.82734922 </i>
   </energy>
  </scstep>
  <scstep>
   <time name="dav">    0.24    0.24</time>
   <time name="total">    0.24    0.24</time>
   <energy>
    <i name="e_fr_energy">     -0.90393988 </i>
    <i name="e_wo_entrp">     -0.90393988 </i>
    <i name="e_0_energy">     -0.90393988 </i>
   </energy>
  </scstep>
  <scstep>
   <time name="dav">    0.25    0.26</time>
   <time name="total">    0.25    0.26</time>
   <energy>
    <i name="e_fr_energy">     -9.24284839 </i>
    <i name="e_wo_entrp">     -9.24284839 </i>
    <i name="e_0_energy">     -9.24284839 </i>
   </energy>
  </scstep>
  <scstep>
   <time name="dav">    0.24    0.25</time>
   <time name="total">    0.24    0.25</time>
   <energy>
    <i name="e_fr_energy">     -9.40711783 </i>
    <i name="e_wo_entrp">     -9.40711783 </i>
    <i name="e_0_energy">     -9.40711783 </i>
   </energy>
  </scstep>
  <scstep>
   <time name="dav">    0.28    0.29</time>
   <time name="total">    0.30    0.32</time>
   <energy>
    <i name="e_fr_energy">     -9.41335182 </i>
    <i name="e_wo_entrp">     -9.41335182 </i>
    <i name="e_0_energy">     -9.41335182 </i>
   </energy>
  </scstep>
  <scstep>
   <time name="diag">    0.09    0.09</time>
   <time name="diis">    0.04    0.04</time>
   <time name="orth">    0.01    0.01</time>
   <time name="total">    0.56    0.58</time>
   <energy>
    <i name="e_fr_energy">     -9.17328556 </i>
    <i name="e_wo_entrp">     -9.17328556 </i>
    <i name="e_0_energy">     -9.17328556 </i>
   </energy>
  </scstep>
  <scstep>
   <time name="diag">    0.09    0.09</time>
   <time name="diis">    0.03    0.03</time>
   <time name="orth">    0.01    0.01</time>
   <time name="total">    0.55    0.56</time>
   <energy>
    <i name="e_fr_energy">     -9.14447662 </i>
    <i name="e_wo_entrp">     -9.14447662 </i>
    <i name="e_0_energy">     -9.14447662 </i>
   </energy>
  </scstep>
  <scstep>
   <time name="diag">    0.09    0.09</time>
   <time name="diis">    0.03    0.03</time>
   <time name="orth">    0.01    0.01</time>
   <time name="total">    0.55    0.57</time>
   <energy>
    <i name="e_fr_energy">     -9.14309752 </i>
    <i name="e_wo_entrp">     -9.14309752 </i>
    <i name="e_0_energy">     -9.14309752 </i>
   </energy>
  </scstep>
  <scstep>
   <time name="diag">    0.10    0.10</time>
   <time name="diis">    0.04    0.04</time>
   <time name="orth">    0.01    0.01</time>
   <time name="total">    0.58    0.59</time>
   <energy>
    <i name="e_fr_energy">     -9.14257178 </i>
    <i name="e_wo_entrp">     -9.14257178 </i>
    <i name="e_0_energy">     -9.14257178 </i>
   </energy>
  </scstep>
  <scstep>
   <time name="diag">    0.09    0.09</time>
   <time name="diis">    0.05    0.05</time>
   <time name="orth">    0.01    0.01</time>
   <time name="total">    0.57    0.59</time>
   <energy>
    <i name="e_fr_energy">     -9.14183826 </i>
    <i name="e_wo_entrp">     -9.14183826 </i>
    <i name="e_0_energy">     -9.14183826 </i>
   </energy>
  </scstep>
  <scstep>
   <time name="diag">    0.10    0.10</time>
   <time name="diis">    0.05    0.05</time>
   <time name="orth">    0.01    0.01</time>
   <time name="total">    0.57    0.59</time>
   <energy>
    <i name="e_fr_energy">     -9.14176634 </i>
    <i name="e_wo_entrp">     -9.14176634 </i>
    <i name="e_0_energy">     -9.14176634 </i>
   </energy>
  </scstep>
  <scstep>
   <time name="diag">    0.10    0.10</time>
   <time name="diis">    0.04    0.04</time>
   <time name="orth">    0.01    0.01</time>
   <time name="total">    0.56    0.57</time>
   <energy>
    <i name="e_fr_energy">     -9.14181268 </i>
    <i name="e_wo_entrp">     -9.14181268 </i>
    <i name="e_0_energy">     -9.14181268 </i>
   </energy>
  </scstep>
  <scstep>
   <time name="diag">    0.10    0.10</time>
   <time name="diis">    0.04    0.04</time>
   <time name="orth">    0.01    0.01</time>
   <time name="total">    0.56    0.58</time>
   <energy>
    <i name="e_fr_energy">     -9.14182849 </i>
    <i name="e_wo_entrp">     -9.14182849 </i>
    <i name="e_0_energy">     -9.14182849 </i>
   </energy>
  </scstep>
  <scstep>
   <time name="diag">    0.10    0.10</time>
   <time name="diis">    0.04    0.04</time>
   <time name="orth">    0.01    0.01</time>
   <time name="total">    0.54    0.56</time>
   <energy>
    <i name="alphaZ">     31.71721604 </i>
    <i name="ewald">  -1211.83925518 </i>
    <i name="hartreedc">   -553.70656988 </i>
    <i name="XCdc">     46.28191318 </i>
    <i name="pawpsdc">   2565.86227621 </i>
    <i name="pawaedc">  -2549.74575829 </i>
    <i name="eentropy">      0.00000000 </i>
    <i name="bandstr">    -89.55207167 </i>
    <i name="atom">   1751.84042551 </i>
    <i name="e_fr_energy">     -9.14182408 </i>
    <i name="e_wo_entrp">     -9.14182408 </i>
    <i name="e_0_energy">     -9.14182408 </i>
   </energy>
  </scstep>
  <structure>
   <crystal>
    <varray name="basis" >
     <v>       3.61541800       0.00000000       2.08736254 </v>
     <v>       1.20513900       3.40864864       2.08736254 </v>
     <v>       0.00000000       0.00000000       4.17472507 </v>
    </varray>
    <i name="volume">     51.44801605 </i>
    <varray name="rec_basis" >
     <v>       0.27659319      -0.09779044       0.00000000 </v>
     <v>       0.00000000       0.29337139       0.00000000 </v>
     <v>      -0.13829660      -0.09779048       0.23953673 </v>
    </varray>
   </crystal>
   <varray name="positions" >
    <v>       0.00000000       0.00000000       0.00000000 </v>
    <v>       0.25000000       0.25000000       0.25000000 </v>
   </varray>
  </structure>
  <varray name="forces" >
   <v>       0.00000000       0.00000000      -0.00000000 </v>
   <v>      -0.00000000      -0.00000000       0.00000000 </v>
  </varray>
  <varray name="stress" >
   <v>      -8.05309047       0.00000079      -0.00000001 </v>
   <v>       0.00000079      -8.05308981      -0.00000001 </v>
   <v>      -0.00000001      -0.00000001      -8.05309033 </v>
  </varray>
  <energy>
   <i name="e_fr_energy">     -9.14182408 </i>
   <i name="e_wo_entrp">     -9.14182408 </i>
   <i name="e_0_energy">     -9.14182408 </i>
  </energy>
  <time name="totalsc">    8.39    8.61</time>
  <eigenvalues>
   <array>
    <dimension dim="1">band</dimension>
    <dimension dim="2">kpoint</dimension>
    <dimension dim="3">spin</dimension>
    <field>eigene</field>
    <field>occ</field>
    <set>
     <set comment="spin 1">
      <set comment="kpoint 1">
       <r>   -9.2527    1.0000 </r>
       <r>   -9.2527    1.0000 </r>
       <r>   -9.2527    1.0000 </r>
       <r>   -9.1093    1.0000 </r>
       <r>   -9.1093    1.0000 </r>
       <r>   -6.5384    1.0000 </r>
       <r>    4.8615    1.0000 </r>
       <r>    4.8615    1.0000 </r>
       <r>    4.8615    1.0000 </r>
       <r>    5.3558    0.0000 </r>
       <r>    8.8726    0.0000 </r>
       <r>    8.8726    0.0000 </r>
       <r>    8.8726    0.0000 </r>
       <r>   13.1111    0.0000 </r>
       <r>   14.2512    0.0000 </r>
       <r>   14.2512    0.0000 </r>
       <r>   15.8473    0.0000 </r>
       <r>   15.8473    0.0000 </r>
       <r>   15.8473    0.0000 </r>
       <r>   18.3950    0.0000 </r>
       <r>   26.5713    0.0000 </r>
       <r>   26.5714    0.0000 </r>
       <r>   26.5714    0.0000 </r>
       <r>   28.5170    0.0000 </r>
      </set>
      <set comment="kpoint 2">
       <r>   -9.2824    1.0000 </r>
       <r>   -9.2410    1.0000 </r>
       <r>   -9.2410    1.0000 </r>
       <r>   -9.1088    1.0000 </r>
       <r>   -9.1088    1.0000 </r>
       <r>   -6.2331    1.0000 </r>
       <r>    2.6486    1.0000 </r>
       <r>    4.5620    1.0000 </r>
       <r>    4.5620    1.0000 </r>
       <r>    6.5030    0.0000 </r>
       <r>    9.2315    0.0000 </r>
       <r>    9.3060    0.0000 </r>
       <r>    9.3060    0.0000 </r>
       <r>   13.3955    0.0000 </r>
       <r>   13.3955    0.0000 </r>
       <r>   14.0688    0.0000 </r>
       <r>   15.5053    0.0000 </r>
       <r>   17.7609    0.0000 </r>
       <r>   17.7609    0.0000 </r>
       <r>   20.4763    0.0000 </r>
       <r>   23.5491    0.0000 </r>
       <r>   23.6936    0.0000 </r>
       <r>   23.6936    0.0000 </r>
       <r>   28.1624    0.0000 </r>
      </set>
      <set comment="kpoint 3">
       <r>   -9.3378    1.0000 </r>
       <r>   -9.2224    1.0000 </r>
       <r>   -9.2224    1.0000 </r>
       <r>   -9.1028    1.0000 </r>
       <r>   -9.1028    1.0000 </r>
       <r>   -5.4451    1.0000 </r>
       <r>    0.3127    1.0000 </r>
       <r>    4.0984    1.0000 </r>
       <r>    4.0984    1.0000 </r>
       <r>    6.3616    0.0000 </r>
       <r>    9.6454    0.0000 </r>
       <r>    9.6454    0.0000 </r>
       <r>   10.9530    0.0000 </r>
       <r>   13.5061    0.0000 </r>
       <r>   13.8630    0.0000 </r>
       <r>   13.8630    0.0000 </r>
       <r>   18.3591    0.0000 </r>
       <r>   19.7207    0.0000 </r>
       <r>   19.7207    0.0000 </r>
       <r>   20.2123    0.0000 </r>
       <r>   21.1548    0.0000 </r>
       <r>   21.1548    0.0000 </r>
       <r>   24.4025    0.0000 </r>
       <r>   28.0085    0.0000 </r>
      </set>
      <set comment="kpoint 4">
       <r>   -9.3639    1.0000 </r>
       <r>   -9.2161    1.0000 </r>
       <r>   -9.2161    1.0000 </r>
       <r>   -9.0966    1.0000 </r>
       <r>   -9.0966    1.0000 </r>
       <r>   -4.8594    1.0000 </r>
       <r>   -0.8276    1.0000 </r>
       <r>    3.9070    1.0000 </r>
       <r>    3.9070    1.0000 </r>
       <r>    6.2062    0.0000 </r>
       <r>    9.5897    0.0000 </r>
       <r>    9.5897    0.0000 </r>
       <r>   11.7639    0.0000 </r>
       <r>   14.0710    0.0000 </r>
       <r>   15.4134    0.0000 </r>
       <r>   15.4134    0.0000 </r>
       <r>   16.9648    0.0000 </r>
       <r>   17.3493    0.0000 </r>
       <r>   17.3493    0.0000 </r>
       <r>   22.7564    0.0000 </r>
       <r>   24.0748    0.0000 </r>
       <r>   24.0748    0.0000 </r>
       <r>   25.1759    0.0000 </r>
       <r>   25.6653    0.0000 </r>
      </set>
      <set comment="kpoint 5">
       <r>   -9.3035    1.0000 </r>
       <r>   -9.2290    1.0000 </r>
       <r>   -9.2290    1.0000 </r>
       <r>   -9.1194    1.0000 </r>
       <r>   -9.1010    1.0000 </r>
       <r>   -6.1326    1.0000 </r>
       <r>    2.6660    1.0000 </r>
       <r>    4.0598    1.0000 </r>
       <r>    4.0598    1.0000 </r>
       <r>    7.3647    0.0000 </r>
       <r>    7.8840    0.0000 </r>
       <r>   10.0530    0.0000 </r>
       <r>   10.0530    0.0000 </r>
       <r>   12.0123    0.0000 </r>
       <r>   14.5040    0.0000 </r>
       <r>   15.0517    0.0000 </r>
       <r>   16.7680    0.0000 </r>
       <r>   16.7680    0.0000 </r>
       <r>   17.0776    0.0000 </r>
       <r>   21.6305    0.0000 </r>
       <r>   22.9680    0.0000 </r>
       <r>   22.9680    0.0000 </r>
       <r>   24.7321    0.0000 </r>
       <r>   25.2269    0.0000 </r>
      </set>
      <set comment="kpoint 6">
       <r>   -9.3469    1.0000 </r>
       <r>   -9.2123    1.0000 </r>
       <r>   -9.2074    1.0000 </r>
       <r>   -9.1239    1.0000 </r>
       <r>   -9.0938    1.0000 </r>
       <r>   -5.4972    1.0000 </r>
       <r>    0.9058    1.0000 </r>
       <r>    3.3721    1.0000 </r>
       <r>    3.5726    1.0000 </r>
       <r>    7.4630    0.0000 </r>
       <r>    8.4874    0.0000 </r>
       <r>   10.2807    0.0000 </r>
       <r>   10.7120    0.0000 </r>
       <r>   12.7986    0.0000 </r>
       <r>   14.7530    0.0000 </r>
       <r>   15.3916    0.0000 </r>
       <r>   17.8040    0.0000 </r>
       <r>   18.9429    0.0000 </r>
       <r>   19.7931    0.0000 </r>
       <r>   19.8675    0.0000 </r>
       <r>   20.4652    0.0000 </r>
       <r>   23.0607    0.0000 </r>
       <r>   24.8951    0.0000 </r>
       <r>   25.0038    0.0000 </r>
      </set>
      <set comment="kpoint 7">
       <r>   -9.3715    1.0000 </r>
       <r>   -9.2084    1.0000 </r>
       <r>   -9.1990    1.0000 </r>
       <r>   -9.1131    1.0000 </r>
       <r>   -9.0934    1.0000 </r>
       <r>   -4.7436    1.0000 </r>
       <r>   -0.5787    1.0000 </r>
       <r>    2.7106    1.0000 </r>
       <r>    3.4957    1.0000 </r>
       <r>    7.3206    0.0000 </r>
       <r>    9.1455    0.0000 </r>
       <r>   10.4862    0.0000 </r>
       <r>   11.3230    0.0000 </r>
       <r>   13.9669    0.0000 </r>
       <r>   15.4695    0.0000 </r>
       <r>   15.6155    0.0000 </r>
       <r>   16.5965    0.0000 </r>
       <r>   17.6366    0.0000 </r>
       <r>   20.1874    0.0000 </r>
       <r>   21.7890    0.0000 </r>
       <r>   22.3005    0.0000 </r>
       <r>   23.9101    0.0000 </r>
       <r>   24.6161    0.0000 </r>
       <r>   25.5094    0.0000 </r>
      </set>
      <set comment="kpoint 8">
       <r>   -9.3600    1.0000 </r>
       <r>   -9.2115    1.0000 </r>
       <r>   -9.2061    1.0000 </r>
       <r>   -9.1066    1.0000 </r>
       <r>   -9.1024    1.0000 </r>
       <r>   -4.9543    1.0000 </r>
       <r>   -0.2044    1.0000 </r>
       <r>    2.5353    1.0000 </r>
       <r>    3.8659    1.0000 </r>
       <r>    7.4382    0.0000 </r>
       <r>    9.3915    0.0000 </r>
       <r>   10.1407    0.0000 </r>
       <r>   11.0835    0.0000 </r>
       <r>   13.3967    0.0000 </r>
       <r>   14.6902    0.0000 </r>
       <r>   15.8394    0.0000 </r>
       <r>   16.5915    0.0000 </r>
       <r>   19.3503    0.0000 </r>
       <r>   19.9691    0.0000 </r>
       <r>   20.1858    0.0000 </r>
       <r>   22.2881    0.0000 </r>
       <r>   23.7331    0.0000 </r>
       <r>   24.7238    0.0000 </r>
       <r>   26.0601    0.0000 </r>
      </set>
      <set comment="kpoint 9">
       <r>   -9.3201    1.0000 </r>
       <r>   -9.2272    1.0000 </r>
       <r>   -9.2219    1.0000 </r>
       <r>   -9.1142    1.0000 </r>
       <r>   -9.1022    1.0000 </r>
       <r>   -5.7607    1.0000 </r>
       <r>    1.4404    1.0000 </r>
       <r>    3.1808    1.0000 </r>
       <r>    4.4266    1.0000 </r>
       <r>    7.4031    0.0000 </r>
       <r>    9.1993    0.0000 </r>
       <r>    9.5917    0.0000 </r>
       <r>   10.0195    0.0000 </r>
       <r>   12.5239    0.0000 </r>
       <r>   14.1748    0.0000 </r>
       <r>   15.5377    0.0000 </r>
       <r>   16.2049    0.0000 </r>
       <r>   18.3704    0.0000 </r>
       <r>   19.7958    0.0000 </r>
       <r>   20.4542    0.0000 </r>
       <r>   22.2104    0.0000 </r>
       <r>   23.4339    0.0000 </r>
       <r>   23.4738    0.0000 </r>
       <r>   24.8352    0.0000 </r>
      </set>
      <set comment="kpoint 10">
       <r>   -9.3893    1.0000 </r>
       <r>   -9.1798    1.0000 </r>
       <r>   -9.1798    1.0000 </r>
       <r>   -9.1440    1.0000 </r>
       <r>   -9.0845    1.0000 </r>
       <r>   -5.0735    1.0000 </r>
       <r>    0.4067    1.0000 </r>
       <r>    2.9946    1.0000 </r>
       <r>    2.9946    1.0000 </r>
       <r>    6.8145    0.0000 </r>
       <r>    7.5958    0.0000 </r>
       <r>   12.3109    0.0000 </r>
       <r>   12.3123    0.0000 </r>
       <r>   12.3123    0.0000 </r>
       <r>   15.1532    0.0000 </r>
       <r>   17.8997    0.0000 </r>
       <r>   18.9002    0.0000 </r>
       <r>   18.9002    0.0000 </r>
       <r>   19.4623    0.0000 </r>
       <r>   19.6082    0.0000 </r>
       <r>   19.6082    0.0000 </r>
       <r>   21.6100    0.0000 </r>
       <r>   22.2629    0.0000 </r>
       <r>   25.9186    0.0000 </r>
      </set>
      <set comment="kpoint 11">
       <r>   -9.4052    1.0000 </r>
       <r>   -9.1768    1.0000 </r>
       <r>   -9.1676    1.0000 </r>
       <r>   -9.1421    1.0000 </r>
       <r>   -9.0837    1.0000 </r>
       <r>   -4.4355    1.0000 </r>
       <r>   -0.5227    1.0000 </r>
       <r>    2.1125    1.0000 </r>
       <r>    2.8497    1.0000 </r>
       <r>    7.0023    0.0000 </r>
       <r>    8.1901    0.0000 </r>
       <r>   11.8708    0.0000 </r>
       <r>   12.5179    0.0000 </r>
       <r>   14.1762    0.0000 </r>
       <r>   15.6506    0.0000 </r>
       <r>   16.7097    0.0000 </r>
       <r>   17.5434    0.0000 </r>
       <r>   18.4523    0.0000 </r>
       <r>   20.1208    0.0000 </r>
       <r>   21.2887    0.0000 </r>
       <r>   21.6553    0.0000 </r>
       <r>   22.7949    0.0000 </r>
       <r>   23.4555    0.0000 </r>
       <r>   24.2285    0.0000 </r>
      </set>
      <set comment="kpoint 12">
       <r>   -9.3867    1.0000 </r>
       <r>   -9.1955    1.0000 </r>
       <r>   -9.1780    1.0000 </r>
       <r>   -9.1227    1.0000 </r>
       <r>   -9.0979    1.0000 </r>
       <r>   -4.3641    1.0000 </r>
       <r>   -0.5877    1.0000 </r>
       <r>    1.5159    1.0000 </r>
       <r>    3.2212    1.0000 </r>
       <r>    7.3651    0.0000 </r>
       <r>    9.8243    0.0000 </r>
       <r>   11.5517    0.0000 </r>
       <r>   11.7852    0.0000 </r>
       <r>   12.6241    0.0000 </r>
       <r>   13.9728    0.0000 </r>
       <r>   17.7908    0.0000 </r>
       <r>   18.7163    0.0000 </r>
       <r>   18.8857    0.0000 </r>
       <r>   19.5774    0.0000 </r>
       <r>   19.9013    0.0000 </r>
       <r>   22.1604    0.0000 </r>
       <r>   24.1039    0.0000 </r>
       <r>   25.0672    0.0000 </r>
       <r>   25.6599    0.0000 </r>
      </set>
      <set comment="kpoint 13">
       <r>   -9.4271    1.0000 </r>
       <r>   -9.1575    1.0000 </r>
       <r>   -9.1543    1.0000 </r>
       <r>   -9.1543    1.0000 </r>
       <r>   -9.0762    1.0000 </r>
       <r>   -4.2191    1.0000 </r>
       <r>   -0.8645    1.0000 </r>
       <r>    2.5800    1.0000 </r>
       <r>    2.5800    1.0000 </r>
       <r>    6.5250    0.0000 </r>
       <r>    7.0243    0.0000 </r>
       <r>   13.8195    0.0000 </r>
       <r>   14.2405    0.0000 </r>
       <r>   14.2405    0.0000 </r>
       <r>   15.6108    0.0000 </r>
       <r>   16.5572    0.0000 </r>
       <r>   16.5572    0.0000 </r>
       <r>   18.0057    0.0000 </r>
       <r>   20.8157    0.0000 </r>
       <r>   21.0109    0.0000 </r>
       <r>   23.0869    0.0000 </r>
       <r>   23.0872    0.0000 </r>
       <r>   23.5077    0.0000 </r>
       <r>   24.0855    0.0000 </r>
      </set>
      <set comment="kpoint 14">
       <r>   -9.3765    1.0000 </r>
       <r>   -9.2016    1.0000 </r>
       <r>   -9.1840    1.0000 </r>
       <r>   -9.1277    1.0000 </r>
       <r>   -9.0921    1.0000 </r>
       <r>   -4.8306    1.0000 </r>
       <r>   -0.0150    1.0000 </r>
       <r>    2.1889    1.0000 </r>
       <r>    3.1709    1.0000 </r>
       <r>    8.3038    0.0000 </r>
       <r>    8.5194    0.0000 </r>
       <r>    9.8145    0.0000 </r>
       <r>   12.2145    0.0000 </r>
       <r>   13.0666    0.0000 </r>
       <r>   15.7820    0.0000 </r>
       <r>   16.4687    0.0000 </r>
       <r>   17.3310    0.0000 </r>
       <r>   18.3734    0.0000 </r>
       <r>   19.3381    0.0000 </r>
       <r>   21.2801    0.0000 </r>
       <r>   22.1092    0.0000 </r>
       <r>   22.9017    0.0000 </r>
       <r>   24.1907    0.0000 </r>
       <r>   24.9804    0.0000 </r>
      </set>
      <set comment="kpoint 15">
       <r>   -9.3856    1.0000 </r>
       <r>   -9.2022    1.0000 </r>
       <r>   -9.1739    1.0000 </r>
       <r>   -9.1225    1.0000 </r>
       <r>   -9.0966    1.0000 </r>
       <r>   -4.3631    1.0000 </r>
       <r>   -0.6267    1.0000 </r>
       <r>    1.7997    1.0000 </r>
       <r>    2.8146    1.0000 </r>
       <r>    8.3917    0.0000 </r>
       <r>    9.0270    0.0000 </r>
       <r>   10.4363    0.0000 </r>
       <r>   12.1552    0.0000 </r>
       <r>   12.8951    0.0000 </r>
       <r>   15.7667    0.0000 </r>
       <r>   16.3059    0.0000 </r>
       <r>   17.5076    0.0000 </r>
       <r>   19.1585    0.0000 </r>
       <r>   19.9843    0.0000 </r>
       <r>   21.0027    0.0000 </r>
       <r>   22.2913    0.0000 </r>
       <r>   23.5663    0.0000 </r>
       <r>   24.2349    0.0000 </r>
       <r>   25.7455    0.0000 </r>
      </set>
      <set comment="kpoint 16">
       <r>   -9.4041    1.0000 </r>
       <r>   -9.1849    1.0000 </r>
       <r>   -9.1617    1.0000 </r>
       <r>   -9.1361    1.0000 </r>
       <r>   -9.0887    1.0000 </r>
       <r>   -4.1634    1.0000 </r>
       <r>   -0.7573    1.0000 </r>
       <r>    2.0932    1.0000 </r>
       <r>    2.1180    1.0000 </r>
       <r>    8.0390    0.0000 </r>
       <r>    8.3691    0.0000 </r>
       <r>   11.5022    0.0000 </r>
       <r>   11.7921    0.0000 </r>
       <r>   14.7206    0.0000 </r>
       <r>   16.0152    0.0000 </r>
       <r>   16.6798    0.0000 </r>
       <r>   16.6907    0.0000 </r>
       <r>   19.5121    0.0000 </r>
       <r>   20.4776    0.0000 </r>
       <r>   21.7689    0.0000 </r>
       <r>   22.2232    0.0000 </r>
       <r>   22.4246    0.0000 </r>
       <r>   22.6523    0.0000 </r>
       <r>   24.4382    0.0000 </r>
      </set>
     </set>
     <set comment="spin 2">
      <set comment="kpoint 1">
       <r>   -9.2533    1.0000 </r>
       <r>   -9.2533    1.0000 </r>
       <r>   -9.2533    1.0000 </r>
       <r>   -9.1098    1.0000 </r>
       <r>   -9.1098    1.0000 </r>
       <r>   -6.5383    1.0000 </r>
       <r>    4.8616    1.0000 </r>
       <r>    4.8616    1.0000 </r>
       <r>    4.8616    1.0000 </r>
       <r>    5.3558    0.0000 </r>
       <r>    8.8727    0.0000 </r>
       <r>    8.8727    0.0000 </r>
       <r>    8.8727    0.0000 </r>
       <r>   13.1108    0.0000 </r>
       <r>   14.2513    0.0000 </r>
       <r>   14.2513    0.0000 </r>
       <r>   15.8472    0.0000 </r>
       <r>   15.8472    0.0000 </r>
       <r>   15.8472    0.0000 </r>
       <r>   18.3947    0.0000 </r>
       <r>   26.5714    0.0000 </r>
       <r>   26.5714    0.0000 </r>
       <r>   26.5714    0.0000 </r>
       <r>   28.5173    0.0000 </r>
      </set>
      <set comment="kpoint 2">
       <r>   -9.2829    1.0000 </r>
       <r>   -9.2415    1.0000 </r>
       <r>   -9.2415    1.0000 </r>
       <r>   -9.1094    1.0000 </r>
       <r>   -9.1094    1.0000 </r>
       <r>   -6.2330    1.0000 </r>
       <r>    2.6487    1.0000 </r>
       <r>    4.5621    1.0000 </r>
       <r>    4.5621    1.0000 </r>
       <r>    6.5031    0.0000 </r>
       <r>    9.2315    0.0000 </r>
       <r>    9.3061    0.0000 </r>
       <r>    9.3061    0.0000 </r>
       <r>   13.3955    0.0000 </r>
       <r>   13.3955    0.0000 </r>
       <r>   14.0686    0.0000 </r>
       <r>   15.5052    0.0000 </r>
       <r>   17.7609    0.0000 </r>
       <r>   17.7609    0.0000 </r>
       <r>   20.4761    0.0000 </r>
       <r>   23.5491    0.0000 </r>
       <r>   23.6936    0.0000 </r>
       <r>   23.6936    0.0000 </r>
       <r>   28.1590    0.0000 </r>
      </set>
      <set comment="kpoint 3">
       <r>   -9.3383    1.0000 </r>
       <r>   -9.2229    1.0000 </r>
       <r>   -9.2229    1.0000 </r>
       <r>   -9.1033    1.0000 </r>
       <r>   -9.1033    1.0000 </r>
       <r>   -5.4450    1.0000 </r>
       <r>    0.3128    1.0000 </r>
       <r>    4.0985    1.0000 </r>
       <r>    4.0985    1.0000 </r>
       <r>    6.3617    0.0000 </r>
       <r>    9.6455    0.0000 </r>
       <r>    9.6455    0.0000 </r>
       <r>   10.9530    0.0000 </r>
       <r>   13.5059    0.0000 </r>
       <r>   13.8630    0.0000 </r>
       <r>   13.8630    0.0000 </r>
       <r>   18.3590    0.0000 </r>
       <r>   19.7207    0.0000 </r>
       <r>   19.7207    0.0000 </r>
       <r>   20.2124    0.0000 </r>
       <r>   21.1548    0.0000 </r>
       <r>   21.1548    0.0000 </r>
       <r>   24.4023    0.0000 </r>
       <r>   28.0089    0.0000 </r>
      </set>
      <set comment="kpoint 4">
       <r>   -9.3644    1.0000 </r>
       <r>   -9.2166    1.0000 </r>
       <r>   -9.2166    1.0000 </r>
       <r>   -9.0971    1.0000 </r>
       <r>   -9.0971    1.0000 </r>
       <r>   -4.8593    1.0000 </r>
       <r>   -0.8276    1.0000 </r>
       <r>    3.9071    1.0000 </r>
       <r>    3.9071    1.0000 </r>
       <r>    6.2062    0.0000 </r>
       <r>    9.5898    0.0000 </r>
       <r>    9.5898    0.0000 </r>
       <r>   11.7638    0.0000 </r>
       <r>   14.0708    0.0000 </r>
       <r>   15.4135    0.0000 </r>
       <r>   15.4135    0.0000 </r>
       <r>   16.9648    0.0000 </r>
       <r>   17.3493    0.0000 </r>
       <r>   17.3493    0.0000 </r>
       <r>   22.7563    0.0000 </r>
       <r>   24.0748    0.0000 </r>
       <r>   24.0749    0.0000 </r>
       <r>   25.1757    0.0000 </r>
       <r>   25.6654    0.0000 </r>
      </set>
      <set comment="kpoint 5">
       <r>   -9.3041    1.0000 </r>
       <r>   -9.2295    1.0000 </r>
       <r>   -9.2295    1.0000 </r>
       <r>   -9.1200    1.0000 </r>
       <r>   -9.1015    1.0000 </r>
       <r>   -6.1325    1.0000 </r>
       <r>    2.6660    1.0000 </r>
       <r>    4.0599    1.0000 </r>
       <r>    4.0599    1.0000 </r>
       <r>    7.3648    0.0000 </r>
       <r>    7.8840    0.0000 </r>
       <r>   10.0531    0.0000 </r>
       <r>   10.0531    0.0000 </r>
       <r>   12.0122    0.0000 </r>
       <r>   14.5041    0.0000 </r>
       <r>   15.0514    0.0000 </r>
       <r>   16.7679    0.0000 </r>
       <r>   16.7679    0.0000 </r>
       <r>   17.0775    0.0000 </r>
       <r>   21.6303    0.0000 </r>
       <r>   22.9681    0.0000 </r>
       <r>   22.9681    0.0000 </r>
       <r>   24.7321    0.0000 </r>
       <r>   25.2270    0.0000 </r>
      </set>
      <set comment="kpoint 6">
       <r>   -9.3474    1.0000 </r>
       <r>   -9.2128    1.0000 </r>
       <r>   -9.2079    1.0000 </r>
       <r>   -9.1244    1.0000 </r>
       <r>   -9.0944    1.0000 </r>
       <r>   -5.4971    1.0000 </r>
       <r>    0.9058    1.0000 </r>
       <r>    3.3722    1.0000 </r>
       <r>    3.5727    1.0000 </r>
       <r>    7.4631    0.0000 </r>
       <r>    8.4875    0.0000 </r>
       <r>   10.2807    0.0000 </r>
       <r>   10.7121    0.0000 </r>
       <r>   12.7986    0.0000 </r>
       <r>   14.7531    0.0000 </r>
       <r>   15.3915    0.0000 </r>
       <r>   17.8038    0.0000 </r>
       <r>   18.9429    0.0000 </r>
       <r>   19.7931    0.0000 </r>
       <r>   19.8675    0.0000 </r>
       <r>   20.4651    0.0000 </r>
       <r>   23.0608    0.0000 </r>
       <r>   24.8859    0.0000 </r>
       <r>   25.0007    0.0000 </r>
      </set>
      <set comment="kpoint 7">
       <r>   -9.3720    1.0000 </r>
       <r>   -9.2090    1.0000 </r>
       <r>   -9.1996    1.0000 </r>
       <r>   -9.1137    1.0000 </r>
       <r>   -9.0940    1.0000 </r>
       <r>   -4.7435    1.0000 </r>
       <r>   -0.5787    1.0000 </r>
       <r>    2.7107    1.0000 </r>
       <r>    3.4958    1.0000 </r>
       <r>    7.3206    0.0000 </r>
       <r>    9.1455    0.0000 </r>
       <r>   10.4863    0.0000 </r>
       <r>   11.3230    0.0000 </r>
       <r>   13.9668    0.0000 </r>
       <r>   15.4696    0.0000 </r>
       <r>   15.6154    0.0000 </r>
       <r>   16.5965    0.0000 </r>
       <r>   17.6366    0.0000 </r>
       <r>   20.1875    0.0000 </r>
       <r>   21.7889    0.0000 </r>
       <r>   22.3006    0.0000 </r>
       <r>   23.9099    0.0000 </r>
       <r>   24.6160    0.0000 </r>
       <r>   25.5168    0.0000 </r>
      </set>
      <set comment="kpoint 8">
       <r>   -9.3605    1.0000 </r>
       <r>   -9.2120    1.0000 </r>
       <r>   -9.2067    1.0000 </r>
       <r>   -9.1071    1.0000 </r>
       <r>   -9.1029    1.0000 </r>
       <r>   -4.9543    1.0000 </r>
       <r>   -0.2043    1.0000 </r>
       <r>    2.5353    1.0000 </r>
       <r>    3.8660    1.0000 </r>
       <r>    7.4382    0.0000 </r>
       <r>    9.3915    0.0000 </r>
       <r>   10.1408    0.0000 </r>
       <r>   11.0834    0.0000 </r>
       <r>   13.3967    0.0000 </r>
       <r>   14.6901    0.0000 </r>
       <r>   15.8394    0.0000 </r>
       <r>   16.5915    0.0000 </r>
       <r>   19.3502    0.0000 </r>
       <r>   19.9692    0.0000 </r>
       <r>   20.1859    0.0000 </r>
       <r>   22.2880    0.0000 </r>
       <r>   23.7332    0.0000 </r>
       <r>   24.7238    0.0000 </r>
       <r>   26.0606    0.0000 </r>
      </set>
      <set comment="kpoint 9">
       <r>   -9.3206    1.0000 </r>
       <r>   -9.2277    1.0000 </r>
       <r>   -9.2225    1.0000 </r>
       <r>   -9.1147    1.0000 </r>
       <r>   -9.1027    1.0000 </r>
       <r>   -5.7606    1.0000 </r>
       <r>    1.4404    1.0000 </r>
       <r>    3.1808    1.0000 </r>
       <r>    4.4267    1.0000 </r>
       <r>    7.4031    0.0000 </r>
       <r>    9.1993    0.0000 </r>
       <r>    9.5918    0.0000 </r>
       <r>   10.0196    0.0000 </r>
       <r>   12.5239    0.0000 </r>
       <r>   14.1748    0.0000 </r>
       <r>   15.5376    0.0000 </r>
       <r>   16.2049    0.0000 </r>
       <r>   18.3702    0.0000 </r>
       <r>   19.7958    0.0000 </r>
       <r>   20.4542    0.0000 </r>
       <r>   22.2104    0.0000 </r>
       <r>   23.4337    0.0000 </r>
       <r>   23.4738    0.0000 </r>
       <r>   24.8352    0.0000 </r>
      </set>
      <set comment="kpoint 10">
       <r>   -9.3899    1.0000 </r>
       <r>   -9.1803    1.0000 </r>
       <r>   -9.1803    1.0000 </r>
       <r>   -9.1445    1.0000 </r>
       <r>   -9.0850    1.0000 </r>
       <r>   -5.0735    1.0000 </r>
       <r>    0.4068    1.0000 </r>
       <r>    2.9947    1.0000 </r>
       <r>    2.9947    1.0000 </r>
       <r>    6.8145    0.0000 </r>
       <r>    7.5958    0.0000 </r>
       <r>   12.3108    0.0000 </r>
       <r>   12.3124    0.0000 </r>
       <r>   12.3124    0.0000 </r>
       <r>   15.1533    0.0000 </r>
       <r>   17.8995    0.0000 </r>
       <r>   18.9003    0.0000 </r>
       <r>   18.9003    0.0000 </r>
       <r>   19.4623    0.0000 </r>
       <r>   19.6082    0.0000 </r>
       <r>   19.6082    0.0000 </r>
       <r>   21.6100    0.0000 </r>
       <r>   22.2629    0.0000 </r>
       <r>   25.9183    0.0000 </r>
      </set>
      <set comment="kpoint 11">
       <r>   -9.4058    1.0000 </r>
       <r>   -9.1773    1.0000 </r>
       <r>   -9.1682    1.0000 </r>
       <r>   -9.1426    1.0000 </r>
       <r>   -9.0843    1.0000 </r>
       <r>   -4.4354    1.0000 </r>
       <r>   -0.5227    1.0000 </r>
       <r>    2.1126    1.0000 </r>
       <r>    2.8498    1.0000 </r>
       <r>    7.0022    0.0000 </r>
       <r>    8.1902    0.0000 </r>
       <r>   11.8708    0.0000 </r>
       <r>   12.5180    0.0000 </r>
       <r>   14.1761    0.0000 </r>
       <r>   15.6508    0.0000 </r>
       <r>   16.7098    0.0000 </r>
       <r>   17.5434    0.0000 </r>
       <r>   18.4522    0.0000 </r>
       <r>   20.1208    0.0000 </r>
       <r>   21.2887    0.0000 </r>
       <r>   21.6552    0.0000 </r>
       <r>   22.7949    0.0000 </r>
       <r>   23.4553    0.0000 </r>
       <r>   24.2284    0.0000 </r>
      </set>
      <set comment="kpoint 12">
       <r>   -9.3872    1.0000 </r>
       <r>   -9.1961    1.0000 </r>
       <r>   -9.1785    1.0000 </r>
       <r>   -9.1232    1.0000 </r>
       <r>   -9.0985    1.0000 </r>
       <r>   -4.3640    1.0000 </r>
       <r>   -0.5877    1.0000 </r>
       <r>    1.5160    1.0000 </r>
       <r>    3.2213    1.0000 </r>
       <r>    7.3651    0.0000 </r>
       <r>    9.8243    0.0000 </r>
       <r>   11.5518    0.0000 </r>
       <r>   11.7851    0.0000 </r>
       <r>   12.6241    0.0000 </r>
       <r>   13.9728    0.0000 </r>
       <r>   17.7907    0.0000 </r>
       <r>   18.7163    0.0000 </r>
       <r>   18.8856    0.0000 </r>
       <r>   19.5775    0.0000 </r>
       <r>   19.9013    0.0000 </r>
       <r>   22.1604    0.0000 </r>
       <r>   24.1039    0.0000 </r>
       <r>   25.0673    0.0000 </r>
       <r>   25.6568    0.0000 </r>
      </set>
      <set comment="kpoint 13">
       <r>   -9.4276    1.0000 </r>
       <r>   -9.1580    1.0000 </r>
       <r>   -9.1549    1.0000 </r>
       <r>   -9.1549    1.0000 </r>
       <r>   -9.0767    1.0000 </r>
       <r>   -4.2191    1.0000 </r>
       <r>   -0.8644    1.0000 </r>
       <r>    2.5801    1.0000 </r>
       <r>    2.5801    1.0000 </r>
       <r>    6.5250    0.0000 </r>
       <r>    7.0242    0.0000 </r>
       <r>   13.8194    0.0000 </r>
       <r>   14.2406    0.0000 </r>
       <r>   14.2406    0.0000 </r>
       <r>   15.6110    0.0000 </r>
       <r>   16.5572    0.0000 </r>
       <r>   16.5572    0.0000 </r>
       <r>   18.0056    0.0000 </r>
       <r>   20.8157    0.0000 </r>
       <r>   21.0109    0.0000 </r>
       <r>   23.0868    0.0000 </r>
       <r>   23.0869    0.0000 </r>
       <r>   23.5023    0.0000 </r>
       <r>   24.0740    0.0000 </r>
      </set>
      <set comment="kpoint 14">
       <r>   -9.3770    1.0000 </r>
       <r>   -9.2022    1.0000 </r>
       <r>   -9.1846    1.0000 </r>
       <r>   -9.1282    1.0000 </r>
       <r>   -9.0926    1.0000 </r>
       <r>   -4.8305    1.0000 </r>
       <r>   -0.0149    1.0000 </r>
       <r>    2.1890    1.0000 </r>
       <r>    3.1710    1.0000 </r>
       <r>    8.3038    0.0000 </r>
       <r>    8.5194    0.0000 </r>
       <r>    9.8145    0.0000 </r>
       <r>   12.2145    0.0000 </r>
       <r>   13.0666    0.0000 </r>
       <r>   15.7820    0.0000 </r>
       <r>   16.4687    0.0000 </r>
       <r>   17.3309    0.0000 </r>
       <r>   18.3734    0.0000 </r>
       <r>   19.3381    0.0000 </r>
       <r>   21.2801    0.0000 </r>
       <r>   22.1091    0.0000 </r>
       <r>   22.9017    0.0000 </r>
       <r>   24.1908    0.0000 </r>
       <r>   24.9805    0.0000 </r>
      </set>
      <set comment="kpoint 15">
       <r>   -9.3861    1.0000 </r>
       <r>   -9.2028    1.0000 </r>
       <r>   -9.1744    1.0000 </r>
       <r>   -9.1230    1.0000 </r>
       <r>   -9.0972    1.0000 </r>
       <r>   -4.3630    1.0000 </r>
       <r>   -0.6267    1.0000 </r>
       <r>    1.7998    1.0000 </r>
       <r>    2.8147    1.0000 </r>
       <r>    8.3917    0.0000 </r>
       <r>    9.0270    0.0000 </r>
       <r>   10.4363    0.0000 </r>
       <r>   12.1552    0.0000 </r>
       <r>   12.8951    0.0000 </r>
       <r>   15.7667    0.0000 </r>
       <r>   16.3060    0.0000 </r>
       <r>   17.5075    0.0000 </r>
       <r>   19.1585    0.0000 </r>
       <r>   19.9844    0.0000 </r>
       <r>   21.0026    0.0000 </r>
       <r>   22.2913    0.0000 </r>
       <r>   23.5663    0.0000 </r>
       <r>   24.2350    0.0000 </r>
       <r>   25.7696    0.0000 </r>
      </set>
      <set comment="kpoint 16">
       <r>   -9.4046    1.0000 </r>
       <r>   -9.1855    1.0000 </r>
       <r>   -9.1623    1.0000 </r>
       <r>   -9.1366    1.0000 </r>
       <r>   -9.0892    1.0000 </r>
       <r>   -4.1633    1.0000 </r>
       <r>   -0.7573    1.0000 </r>
       <r>    2.0933    1.0000 </r>
       <r>    2.1180    1.0000 </r>
       <r>    8.0390    0.0000 </r>
       <r>    8.3691    0.0000 </r>
       <r>   11.5023    0.0000 </r>
       <r>   11.7921    0.0000 </r>
       <r>   14.7206    0.0000 </r>
       <r>   16.0153    0.0000 </r>
       <r>   16.6799    0.0000 </r>
       <r>   16.6907    0.0000 </r>
       <r>   19.5121    0.0000 </r>
       <r>   20.4776    0.0000 </r>
       <r>   21.7689    0.0000 </r>
       <r>   22.2231    0.0000 </r>
       <r>   22.4246    0.0000 </r>
       <r>   22.6522    0.0000 </r>
       <r>   24.4383    0.0000 </r>
      </set>
     </set>
    </set>
   </array>
  </eigenvalues>
  <separator name="orbital magnetization" >
   <v name="MAGDIPOLOUT">      0.00000000      0.00000000      0.00000000</v>
  </separator>
  <dos>
   <i name="efermi">      4.93964756 </i>
   <total>
    <array>
     <dimension dim="1">gridpoints</dimension>
     <dimension dim="2">spin</dimension>
     <field>energy</field>
     <field>total</field>
     <field>integrated</field>
     <set>
      <set comment="spin 1">
       <r>   -11.4276     0.0000     0.0000 </r>
       <r>   -11.2878     0.0000     0.0000 </r>
       <r>   -11.1479     0.0000     0.0000 </r>
       <r>   -11.0081     0.0000     0.0000 </r>
       <r>   -10.8683     0.0000     0.0000 </r>
       <r>   -10.7285     0.0000     0.0000 </r>
       <r>   -10.5887     0.0000     0.0000 </r>
       <r>   -10.4489     0.0000     0.0000 </r>
       <r>   -10.3091     0.0000     0.0000 </r>
       <r>   -10.1692     0.0000     0.0000 </r>
       <r>   -10.0294     0.0000     0.0000 </r>
       <r>    -9.8896     0.0000     0.0000 </r>
       <r>    -9.7498     0.0000     0.0000 </r>
       <r>    -9.6100     0.0000     0.0000 </r>
       <r>    -9.4702     0.0000     0.0000 </r>
       <r>    -9.3303     9.0076     0.8846 </r>
       <r>    -9.1905    36.3290     2.3491 </r>
       <r>    -9.0507    16.5561     5.0000 </r>
       <r>    -8.9109     0.0000     5.0000 </r>
       <r>    -8.7711     0.0000     5.0000 </r>
       <r>    -8.6313     0.0000     5.0000 </r>
       <r>    -8.4914     0.0000     5.0000 </r>
       <r>    -8.3516     0.0000     5.0000 </r>
       <r>    -8.2118     0.0000     5.0000 </r>
       <r>    -8.0720     0.0000     5.0000 </r>
       <r>    -7.9322     0.0000     5.0000 </r>
       <r>    -7.7924     0.0000     5.0000 </r>
       <r>    -7.6525     0.0000     5.0000 </r>
       <r>    -7.5127     0.0000     5.0000 </r>
       <r>    -7.3729     0.0000     5.0000 </r>
       <r>    -7.2331     0.0000     5.0000 </r>
       <r>    -7.0933     0.0000     5.0000 </r>
       <r>    -6.9535     0.0000     5.0000 </r>
       <r>    -6.8136     0.0000     5.0000 </r>
       <r>    -6.6738     0.0000     5.0000 </r>
       <r>    -6.5340     0.0000     5.0000 </r>
       <r>    -6.3942     0.0305     5.0015 </r>
       <r>    -6.2544     0.1185     5.0112 </r>
       <r>    -6.1146     0.1329     5.0291 </r>
       <r>    -5.9748     0.1659     5.0500 </r>
       <r>    -5.8349     0.2019     5.0757 </r>
       <r>    -5.6951     0.2406     5.1066 </r>
       <r>    -5.5553     0.2797     5.1430 </r>
       <r>    -5.4155     0.3238     5.1849 </r>
       <r>    -5.2757     0.3808     5.2341 </r>
       <r>    -5.1359     0.4467     5.2918 </r>
       <r>    -4.9960     0.5216     5.3594 </r>
       <r>    -4.8562     0.8626     5.4472 </r>
       <r>    -4.7164     0.7994     5.5746 </r>
       <r>    -4.5766     0.8113     5.6870 </r>
       <r>    -4.4368     0.8396     5.8022 </r>
       <r>    -4.2970     0.8384     5.9497 </r>
       <r>    -4.1571     0.0000     6.0000 </r>
       <r>    -4.0173     0.0000     6.0000 </r>
       <r>    -3.8775     0.0000     6.0000 </r>
       <r>    -3.7377     0.0000     6.0000 </r>
       <r>    -3.5979     0.0000     6.0000 </r>
       <r>    -3.4581     0.0000     6.0000 </r>
       <r>    -3.3182     0.0000     6.0000 </r>
       <r>    -3.1784     0.0000     6.0000 </r>
       <r>    -3.0386     0.0000     6.0000 </r>
       <r>    -2.8988     0.0000     6.0000 </r>
       <r>    -2.7590     0.0000     6.0000 </r>
       <r>    -2.6192     0.0000     6.0000 </r>
       <r>    -2.4793     0.0000     6.0000 </r>
       <r>    -2.3395     0.0000     6.0000 </r>
       <r>    -2.1997     0.0000     6.0000 </r>
       <r>    -2.0599     0.0000     6.0000 </r>
       <r>    -1.9201     0.0000     6.0000 </r>
       <r>    -1.7803     0.0000     6.0000 </r>
       <r>    -1.6404     0.0000     6.0000 </r>
       <r>    -1.5006     0.0000     6.0000 </r>
       <r>    -1.3608     0.0000     6.0000 </r>
       <r>    -1.2210     0.0000     6.0000 </r>
       <r>    -1.0812     0.0000     6.0000 </r>
       <r>    -0.9414     0.0000     6.0000 </r>
       <r>    -0.8016     0.0390     6.0008 </r>
       <r>    -0.6617     0.9940     6.0574 </r>
       <r>    -0.5219     1.4854     6.2901 </r>
       <r>    -0.3821     0.8537     6.4338 </r>
       <r>    -0.2423     0.6009     6.5342 </r>
       <r>    -0.1025     0.3710     6.6020 </r>
       <r>     0.0373     0.2997     6.6471 </r>
       <r>     0.1772     0.2741     6.6872 </r>
       <r>     0.3170     0.2512     6.7239 </r>
       <r>     0.4568     0.2297     6.7575 </r>
       <r>     0.5966     0.2067     6.7881 </r>
       <r>     0.7364     0.1817     6.8152 </r>
       <r>     0.8762     0.1546     6.8388 </r>
       <r>     1.0161     0.1288     6.8585 </r>
       <r>     1.1559     0.1089     6.8751 </r>
       <r>     1.2957     0.0948     6.8892 </r>
       <r>     1.4355     0.0864     6.9018 </r>
       <r>     1.5753     0.0994     6.9139 </r>
       <r>     1.7151     0.2805     6.9381 </r>
       <r>     1.8550     0.6260     7.0010 </r>
       <r>     1.9948     0.8236     7.1049 </r>
       <r>     2.1346     1.1194     7.2363 </r>
       <r>     2.2744     0.7135     7.3443 </r>
       <r>     2.4142     0.7416     7.4453 </r>
       <r>     2.5540     0.8239     7.5543 </r>
       <r>     2.6939     0.8731     7.6741 </r>
       <r>     2.8337     0.9500     7.8012 </r>
       <r>     2.9735     0.9887     7.9380 </r>
       <r>     3.1133     0.9613     8.0745 </r>
       <r>     3.2531     0.9358     8.2068 </r>
       <r>     3.3929     0.9279     8.3375 </r>
       <r>     3.5327     0.8745     8.4626 </r>
       <r>     3.6726     0.8597     8.5845 </r>
       <r>     3.8124     0.7725     8.6995 </r>
       <r>     3.9522     0.5532     8.7947 </r>
       <r>     4.0920     0.3782     8.8578 </r>
       <r>     4.2318     0.3098     8.9057 </r>
       <r>     4.3716     0.2577     8.9451 </r>
       <r>     4.5115     0.1928     8.9777 </r>
       <r>     4.6513     0.0685     8.9952 </r>
       <r>     4.7911     0.0077     8.9998 </r>
       <r>     4.9309     0.0000     9.0000 </r>
       <r>     5.0707     0.0000     9.0000 </r>
       <r>     5.2105     0.0000     9.0000 </r>
       <r>     5.3504     0.0000     9.0000 </r>
       <r>     5.4902     0.0004     9.0000 </r>
       <r>     5.6300     0.0016     9.0001 </r>
       <r>     5.7698     0.0036     9.0005 </r>
       <r>     5.9096     0.0064     9.0012 </r>
       <r>     6.0494     0.0101     9.0023 </r>
       <r>     6.1893     0.0146     9.0041 </r>
       <r>     6.3291     0.0289     9.0068 </r>
       <r>     6.4689     0.0690     9.0133 </r>
       <r>     6.6087     0.1414     9.0276 </r>
       <r>     6.7485     0.2534     9.0547 </r>
       <r>     6.8883     0.3877     9.0999 </r>
       <r>     7.0282     0.4643     9.1594 </r>
       <r>     7.1680     0.6215     9.2348 </r>
       <r>     7.3078     0.8249     9.3353 </r>
       <r>     7.4476     1.2767     9.4840 </r>
       <r>     7.5874     0.8929     9.6219 </r>
       <r>     7.7272     0.7603     9.7370 </r>
       <r>     7.8670     0.6691     9.8364 </r>
       <r>     8.0069     0.6154     9.9259 </r>
       <r>     8.1467     0.6645    10.0143 </r>
       <r>     8.2865     0.7336    10.1123 </r>
       <r>     8.4263     0.4961    10.1985 </r>
       <r>     8.5661     0.5965    10.2747 </r>
       <r>     8.7059     0.6744    10.3638 </r>
       <r>     8.8458     0.7345    10.4625 </r>
       <r>     8.9856     0.7776    10.5684 </r>
       <r>     9.1254     1.0153    10.6863 </r>
       <r>     9.2652     0.9669    10.8339 </r>
       <r>     9.4050     0.7256    10.9532 </r>
       <r>     9.5448     0.4794    11.0375 </r>
       <r>     9.6847     0.3988    11.0929 </r>
       <r>     9.8245     0.5807    11.1601 </r>
       <r>     9.9643     0.7716    11.2555 </r>
       <r>    10.1041     0.8849    11.3723 </r>
       <r>    10.2439     0.8975    11.4989 </r>
       <r>    10.3837     0.8560    11.6192 </r>
       <r>    10.5236     0.5579    11.7246 </r>
       <r>    10.6634     0.5523    11.8023 </r>
       <r>    10.8032     0.5587    11.8795 </r>
       <r>    10.9430     0.5997    11.9601 </r>
       <r>    11.0828     0.6194    12.0464 </r>
       <r>    11.2226     0.6876    12.1357 </r>
       <r>    11.3625     0.8020    12.2444 </r>
       <r>    11.5023     0.6659    12.3466 </r>
       <r>    11.6421     0.6105    12.4354 </r>
       <r>    11.7819     0.5415    12.5163 </r>
       <r>    11.9217     0.7463    12.6056 </r>
       <r>    12.0615     0.8636    12.7200 </r>
       <r>    12.2013     0.5826    12.8336 </r>
       <r>    12.3412     0.4601    12.9033 </r>
       <r>    12.4810     0.3450    12.9610 </r>
       <r>    12.6208     0.3592    13.0062 </r>
       <r>    12.7606     0.5713    13.0687 </r>
       <r>    12.9004     0.8232    13.1677 </r>
       <r>    13.0402     0.8518    13.2839 </r>
       <r>    13.1801     0.8912    13.4071 </r>
       <r>    13.3199     0.7840    13.5260 </r>
       <r>    13.4597     0.6424    13.6227 </r>
       <r>    13.5995     0.6530    13.7132 </r>
       <r>    13.7393     0.6415    13.8040 </r>
       <r>    13.8791     0.6001    13.8912 </r>
       <r>    14.0190     0.4071    13.9668 </r>
       <r>    14.1588     0.4226    14.0208 </r>
       <r>    14.2986     0.5596    14.0971 </r>
       <r>    14.4384     0.5175    14.1716 </r>
       <r>    14.5782     0.5366    14.2447 </r>
       <r>    14.7180     0.5950    14.3237 </r>
       <r>    14.8579     0.6290    14.4095 </r>
       <r>    14.9977     0.6834    14.5009 </r>
       <r>    15.1375     0.7717    14.6021 </r>
       <r>    15.2773     0.9084    14.7190 </r>
       <r>    15.4171     1.0558    14.8579 </r>
       <r>    15.5569     1.0922    14.9986 </r>
       <r>    15.6968     1.4017    15.1821 </r>
       <r>    15.8366     1.0929    15.3603 </r>
       <r>    15.9764     0.5863    15.4745 </r>
       <r>    16.1162     0.4687    15.5440 </r>
       <r>    16.2560     0.4400    15.6074 </r>
       <r>    16.3958     0.6602    15.6795 </r>
       <r>    16.5356     0.7752    15.7823 </r>
       <r>    16.6755     1.6946    15.9451 </r>
       <r>    16.8153     0.9314    16.0986 </r>
       <r>    16.9551     0.9323    16.2281 </r>
       <r>    17.0949     0.9751    16.3614 </r>
       <r>    17.2347     1.0234    16.5010 </r>
       <r>    17.3745     1.0565    16.6475 </r>
       <r>    17.5144     0.7926    16.7811 </r>
       <r>    17.6542     0.6748    16.8816 </r>
       <r>    17.7940     0.5869    16.9695 </r>
       <r>    17.9338     0.5177    17.0463 </r>
       <r>    18.0736     0.4926    17.1163 </r>
       <r>    18.2134     0.5315    17.1871 </r>
       <r>    18.3533     0.6378    17.2681 </r>
       <r>    18.4931     1.0015    17.3837 </r>
       <r>    18.6329     1.0650    17.5288 </r>
       <r>    18.7727     1.0743    17.6790 </r>
       <r>    18.9125     1.0115    17.8263 </r>
       <r>    19.0523     0.8148    17.9489 </r>
       <r>    19.1922     0.6016    18.0495 </r>
       <r>    19.3320     0.3684    18.1167 </r>
       <r>    19.4718     0.4133    18.1659 </r>
       <r>    19.6116     0.7910    18.2474 </r>
       <r>    19.7514     1.3277    18.3903 </r>
       <r>    19.8912     1.5226    18.6136 </r>
       <r>    20.0311     1.5434    18.8220 </r>
       <r>    20.1709     1.0667    19.0118 </r>
       <r>    20.3107     0.9582    19.1531 </r>
       <r>    20.4505     0.7475    19.2737 </r>
       <r>    20.5903     0.6991    19.3754 </r>
       <r>    20.7301     0.6730    19.4708 </r>
       <r>    20.8699     0.6913    19.5657 </r>
       <r>    21.0098     0.7334    19.6650 </r>
       <r>    21.1496     0.8785    19.7762 </r>
       <r>    21.2894     1.2082    19.9166 </r>
       <r>    21.4292     0.8247    20.0573 </r>
       <r>    21.5690     0.5629    20.1529 </r>
       <r>    21.7088     0.4748    20.2218 </r>
       <r>    21.8487     0.6032    20.2957 </r>
       <r>    21.9885     0.7789    20.3921 </r>
       <r>    22.1283     1.0330    20.5148 </r>
       <r>    22.2681     2.6270    20.8013 </r>
       <r>    22.4079     0.5910    20.9294 </r>
       <r>    22.5477     0.4023    20.9787 </r>
       <r>    22.6876     0.6179    21.0483 </r>
       <r>    22.8274     0.7933    21.1554 </r>
       <r>    22.9672     0.7267    21.2564 </r>
       <r>    23.1070     1.0136    21.3794 </r>
       <r>    23.2468     1.1050    21.5280 </r>
       <r>    23.3866     1.1578    21.6866 </r>
       <r>    23.5265     0.9504    21.8388 </r>
       <r>    23.6663     0.9298    21.9683 </r>
       <r>    23.8061     1.0571    22.1079 </r>
       <r>    23.9459     0.8054    22.2475 </r>
       <r>    24.0857     0.5452    22.3340 </r>
       <r>    24.2255     0.9781    22.4309 </r>
       <r>    24.3654     0.9937    22.5691 </r>
       <r>    24.5052     1.1725    22.7176 </r>
       <r>    24.6450     1.4597    22.9043 </r>
       <r>    24.7848     0.8948    23.0763 </r>
       <r>    24.9246     0.6891    23.1733 </r>
       <r>    25.0644     0.7009    23.2843 </r>
       <r>    25.2043     0.6283    23.3761 </r>
       <r>    25.3441     0.6066    23.4623 </r>
       <r>    25.4839     0.5988    23.5464 </r>
       <r>    25.6237     0.9295    23.6521 </r>
       <r>    25.7635     0.6623    23.7753 </r>
       <r>    25.9033     0.3107    23.8412 </r>
       <r>    26.0431     0.1404    23.8707 </r>
       <r>    26.1830     0.1197    23.8884 </r>
       <r>    26.3228     0.1071    23.9043 </r>
       <r>    26.4626     0.0955    23.9184 </r>
       <r>    26.6024     0.0849    23.9310 </r>
       <r>    26.7422     0.0751    23.9422 </r>
       <r>    26.8820     0.0660    23.9521 </r>
       <r>    27.0219     0.0576    23.9607 </r>
       <r>    27.1617     0.0499    23.9682 </r>
       <r>    27.3015     0.0429    23.9747 </r>
       <r>    27.4413     0.0367    23.9802 </r>
       <r>    27.5811     0.0311    23.9850 </r>
       <r>    27.7209     0.0263    23.9890 </r>
       <r>    27.8608     0.0221    23.9923 </r>
       <r>    28.0006     0.0187    23.9952 </r>
       <r>    28.1404     0.0169    23.9976 </r>
       <r>    28.2802     0.0075    23.9994 </r>
       <r>    28.4200     0.0013    24.0000 </r>
       <r>    28.5598     0.0000    24.0000 </r>
       <r>    28.6997     0.0000    24.0000 </r>
       <r>    28.8395     0.0000    24.0000 </r>
       <r>    28.9793     0.0000    24.0000 </r>
       <r>    29.1191     0.0000    24.0000 </r>
       <r>    29.2589     0.0000    24.0000 </r>
       <r>    29.3987     0.0000    24.0000 </r>
       <r>    29.5386     0.0000    24.0000 </r>
       <r>    29.6784     0.0000    24.0000 </r>
       <r>    29.8182     0.0000    24.0000 </r>
       <r>    29.9580     0.0000    24.0000 </r>
       <r>    30.0978     0.0000    24.0000 </r>
       <r>    30.2376     0.0000    24.0000 </r>
       <r>    30.3774     0.0000    24.0000 </r>
       <r>    30.5173     0.0000    24.0000 </r>
      </set>
      <set comment="spin 2">
       <r>   -11.4276     0.0000     0.0000 </r>
       <r>   -11.2878     0.0000     0.0000 </r>
       <r>   -11.1479     0.0000     0.0000 </r>
       <r>   -11.0081     0.0000     0.0000 </r>
       <r>   -10.8683     0.0000     0.0000 </r>
       <r>   -10.7285     0.0000     0.0000 </r>
       <r>   -10.5887     0.0000     0.0000 </r>
       <r>   -10.4489     0.0000     0.0000 </r>
       <r>   -10.3091     0.0000     0.0000 </r>
       <r>   -10.1692     0.0000     0.0000 </r>
       <r>   -10.0294     0.0000     0.0000 </r>
       <r>    -9.8896     0.0000     0.0000 </r>
       <r>    -9.7498     0.0000     0.0000 </r>
       <r>    -9.6100     0.0000     0.0000 </r>
       <r>    -9.4702     0.0000     0.0000 </r>
       <r>    -9.3303     8.9465     0.8865 </r>
       <r>    -9.1905    35.9218     2.3656 </r>
       <r>    -9.0507    16.5561     5.0000 </r>
       <r>    -8.9109     0.0000     5.0000 </r>
       <r>    -8.7711     0.0000     5.0000 </r>
       <r>    -8.6313     0.0000     5.0000 </r>
       <r>    -8.4914     0.0000     5.0000 </r>
       <r>    -8.3516     0.0000     5.0000 </r>
       <r>    -8.2118     0.0000     5.0000 </r>
       <r>    -8.0720     0.0000     5.0000 </r>
       <r>    -7.9322     0.0000     5.0000 </r>
       <r>    -7.7924     0.0000     5.0000 </r>
       <r>    -7.6525     0.0000     5.0000 </r>
       <r>    -7.5127     0.0000     5.0000 </r>
       <r>    -7.3729     0.0000     5.0000 </r>
       <r>    -7.2331     0.0000     5.0000 </r>
       <r>    -7.0933     0.0000     5.0000 </r>
       <r>    -6.9535     0.0000     5.0000 </r>
       <r>    -6.8136     0.0000     5.0000 </r>
       <r>    -6.6738     0.0000     5.0000 </r>
       <r>    -6.5340     0.0000     5.0000 </r>
       <r>    -6.3942     0.0305     5.0015 </r>
       <r>    -6.2544     0.1184     5.0112 </r>
       <r>    -6.1146     0.1328     5.0291 </r>
       <r>    -5.9748     0.1659     5.0500 </r>
       <r>    -5.8349     0.2019     5.0756 </r>
       <r>    -5.6951     0.2406     5.1066 </r>
       <r>    -5.5553     0.2797     5.1429 </r>
       <r>    -5.4155     0.3238     5.1849 </r>
       <r>    -5.2757     0.3807     5.2341 </r>
       <r>    -5.1359     0.4466     5.2918 </r>
       <r>    -4.9960     0.5215     5.3594 </r>
       <r>    -4.8562     0.8622     5.4471 </r>
       <r>    -4.7164     0.7994     5.5746 </r>
       <r>    -4.5766     0.8113     5.6870 </r>
       <r>    -4.4368     0.8396     5.8022 </r>
       <r>    -4.2970     0.8389     5.9497 </r>
       <r>    -4.1571     0.0000     6.0000 </r>
       <r>    -4.0173     0.0000     6.0000 </r>
       <r>    -3.8775     0.0000     6.0000 </r>
       <r>    -3.7377     0.0000     6.0000 </r>
       <r>    -3.5979     0.0000     6.0000 </r>
       <r>    -3.4581     0.0000     6.0000 </r>
       <r>    -3.3182     0.0000     6.0000 </r>
       <r>    -3.1784     0.0000     6.0000 </r>
       <r>    -3.0386     0.0000     6.0000 </r>
       <r>    -2.8988     0.0000     6.0000 </r>
       <r>    -2.7590     0.0000     6.0000 </r>
       <r>    -2.6192     0.0000     6.0000 </r>
       <r>    -2.4793     0.0000     6.0000 </r>
       <r>    -2.3395     0.0000     6.0000 </r>
       <r>    -2.1997     0.0000     6.0000 </r>
       <r>    -2.0599     0.0000     6.0000 </r>
       <r>    -1.9201     0.0000     6.0000 </r>
       <r>    -1.7803     0.0000     6.0000 </r>
       <r>    -1.6404     0.0000     6.0000 </r>
       <r>    -1.5006     0.0000     6.0000 </r>
       <r>    -1.3608     0.0000     6.0000 </r>
       <r>    -1.2210     0.0000     6.0000 </r>
       <r>    -1.0812     0.0000     6.0000 </r>
       <r>    -0.9414     0.0000     6.0000 </r>
       <r>    -0.8016     0.0390     6.0008 </r>
       <r>    -0.6617     0.9938     6.0574 </r>
       <r>    -0.5219     1.4854     6.2901 </r>
       <r>    -0.3821     0.8538     6.4338 </r>
       <r>    -0.2423     0.6009     6.5341 </r>
       <r>    -0.1025     0.3711     6.6020 </r>
       <r>     0.0373     0.2997     6.6471 </r>
       <r>     0.1772     0.2741     6.6872 </r>
       <r>     0.3170     0.2512     6.7239 </r>
       <r>     0.4568     0.2297     6.7575 </r>
       <r>     0.5966     0.2067     6.7880 </r>
       <r>     0.7364     0.1817     6.8152 </r>
       <r>     0.8762     0.1546     6.8388 </r>
       <r>     1.0161     0.1288     6.8585 </r>
       <r>     1.1559     0.1089     6.8751 </r>
       <r>     1.2957     0.0948     6.8892 </r>
       <r>     1.4355     0.0864     6.9018 </r>
       <r>     1.5753     0.0994     6.9139 </r>
       <r>     1.7151     0.2804     6.9381 </r>
       <r>     1.8550     0.6259     7.0010 </r>
       <r>     1.9948     0.8236     7.1049 </r>
       <r>     2.1346     1.1203     7.2362 </r>
       <r>     2.2744     0.7135     7.3442 </r>
       <r>     2.4142     0.7416     7.4453 </r>
       <r>     2.5540     0.8238     7.5543 </r>
       <r>     2.6939     0.8730     7.6741 </r>
       <r>     2.8337     0.9500     7.8012 </r>
       <r>     2.9735     0.9887     7.9380 </r>
       <r>     3.1133     0.9613     8.0744 </r>
       <r>     3.2531     0.9358     8.2067 </r>
       <r>     3.3929     0.9280     8.3374 </r>
       <r>     3.5327     0.8745     8.4625 </r>
       <r>     3.6726     0.8597     8.5844 </r>
       <r>     3.8124     0.7726     8.6994 </r>
       <r>     3.9522     0.5533     8.7947 </r>
       <r>     4.0920     0.3783     8.8577 </r>
       <r>     4.2318     0.3098     8.9056 </r>
       <r>     4.3716     0.2577     8.9451 </r>
       <r>     4.5115     0.1929     8.9776 </r>
       <r>     4.6513     0.0686     8.9952 </r>
       <r>     4.7911     0.0077     8.9998 </r>
       <r>     4.9309     0.0000     9.0000 </r>
       <r>     5.0707     0.0000     9.0000 </r>
       <r>     5.2105     0.0000     9.0000 </r>
       <r>     5.3504     0.0000     9.0000 </r>
       <r>     5.4902     0.0004     9.0000 </r>
       <r>     5.6300     0.0016     9.0001 </r>
       <r>     5.7698     0.0036     9.0005 </r>
       <r>     5.9096     0.0064     9.0012 </r>
       <r>     6.0494     0.0101     9.0023 </r>
       <r>     6.1893     0.0146     9.0041 </r>
       <r>     6.3291     0.0289     9.0068 </r>
       <r>     6.4689     0.0690     9.0133 </r>
       <r>     6.6087     0.1414     9.0276 </r>
       <r>     6.7485     0.2534     9.0547 </r>
       <r>     6.8883     0.3877     9.0999 </r>
[...]
       </set>
       <set comment="band 12">
        <r>  0.0714  0.0000  0.0000  0.0000  0.0074  0.0000  0.0028  0.0000  0.0009 </r>
        <r>  0.0000  0.1202  0.0000  0.2405  0.0000  0.0000  0.0000  0.0000  0.0000 </r>
       </set>
       <set comment="band 13">
        <r>  0.0000  0.0001  0.3031  0.0000  0.0000  0.0052  0.0000  0.0105  0.0000 </r>
        <r>  0.0000  0.0001  0.2257  0.0000  0.0000  0.0000  0.0000  0.0000  0.0000 </r>
       </set>
       <set comment="band 14">
        <r>  0.0000  0.2021  0.0001  0.1010  0.0017  0.0000  0.0000  0.0000  0.0140 </r>
        <r>  0.0000  0.1505  0.0001  0.0752  0.0000  0.0000  0.0000  0.0000  0.0000 </r>
       </set>
       <set comment="band 15">
        <r>  0.0000  0.0000  0.0000  0.0000  0.0000  0.0000  0.0000  0.0000  0.0000 </r>
        <r>  0.0000  0.0000  0.0000  0.0000  0.0000  0.0000  0.0000  0.0000  0.0000 </r>
       </set>
       <set comment="band 16">
        <r>  0.0000  0.0001  0.0123  0.0001  0.0002  0.0341  0.0000  0.0682  0.0016 </r>
        <r>  0.0000  0.0005  0.0401  0.0002  0.0000  0.0000  0.0000  0.0000  0.0000 </r>
       </set>
       <set comment="band 17">
        <r>  0.0000  0.0082  0.0002  0.0041  0.0114  0.0006  0.0000  0.0012  0.0910 </r>
        <r>  0.0000  0.0268  0.0007  0.0134  0.0000  0.0000  0.0000  0.0000  0.0000 </r>
       </set>
       <set comment="band 18">
        <r>  0.0000  0.0930  0.0000  0.1861  0.0111  0.0000  0.0374  0.0000  0.0014 </r>
        <r>  0.1343  0.0000  0.0000  0.0000  0.0000  0.0000  0.0000  0.0000  0.0000 </r>
       </set>
       <set comment="band 19">
        <r>  0.0000  0.0001  0.0000  0.0001  0.0021  0.0000  0.0071  0.0000  0.0003 </r>
        <r>  0.0163  0.0000  0.0000  0.0000  0.0000  0.0000  0.0000  0.0000  0.0000 </r>
       </set>
       <set comment="band 20">
        <r>  0.0000  0.0000  0.0000  0.0000  0.0000  0.2492  0.0000  0.1246  0.0000 </r>
        <r>  0.0000  0.0000  0.0000  0.0000  0.0000  0.0000  0.0000  0.0000  0.0000 </r>
       </set>
       <set comment="band 21">
        <r>  0.0000  0.0196  0.0608  0.0098  0.0001  0.0008  0.0000  0.0015  0.0010 </r>
        <r>  0.0000  0.0000  0.0001  0.0000  0.0000  0.0000  0.0000  0.0000  0.0000 </r>
       </set>
       <set comment="band 22">
        <r>  0.0000  0.0410  0.0296  0.0203  0.0002  0.0003  0.0000  0.0006  0.0018 </r>
        <r>  0.0000  0.0000  0.0000  0.0000  0.0000  0.0000  0.0000  0.0000  0.0000 </r>
       </set>
       <set comment="band 23">
        <r>  0.0076  0.0000  0.0000  0.0000  0.0337  0.0000  0.0126  0.0000  0.0042 </r>
        <r>  0.0000  0.0005  0.0000  0.0011  0.0000  0.0000  0.0000  0.0000  0.0000 </r>
       </set>
       <set comment="band 24">
        <r>  0.0000  0.0064  0.0197  0.0030  0.0071  0.0455  0.0000  0.0909  0.0572 </r>
        <r>  0.0000  0.0010  0.0033  0.0005  0.0000  0.0000  0.0000  0.0000  0.0000 </r>
       </set>
      </set>
      <set comment="kpoint 14">
       <set comment="band 1">
        <r>  0.0006  0.0003  0.0003  0.0009  0.2131  0.0432  0.5227  0.0701  0.0744 </r>
        <r>  0.0283  0.0001  0.0000  0.0005  0.0000  0.0000  0.0000  0.0000  0.0000 </r>
       </set>
       <set comment="band 2">
        <r>  0.0001  0.0000  0.0001  0.0000  0.1165  0.2482  0.1573  0.1474  0.3032 </r>
        <r>  0.0001  0.0011  0.0014  0.0004  0.0000  0.0000  0.0000  0.0000  0.0000 </r>
       </set>
       <set comment="band 3">
        <r>  0.0000  0.0001  0.0001  0.0000  0.0638  0.1563  0.0360  0.2922  0.4258 </r>
        <r>  0.0001  0.0018  0.0012  0.0004  0.0000  0.0000  0.0000  0.0000  0.0000 </r>
       </set>
       <set comment="band 4">
        <r>  0.0001  0.0000  0.0000  0.0000  0.5587  0.0080  0.2279  0.0255  0.1566 </r>
        <r>  0.0001  0.0001  0.0000  0.0002  0.0000  0.0000  0.0000  0.0000  0.0000 </r>
       </set>
       <set comment="band 5">
        <r>  0.0000  0.0000  0.0000  0.0000  0.0116  0.5187  0.0041  0.4377  0.0094 </r>
        <r>  0.0000  0.0000  0.0000  0.0000  0.0000  0.0000  0.0000  0.0000  0.0000 </r>
       </set>
       <set comment="band 6">
        <r>  0.0841  0.0055  0.0047  0.0263  0.0115  0.0031  0.0275  0.0070  0.0080 </r>
        <r>  0.4170  0.0007  0.0005  0.0045  0.0000  0.0000  0.0000  0.0000  0.0000 </r>
       </set>
       <set comment="band 7">
        <r>  0.3238  0.0090  0.0123  0.0115  0.0056  0.0004  0.0098  0.0013  0.0003 </r>
        <r>  0.0717  0.0166  0.0233  0.0988  0.0000  0.0000  0.0000  0.0000  0.0000 </r>
       </set>
       <set comment="band 8">
        <r>  0.0196  0.0218  0.0644  0.0730  0.0041  0.0066  0.0008  0.0008  0.0027 </r>
        <r>  0.0026  0.0595  0.1110  0.0686  0.0000  0.0000  0.0000  0.0000  0.0000 </r>
       </set>
       <set comment="band 9">
        <r>  0.0053  0.0889  0.0577  0.0110  0.0049  0.0021  0.0045  0.0043  0.0079 </r>
        <r>  0.0020  0.1754  0.1077  0.0077  0.0000  0.0000  0.0000  0.0000  0.0000 </r>
       </set>
       <set comment="band 10">
        <r>  0.1907  0.0177  0.0038  0.0092  0.0063  0.0071  0.0127  0.0010  0.0098 </r>
        <r>  0.0030  0.0940  0.0570  0.0571  0.0000  0.0000  0.0000  0.0000  0.0000 </r>
       </set>
       <set comment="band 11">
        <r>  0.0361  0.0605  0.0164  0.0732  0.0090  0.0001  0.0189  0.0008  0.0010 </r>
        <r>  0.0770  0.0018  0.0285  0.0676  0.0000  0.0000  0.0000  0.0000  0.0000 </r>
       </set>
       <set comment="band 12">
        <r>  0.0000  0.0648  0.0732  0.0167  0.0166  0.0137  0.0068  0.0018  0.0042 </r>
        <r>  0.0194  0.0206  0.0272  0.0069  0.0000  0.0000  0.0000  0.0000  0.0000 </r>
       </set>
       <set comment="band 13">
        <r>  0.0008  0.1074  0.1128  0.0155  0.0067  0.0074  0.0009  0.0120  0.0143 </r>
        <r>  0.0101  0.0589  0.0526  0.0409  0.0000  0.0000  0.0000  0.0000  0.0000 </r>
       </set>
       <set comment="band 14">
        <r>  0.0127  0.0166  0.0244  0.0078  0.0151  0.0138  0.0191  0.0018  0.0162 </r>
        <r>  0.0013  0.0070  0.0203  0.1076  0.0000  0.0000  0.0000  0.0000  0.0000 </r>
       </set>
       <set comment="band 15">
        <r>  0.0003  0.0109  0.0369  0.1431  0.0074  0.0081  0.0104  0.0446  0.0112 </r>
        <r>  0.0350  0.0013  0.0066  0.0080  0.0000  0.0000  0.0000  0.0000  0.0000 </r>
       </set>
       <set comment="band 16">
        <r>  0.0005  0.0338  0.0437  0.0130  0.0045  0.0130  0.0040  0.0106  0.0051 </r>
        <r>  0.0001  0.0010  0.0177  0.0660  0.0000  0.0000  0.0000  0.0000  0.0000 </r>
       </set>
       <set comment="band 17">
        <r>  0.0470  0.0165  0.0165  0.0399  0.0064  0.0019  0.0057  0.0057  0.0065 </r>
        <r>  0.0059  0.0074  0.0149  0.0095  0.0000  0.0000  0.0000  0.0000  0.0000 </r>
       </set>
       <set comment="band 18">
        <r>  0.0142  0.0058  0.0012  0.0169  0.0195  0.0351  0.0044  0.0172  0.0212 </r>
        <r>  0.0074  0.0123  0.0200  0.0080  0.0000  0.0000  0.0000  0.0000  0.0000 </r>
       </set>
       <set comment="band 19">
        <r>  0.0160  0.0385  0.0439  0.0097  0.0015  0.0053  0.0035  0.0132  0.0218 </r>
        <r>  0.0000  0.0237  0.0337  0.0107  0.0000  0.0000  0.0000  0.0000  0.0000 </r>
       </set>
       <set comment="band 20">
        <r>  0.0051  0.0484  0.0105  0.0486  0.0089  0.0288  0.0068  0.0426  0.0033 </r>
        <r>  0.0211  0.0555  0.0225  0.0085  0.0000  0.0000  0.0000  0.0000  0.0000 </r>
       </set>
       <set comment="band 21">
        <r>  0.0286  0.0029  0.0315  0.0823  0.0013  0.0127  0.0015  0.0325  0.0451 </r>
        <r>  0.0010  0.0016  0.0018  0.0003  0.0000  0.0000  0.0000  0.0000  0.0000 </r>
       </set>
       <set comment="band 22">
        <r>  0.0055  0.0005  0.0007  0.0003  0.0084  0.0014  0.0035  0.0030  0.0045 </r>
        <r>  0.0045  0.0162  0.0117  0.0001  0.0000  0.0000  0.0000  0.0000  0.0000 </r>
       </set>
       <set comment="band 23">
        <r>  0.0013  0.0171  0.0069  0.0148  0.0156  0.0614  0.0289  0.0543  0.0248 </r>
        <r>  0.0033  0.0035  0.0069  0.0058  0.0000  0.0000  0.0000  0.0000  0.0000 </r>
       </set>
       <set comment="band 24">
        <r>  0.0003  0.0032  0.0130  0.0128  0.0242  0.0478  0.0196  0.0439  0.0376 </r>
        <r>  0.0001  0.0426  0.0272  0.0036  0.0000  0.0000  0.0000  0.0000  0.0000 </r>
       </set>
      </set>
      <set comment="kpoint 15">
       <set comment="band 1">
        <r>  0.0003  0.0006  0.0003  0.0010  0.1655  0.0515  0.3403  0.0827  0.2793 </r>
        <r>  0.0318  0.0001  0.0000  0.0000  0.0000  0.0000  0.0000  0.0000  0.0000 </r>
       </set>
       <set comment="band 2">
        <r>  0.0000  0.0000  0.0000  0.0000  0.0799  0.1378  0.4508  0.0850  0.2194 </r>
        <r>  0.0000  0.0011  0.0011  0.0003  0.0000  0.0000  0.0000  0.0000  0.0000 </r>
       </set>
       <set comment="band 3">
        <r>  0.0000  0.0001  0.0002  0.0000  0.0610  0.2940  0.0513  0.3070  0.2618 </r>
        <r>  0.0001  0.0009  0.0016  0.0007  0.0000  0.0000  0.0000  0.0000  0.0000 </r>
       </set>
       <set comment="band 4">
        <r>  0.0000  0.0000  0.0000  0.0000  0.4822  0.1173  0.0774  0.1384  0.1625 </r>
        <r>  0.0000  0.0000  0.0000  0.0000  0.0000  0.0000  0.0000  0.0000  0.0000 </r>
       </set>
       <set comment="band 5">
        <r>  0.0000  0.0000  0.0000  0.0000  0.1777  0.3732  0.0342  0.3604  0.0352 </r>
        <r>  0.0000  0.0001  0.0001  0.0000  0.0000  0.0000  0.0000  0.0000  0.0000 </r>
       </set>
       <set comment="band 6">
        <r>  0.0334  0.0139  0.0061  0.0288  0.0145  0.0028  0.0245  0.0063  0.0244 </r>
        <r>  0.4662  0.0009  0.0004  0.0005  0.0000  0.0000  0.0000  0.0000  0.0000 </r>
       </set>
       <set comment="band 7">
        <r>  0.3880  0.0015  0.0005  0.0205  0.0009  0.0004  0.0005  0.0008  0.0010 </r>
        <r>  0.0184  0.0290  0.0107  0.0969  0.0000  0.0000  0.0000  0.0000  0.0000 </r>
       </set>
       <set comment="band 8">
        <r>  0.0235  0.0652  0.0254  0.0646  0.0028  0.0032  0.0066  0.0011  0.0005 </r>
        <r>  0.0069  0.1119  0.0429  0.0692  0.0000  0.0000  0.0000  0.0000  0.0000 </r>
       </set>
       <set comment="band 9">
        <r>  0.0017  0.0494  0.1061  0.0104  0.0034  0.0068  0.0027  0.0037  0.0020 </r>
        <r>  0.0003  0.0714  0.1923  0.0108  0.0000  0.0000  0.0000  0.0000  0.0000 </r>
       </set>
       <set comment="band 10">
        <r>  0.1751  0.0018  0.0142  0.0287  0.0009  0.0126  0.0151  0.0007  0.0068 </r>
        <r>  0.0321  0.0798  0.0770  0.0371  0.0000  0.0000  0.0000  0.0000  0.0000 </r>
       </set>
       <set comment="band 11">
        <r>  0.0076  0.0651  0.0378  0.0074  0.0038  0.0094  0.0234  0.0049  0.0044 </r>
        <r>  0.0252  0.0338  0.0359  0.0321  0.0000  0.0000  0.0000  0.0000  0.0000 </r>
       </set>
       <set comment="band 12">
        <r>  0.0543  0.0341  0.0788  0.0269  0.0083  0.0012  0.0069  0.0040  0.0033 </r>
        <r>  0.0168  0.0490  0.0131  0.1042  0.0000  0.0000  0.0000  0.0000  0.0000 </r>
       </set>
       <set comment="band 13">
        <r>  0.0002  0.0284  0.0081  0.0632  0.0216  0.0074  0.0010  0.0174  0.0240 </r>
        <r>  0.0138  0.0268  0.0092  0.0192  0.0000  0.0000  0.0000  0.0000  0.0000 </r>
       </set>
       <set comment="band 14">
        <r>  0.0001  0.1134  0.1129  0.0327  0.0149  0.0180  0.0077  0.0001  0.0109 </r>
        <r>  0.0289  0.0316  0.0362  0.0520  0.0000  0.0000  0.0000  0.0000  0.0000 </r>
       </set>
       <set comment="band 15">
        <r>  0.0006  0.0197  0.0300  0.0015  0.0052  0.0140  0.0071  0.0347  0.0132 </r>
        <r>  0.0057  0.0001  0.0279  0.1013  0.0000  0.0000  0.0000  0.0000  0.0000 </r>
       </set>
       <set comment="band 16">
        <r>  0.0006  0.0012  0.0210  0.1215  0.0042  0.0097  0.0152  0.0198  0.0032 </r>
        <r>  0.0280  0.0018  0.0005  0.0050  0.0000  0.0000  0.0000  0.0000  0.0000 </r>
       </set>
       <set comment="band 17">
        <r>  0.0313  0.0700  0.0362  0.0138  0.0159  0.0037  0.0027  0.0039  0.0064 </r>
        <r>  0.0009  0.0195  0.0074  0.0227  0.0000  0.0000  0.0000  0.0000  0.0000 </r>
       </set>
       <set comment="band 18">
        <r>  0.0135  0.0166  0.0154  0.0016  0.0066  0.0120  0.0053  0.0018  0.0016 </r>
        <r>  0.0031  0.0664  0.0248  0.0133  0.0000  0.0000  0.0000  0.0000  0.0000 </r>
       </set>
       <set comment="band 19">
        <r>  0.0024  0.0369  0.0299  0.0259  0.0023  0.0045  0.0053  0.0371  0.0186 </r>
        <r>  0.0003  0.0455  0.0587  0.0250  0.0000  0.0000  0.0000  0.0000  0.0000 </r>
       </set>
       <set comment="band 20">
        <r>  0.0040  0.0038  0.0102  0.0909  0.0039  0.0031  0.0086  0.0010  0.0031 </r>
        <r>  0.0040  0.0032  0.0007  0.0113  0.0000  0.0000  0.0000  0.0000  0.0000 </r>
       </set>
       <set comment="band 21">
        <r>  0.0307  0.0011  0.0009  0.0030  0.0140  0.0292  0.0062  0.0220  0.0496 </r>
        <r>  0.0116  0.0002  0.0014  0.0006  0.0000  0.0000  0.0000  0.0000  0.0000 </r>
       </set>
       <set comment="band 22">
        <r>  0.0097  0.0013  0.0032  0.0070  0.0388  0.0390  0.0062  0.0539  0.0287 </r>
        <r>  0.0051  0.0031  0.0067  0.0003  0.0000  0.0000  0.0000  0.0000  0.0000 </r>
       </set>
       <set comment="band 23">
        <r>  0.0047  0.0209  0.0079  0.0380  0.0155  0.0261  0.0193  0.0101  0.0104 </r>
        <r>  0.0013  0.0175  0.0418  0.0004  0.0000  0.0000  0.0000  0.0000  0.0000 </r>
       </set>
       <set comment="band 24">
        <r>  0.0051  0.0293  0.0169  0.0246  0.0074  0.0288  0.0083  0.0081  0.0245 </r>
        <r>  0.0061  0.0011  0.0004  0.0002  0.0000  0.0000  0.0000  0.0000  0.0000 </r>
       </set>
      </set>
      <set comment="kpoint 16">
       <set comment="band 1">
        <r>  0.0000  0.0006  0.0003  0.0010  0.1752  0.0288  0.5588  0.0577  0.0976 </r>
        <r>  0.0324  0.0000  0.0000  0.0000  0.0000  0.0000  0.0000  0.0000  0.0000 </r>
       </set>
       <set comment="band 2">
        <r>  0.0000  0.0001  0.0001  0.0000  0.0853  0.1314  0.1399  0.2629  0.3557 </r>
        <r>  0.0002  0.0007  0.0010  0.0003  0.0000  0.0000  0.0000  0.0000  0.0000 </r>
       </set>
       <set comment="band 3">
        <r>  0.0000  0.0001  0.0001  0.0000  0.2083  0.1293  0.0634  0.2404  0.3337 </r>
        <r>  0.0000  0.0010  0.0008  0.0011  0.0000  0.0000  0.0000  0.0000  0.0000 </r>
       </set>
       <set comment="band 4">
        <r>  0.0001  0.0000  0.0000  0.0000  0.4792  0.0516  0.1740  0.0936  0.1785 </r>
        <r>  0.0000  0.0001  0.0001  0.0001  0.0000  0.0000  0.0000  0.0000  0.0000 </r>
       </set>
       <set comment="band 5">
        <r>  0.0000  0.0000  0.0000  0.0000  0.0162  0.6363  0.0060  0.3192  0.0038 </r>
        <r>  0.0000  0.0001  0.0001  0.0000  0.0000  0.0000  0.0000  0.0000  0.0000 </r>
       </set>
       <set comment="band 6">
        <r>  0.0000  0.0197  0.0067  0.0327  0.0133  0.0034  0.0412  0.0069  0.0107 </r>
        <r>  0.4921  0.0000  0.0000  0.0000  0.0000  0.0000  0.0000  0.0000  0.0000 </r>
       </set>
       <set comment="band 7">
        <r>  0.4486  0.0000  0.0001  0.0000  0.0024  0.0002  0.0009  0.0001  0.0003 </r>
        <r>  0.0000  0.0450  0.0142  0.0758  0.0000  0.0000  0.0000  0.0000  0.0000 </r>
       </set>
       <set comment="band 8">
        <r>  0.0034  0.0504  0.0756  0.0252  0.0075  0.0031  0.0027  0.0033  0.0040 </r>
        <r>  0.0000  0.0848  0.0969  0.0727  0.0000  0.0000  0.0000  0.0000  0.0000 </r>
       </set>
       <set comment="band 9">
        <r>  0.0000  0.0633  0.0659  0.0606  0.0002  0.0005  0.0000  0.0010  0.0014 </r>
        <r>  0.0008  0.0781  0.1171  0.0390  0.0000  0.0000  0.0000  0.0000  0.0000 </r>
       </set>
       <set comment="band 10">
        <r>  0.0000  0.0377  0.0055  0.0699  0.0117  0.0011  0.0383  0.0023  0.0045 </r>
        <r>  0.0428  0.0298  0.0447  0.0149  0.0000  0.0000  0.0000  0.0000  0.0000 </r>
       </set>
       <set comment="band 11">
        <r>  0.1971  0.0063  0.0094  0.0031  0.0207  0.0010  0.0077  0.0009  0.0032 </r>
        <r>  0.0000  0.0631  0.0441  0.0821  0.0000  0.0000  0.0000  0.0000  0.0000 </r>
       </set>
       <set comment="band 12">
        <r>  0.0000  0.0656  0.0745  0.0568  0.0022  0.0063  0.0002  0.0125  0.0167 </r>
        <r>  0.0509  0.0328  0.0492  0.0164  0.0000  0.0000  0.0000  0.0000  0.0000 </r>
       </set>
       <set comment="band 13">
        <r>  0.0417  0.0384  0.0576  0.0192  0.0121  0.0094  0.0043  0.0067  0.0051 </r>
        <r>  0.0000  0.0429  0.0074  0.0784  0.0000  0.0000  0.0000  0.0000  0.0000 </r>
       </set>
       <set comment="band 14">
        <r>  0.0019  0.0711  0.1067  0.0356  0.0031  0.0086  0.0002  0.0165  0.0217 </r>
        <r>  0.0000  0.1003  0.0905  0.1100  0.0000  0.0000  0.0000  0.0000  0.0000 </r>
       </set>
       <set comment="band 15">
        <r>  0.0000  0.0536  0.0644  0.0429  0.0063  0.0075  0.0126  0.0150  0.0205 </r>
        <r>  0.0001  0.0028  0.0041  0.0014  0.0000  0.0000  0.0000  0.0000  0.0000 </r>
       </set>
       <set comment="band 16">
        <r>  0.0000  0.0393  0.0102  0.0683  0.0033  0.0002  0.0109  0.0005  0.0010 </r>
        <r>  0.0520  0.0012  0.0018  0.0006  0.0000  0.0000  0.0000  0.0000  0.0000 </r>
       </set>
       <set comment="band 17">
        <r>  0.0065  0.0019  0.0029  0.0010  0.0081  0.0415  0.0027  0.0242  0.0072 </r>
        <r>  0.0000  0.0461  0.0264  0.0659  0.0000  0.0000  0.0000  0.0000  0.0000 </r>
       </set>
       <set comment="band 18">
        <r>  0.0000  0.0077  0.0101  0.0052  0.0002  0.0001  0.0006  0.0001  0.0002 </r>
        <r>  0.0028  0.0000  0.0000  0.0000  0.0000  0.0000  0.0000  0.0000  0.0000 </r>
       </set>
       <set comment="band 19">
        <r>  0.0000  0.0564  0.0172  0.0956  0.0041  0.0017  0.0119  0.0033  0.0048 </r>
        <r>  0.0286  0.0523  0.0785  0.0262  0.0000  0.0000  0.0000  0.0000  0.0000 </r>
       </set>
       <set comment="band 20">
        <r>  0.0199  0.0003  0.0004  0.0001  0.0093  0.0615  0.0009  0.0615  0.0550 </r>
        <r>  0.0000  0.0026  0.0016  0.0037  0.0000  0.0000  0.0000  0.0000  0.0000 </r>
       </set>
       <set comment="band 21">
        <r>  0.0000  0.0502  0.0347  0.0656  0.0032  0.0053  0.0047  0.0106  0.0144 </r>
        <r>  0.0109  0.0000  0.0001  0.0000  0.0000  0.0000  0.0000  0.0000  0.0000 </r>
       </set>
       <set comment="band 22">
        <r>  0.0027  0.0007  0.0010  0.0003  0.0289  0.0582  0.0093  0.0476  0.0360 </r>
        <r>  0.0000  0.0009  0.0008  0.0009  0.0000  0.0000  0.0000  0.0000  0.0000 </r>
       </set>
       <set comment="band 23">
        <r>  0.0666  0.0040  0.0060  0.0020  0.0055  0.0696  0.0019  0.0368  0.0041 </r>
        <r>  0.0000  0.0013  0.0003  0.0023  0.0000  0.0000  0.0000  0.0000  0.0000 </r>
       </set>
       <set comment="band 24">
        <r>  0.0143  0.0006  0.0010  0.0003  0.0212  0.0008  0.0077  0.0016  0.0049 </r>
        <r>  0.0000  0.0067  0.0069  0.0065  0.0000  0.0000  0.0000  0.0000  0.0000 </r>
       </set>
      </set>
     </set>
    </set>
   </array>
  </projected>
 </calculation>
 <structure name="finalpos" >
  <crystal>
   <varray name="basis" >
    <v>       3.61541800       0.00000000       2.08736254 </v>
    <v>       1.20513900       3.40864864       2.08736254 </v>
    <v>       0.00000000       0.00000000       4.17472507 </v>
   </varray>
   <i name="volume">     51.44801605 </i>
   <varray name="rec_basis" >
    <v>       0.27659319      -0.09779044       0.00000000 </v>
    <v>       0.00000000       0.29337139       0.00000000 </v>
    <v>      -0.13829660      -0.09779048       0.23953673 </v>
   </varray>
  </crystal>
  <varray name="positions" >
   <v>       0.00000000       0.00000000       0.00000000 </v>
   <v>       0.25000000       0.25000000       0.25000000 </v>
  </varray>
 </structure>
</modeling>
