 vasp.6.4.2 20Jul23 (build Mar 15 2024 16:31:38) complex                        
  
 executed on             LinuxIFC date 2025.03.19  15:39:46
 running  120 mpi-ranks, on    3 nodes
 distrk:  each k-point on  120 cores,    1 groups
 distr:  one band on NCORE=  10 cores,   12 groups


--------------------------------------------------------------------------------------------------------


 INCAR:
   ALGO = Fast
   CSHIFT = 1e-05
   EDIFF = 1e-05
   ENAUG = 1360
   ENCUT = 680
   GGA = Ps
   ICHARG = 11
   ISMEAR = -5
   ISPIN = 1
   ISYM = 2
   LAECHG = True
   LASPH = True
   LCHARG = False
   LELF = False
   LMAXMIX = 4
   LMIXTAU = True
   LOPTICS = True
   LORBIT = 11
   LREAL = False
   LVTOT = True
   LWAVE = True
   NBANDS = 58
   NCORE = 10
   NEDOS = 2000
   NELM = 200
   NSW = 0
   PREC = Accurate
   SIGMA = 0.05

 POTCAR:    PAW_PBE In_d 06Sep2000                
 POTCAR:    PAW_PBE Cu 22Jun2005                  
 POTCAR:    PAW_PBE Se 06Sep2000                  
 WARNING: For LVTOT=.TRUE., VASP.5.x writes the TOTAL local potential to the
     file LOCPOT. If you want only the Hartree contributions, use LVHAR=.TRUE.
     instead. 

 POTCAR:    PAW_PBE In_d 06Sep2000                
   VRHFIN =In: s2p1                                                                                 
   LEXCH  = PE                                                                                      
   EATOM  =  1576.8302 eV,  115.8937 Ry                                                             
                                                                                                    
   TITEL  = PAW_PBE In_d 06Sep2000                                                                  
   LULTRA =        F    use ultrasoft PP ?                                                          
   IUNSCR =        1    unscreen: 0-lin 1-nonlin 2-no                                               
   RPACOR =    2.200    partial core radius                                                         
   POMASS =  114.820; ZVAL   =   13.000    mass and valenz                                          
   RCORE  =    2.500    outmost cutoff radius                                                       
   RWIGS  =    3.170; RWIGS  =    1.677    wigner-seitz radius (au A)                               
   ENMAX  =  239.211; ENMIN  =  179.409 eV                                                          
   ICORE  =        3    local potential                                                             
   LCOR   =        T    correct aug charges                                                         
   LPAW   =        T    paw PP                                                                      
   EAUG   =  449.704                                                                                
   DEXC   =    0.000                                                                                
   RMAX   =    2.552    core radius for proj-oper                                                   
   RAUG   =    1.300    factor for augmentation sphere                                              
   RDEP   =    2.630    radius for radial grids                                                     
   RDEPT  =    2.033    core radius for aug-charge                                                  
                                                                                                    
   Atomic configuration                                                                             
   12 entries                                                                                       
     n  l   j            E        occ.                                                              
     1  0  0.50    -27747.9169   2.0000                                                             
     2  0  0.50     -4154.4438   2.0000                                                             
     2  1  1.50     -3728.4305   6.0000                                                             
     3  0  0.50      -788.3680   2.0000                                                             
     3  1  1.50      -648.9215   6.0000                                                             
     3  2  2.50      -432.5893  10.0000                                                             
     4  0  0.50      -119.6363   2.0000                                                             
     4  1  1.50       -78.1086   6.0000                                                             
     4  2  2.50       -18.6227  10.0000                                                             
     5  0  0.50        -8.2107   2.0000                                                             
     5  1  0.50        -2.5185   1.0000                                                             
     4  3  2.50        -2.7212   0.0000                                                             
   Description                                                                                      
     l       E           TYP  RCUT    TYP  RCUT                                                     
     2    -18.6226981     23  2.500                                                                 
     2     -1.3605826     23  2.500                                                                 
     0     -8.2107305     23  2.500                                                                 
     0     -6.1485975     23  2.500                                                                 
     1     -2.5184867     23  2.500                                                                 
     1      3.2427302     23  2.500                                                                 
     3     -1.3605826      7  2.500                                                                 
  local pseudopotential read in
  partial core-charges read in
  partial kinetic energy density read in
  atomic valenz-charges read in
  non local Contribution for L=           2  read in
    real space projection operators read in
  non local Contribution for L=           2  read in
    real space projection operators read in
  non local Contribution for L=           0  read in
    real space projection operators read in
  non local Contribution for L=           0  read in
    real space projection operators read in
  non local Contribution for L=           1  read in
    real space projection operators read in
  non local Contribution for L=           1  read in
    real space projection operators read in
    PAW grid and wavefunctions read in
 
   number of l-projection  operators is LMAX  =           6
   number of lm-projection operators is LMMAX =          18
 
 POTCAR:    PAW_PBE Cu 22Jun2005                  
   VRHFIN =Cu: d10 p1                                                                               
   LEXCH  = PE                                                                                      
   EATOM  =  1390.9808 eV,  102.2342 Ry                                                             
                                                                                                    
   TITEL  = PAW_PBE Cu 22Jun2005                                                                    
   LULTRA =        F    use ultrasoft PP ?                                                          
   IUNSCR =        1    unscreen: 0-lin 1-nonlin 2-no                                               
   RPACOR =    2.000    partial core radius                                                         
   POMASS =   63.546; ZVAL   =   11.000    mass and valenz                                          
   RCORE  =    2.300    outmost cutoff radius                                                       
   RWIGS  =    2.200; RWIGS  =    1.164    wigner-seitz radius (au A)                               
   ENMAX  =  295.446; ENMIN  =  221.585 eV                                                          
   ICORE  =        3    local potential                                                             
   LCOR   =        T    correct aug charges                                                         
   LPAW   =        T    paw PP                                                                      
   EAUG   =  586.980                                                                                
   DEXC   =    0.000                                                                                
   RMAX   =    2.344    core radius for proj-oper                                                   
   RAUG   =    1.300    factor for augmentation sphere                                              
   RDEP   =    2.302    radius for radial grids                                                     
   RDEPT  =    1.771    core radius for aug-charge                                                  
                                                                                                    
   Atomic configuration                                                                             
    9 entries                                                                                       
     n  l   j            E        occ.                                                              
     1  0  0.50     -8850.2468   2.0000                                                             
     2  0  0.50     -1062.3498   2.0000                                                             
     2  1  1.50      -916.8226   6.0000                                                             
     3  0  0.50      -114.6929   2.0000                                                             
     3  1  1.50       -72.1325   6.0000                                                             
     3  2  2.50        -5.0394  10.0000                                                             
     4  0  0.50        -4.6097   1.0000                                                             
     4  1  0.50        -4.0817   0.0000                                                             
     4  3  2.50        -1.3606   0.0000                                                             
   Description                                                                                      
     l       E           TYP  RCUT    TYP  RCUT                                                     
     2     -5.0393973     23  2.200                                                                 
     2     10.8846608     23  2.200                                                                 
     0     -4.6097109     23  2.200                                                                 
     0      8.2520465     23  2.200                                                                 
     1     -2.7211652     23  2.200                                                                 
     1     21.7055443     23  2.200                                                                 
     3      2.7211652     23  2.300                                                                 
  local pseudopotential read in
  partial core-charges read in
  partial kinetic energy density read in
  atomic valenz-charges read in
  non local Contribution for L=           2  read in
    real space projection operators read in
  non local Contribution for L=           2  read in
    real space projection operators read in
  non local Contribution for L=           0  read in
    real space projection operators read in
  non local Contribution for L=           0  read in
    real space projection operators read in
  non local Contribution for L=           1  read in
    real space projection operators read in
  non local Contribution for L=           1  read in
    real space projection operators read in
    PAW grid and wavefunctions read in
 
   number of l-projection  operators is LMAX  =           6
   number of lm-projection operators is LMMAX =          18
 
 POTCAR:    PAW_PBE Se 06Sep2000                  
   VRHFIN =Se: s2p4                                                                                 
   LEXCH  = PE                                                                                      
   EATOM  =   257.1286 eV,   18.8984 Ry                                                             
                                                                                                    
   TITEL  = PAW_PBE Se 06Sep2000                                                                    
   LULTRA =        F    use ultrasoft PP ?                                                          
   IUNSCR =        1    unscreen: 0-lin 1-nonlin 2-no                                               
   RPACOR =    1.900    partial core radius                                                         
   POMASS =   78.960; ZVAL   =    6.000    mass and valenz                                          
   RCORE  =    2.100    outmost cutoff radius                                                       
   RWIGS  =    2.200; RWIGS  =    1.164    wigner-seitz radius (au A)                               
   ENMAX  =  211.555; ENMIN  =  158.666 eV                                                          
   ICORE  =        3    local potential                                                             
   LCOR   =        T    correct aug charges                                                         
   LPAW   =        T    paw PP                                                                      
   EAUG   =  446.842                                                                                
   DEXC   =    0.000                                                                                
   RMAX   =    2.147    core radius for proj-oper                                                   
   RAUG   =    1.300    factor for augmentation sphere                                              
   RDEP   =    2.177    radius for radial grids                                                     
   RDEPT  =    1.928    core radius for aug-charge                                                  
                                                                                                    
   Atomic configuration                                                                             
   10 entries                                                                                       
     n  l   j            E        occ.                                                              
     1  0  0.50    -12503.4787   2.0000                                                             
     2  0  0.50     -1606.9547   2.0000                                                             
     2  1  1.50     -1413.3140   6.0000                                                             
     3  0  0.50      -213.4885   2.0000                                                             
     3  1  1.50      -152.9538   6.0000                                                             
     3  2  2.50       -53.1221  10.0000                                                             
     4  0  0.50       -17.2865   2.0000                                                             
     4  1  0.50        -6.5110   4.0000                                                             
     4  2  2.50        -6.8029   0.0000                                                             
     4  3  2.50        -6.8029   0.0000                                                             
   Description                                                                                      
     l       E           TYP  RCUT    TYP  RCUT                                                     
     0    -17.2865377     23  2.100                                                                 
     0    -15.3094411     23  2.100                                                                 
     1     -6.5110275     23  2.100                                                                 
     1     -0.0695192     23  2.100                                                                 
     2     -6.8029130     23  2.100                                                                 
     3     -1.3605826      7  2.100                                                                 
  local pseudopotential read in
  partial core-charges read in
  partial kinetic energy density read in
  atomic valenz-charges read in
  non local Contribution for L=           0  read in
    real space projection operators read in
  non local Contribution for L=           0  read in
    real space projection operators read in
  non local Contribution for L=           1  read in
    real space projection operators read in
  non local Contribution for L=           1  read in
    real space projection operators read in
  non local Contribution for L=           2  read in
    real space projection operators read in
    PAW grid and wavefunctions read in
 
   number of l-projection  operators is LMAX  =           5
   number of lm-projection operators is LMMAX =          13
 
 -----------------------------------------------------------------------------
|                                                                             |
|               ----> ADVICE to this user running VASP <----                  |
|                                                                             |
|     You enforced a specific xc type in the INCAR file but a different       |
|     type was found in the POTCAR file.                                      |
|     I HOPE YOU KNOW WHAT YOU ARE DOING!                                     |
|                                                                             |
 -----------------------------------------------------------------------------

  PAW_PBE In_d 06Sep2000                :
 energy of atom  1       EATOM=-1576.8302
 kinetic energy error for atom=    0.0009 (will be added to EATOM!!)
  PAW_PBE Cu 22Jun2005                  :
 energy of atom  2       EATOM=-1390.9808
 kinetic energy error for atom=    0.0018 (will be added to EATOM!!)
  PAW_PBE Se 06Sep2000                  :
 energy of atom  3       EATOM= -257.1286
 kinetic energy error for atom=    0.0004 (will be added to EATOM!!)
 
 
 POSCAR: In2 Cu2 Se4
  positions in direct lattice
  No initial velocities read in
 exchange correlation table for  LEXCH =       14
   RHO(1)=    0.500       N(1)  =     2000
   RHO(2)=  100.500       N(2)  =     4000
 


--------------------------------------------------------------------------------------------------------


 ion  position               nearest neighbor table
   1  0.500  0.500  0.000-   5 2.62   8 2.62   6 2.62   7 2.62
   2  0.750  0.250  0.500-   8 2.62   6 2.62   7 2.62   5 2.62
   3  0.000  0.000  0.000-   6 2.42   7 2.42   5 2.42   8 2.42
   4  0.250  0.750  0.500-   7 2.42   5 2.42   8 2.42   6 2.42
   5  0.345  0.375  0.250-   4 2.42   3 2.42   1 2.62   2 2.62
   6  0.905  0.875  0.250-   3 2.42   4 2.42   2 2.62   1 2.62
   7  0.125  0.655  0.750-   4 2.42   3 2.42   2 2.62   1 2.62
   8  0.625  0.095  0.750-   4 2.42   3 2.42   2 2.62   1 2.62
 
  LATTYP: Found a body centered tetragonal cell.
 ALAT       =     5.8059957800
 C/A-ratio  =     2.0079361830
  
  Lattice vectors:
  
 A1 = (   1.0538795677,  -5.1971421792,  -4.7656568808)
 A2 = (  -5.3029191999,   0.0000000000,  -4.7656572101)
 A3 = (   4.2490396322,   5.1971421792,   2.4016274909)


Analysis of symmetry for initial positions (statically):
=====================================================================
 Subroutine PRICEL returns:
 Original cell was already a primitive cell.
 

 Routine SETGRP: Setting up the symmetry group for a 
 body centered tetragonal supercell.


 Subroutine GETGRP returns: Found  8 space group operations
 (whereof  4 operations were pure point group operations)
 out of a pool of 16 trial point group operations.


The static configuration has the point symmetry S_4 .
 The point group associated with its full space group is D_2d.


Analysis of symmetry for dynamics (positions and initial velocities):
=====================================================================
 Subroutine PRICEL returns:
 Original cell was already a primitive cell.
 

 Routine SETGRP: Setting up the symmetry group for a 
 body centered tetragonal supercell.


 Subroutine GETGRP returns: Found  8 space group operations
 (whereof  4 operations were pure point group operations)
 out of a pool of 16 trial point group operations.


The dynamic configuration has the point symmetry S_4 .
 The point group associated with its full space group is D_2d.


 Subroutine INISYM returns: Found  8 space group operations
 (whereof  4 operations are pure point group operations),
 and found     1 'primitive' translations


----------------------------------------------------------------------------------------

                                     Primitive cell                                     

  volume of cell :     196.4943

  direct lattice vectors                    reciprocal lattice vectors
     5.302919200  0.000000000 -2.364029390     0.188575379  0.038239427  0.000000000
    -1.053879568  5.197142179 -2.364029719     0.000000000  0.192413439  0.000000000
     0.000000000  0.000000000  7.129686600     0.062526975  0.076478848  0.140258620

  length of vectors
     5.805995780  5.805995650  7.129686600     0.192413429  0.192413439  0.171554998

  position of ions in fractional coordinates (direct lattice)
     0.500000000  0.500000000  1.000000000
     0.750000000  0.250000000  0.500000000
     0.000000000  0.000000000  0.000000000
     0.250000000  0.750000000  0.500000000
     0.345161030  0.375000000  0.250000000
     0.904838970  0.875000000  0.250000000
     0.125000000  0.654838970  0.750000000
     0.625000000  0.095161030  0.750000000

  ion indices of the primitive-cell ions
   primitive index   ion index
                 1           1
                 2           2
                 3           3
                 4           4
                 5           5
                 6           6
                 7           7
                 8           8

----------------------------------------------------------------------------------------

 
 
 KPOINTS: pymatgen with grid density = 1010 / numb

Automatic generation of k-mesh.
 Grid dimensions read from file:
 generate k-points for:    5    5    4

 Generating k-lattice:

  Cartesian coordinates                     Fractional coordinates (reciprocal lattice)
     0.037715076  0.007647885  0.000000000     0.200000000 -0.000000000  0.000000000
     0.000000000  0.038482688  0.000000000     0.000000000  0.200000000  0.000000000
     0.015631744  0.019119712  0.035064655    -0.000000000 -0.000000000  0.250000000

  Length of vectors
     0.038482686  0.038482688  0.042888749

  Shift w.r.t. Gamma in fractional coordinates (k-lattice)
     0.000000000  0.000000000  0.000000000

 -----------------------------------------------------------------------------
|                                                                             |
|           W    W    AA    RRRRR   N    N  II  N    N   GGGG   !!!           |
|           W    W   A  A   R    R  NN   N  II  NN   N  G    G  !!!           |
|           W    W  A    A  R    R  N N  N  II  N N  N  G       !!!           |
|           W WW W  AAAAAA  RRRRR   N  N N  II  N  N N  G  GGG   !            |
|           WW  WW  A    A  R   R   N   NN  II  N   NN  G    G                |
|           W    W  A    A  R    R  N    N  II  N    N   GGGG   !!!           |
|                                                                             |
|     Your reciprocal lattice and k-lattice belong to different lattice       |
|     classes:                                                                |
|                                                                             |
|        The reciprocal lattice is body-centered tetragonal,                  |
|        whereas your k-lattice is base-centered monoclinic.                  |
|                                                                             |
|     Results are often still useful ...                                      |
|                                                                             |
 -----------------------------------------------------------------------------

 WARNING: IBZKPT: internal override: KBLOWUP is changed to .FALSE.
      ... skipping the blow-up phase ...

 TETIRR: Found    150 inequivalent tetrahedra from      600
 
 Subroutine IBZKPT returns following result:
 ===========================================
 
 Found     33 irreducible k-points:
 
 Following reciprocal coordinates:
            Coordinates               Weight
  0.000000  0.000000  0.000000      1.000000
  0.200000  0.000000  0.000000      4.000000
  0.400000 -0.000000  0.000000      4.000000
  0.200000  0.200000  0.000000      2.000000
  0.400000  0.200000  0.000000      4.000000
 -0.400000  0.200000  0.000000      4.000000
 -0.200000  0.200000  0.000000      2.000000
  0.400000  0.400000  0.000000      2.000000
 -0.400000  0.400000  0.000000      2.000000
 -0.000000 -0.000000  0.250000      2.000000
  0.200000  0.000000  0.250000      4.000000
  0.400000 -0.000000  0.250000      4.000000
 -0.400000  0.000000  0.250000      4.000000
 -0.200000 -0.000000  0.250000      4.000000
  0.200000  0.200000  0.250000      2.000000
  0.400000  0.200000  0.250000      4.000000
 -0.400000  0.200000  0.250000      4.000000
 -0.200000  0.200000  0.250000      4.000000
  0.400000  0.400000  0.250000      2.000000
 -0.400000  0.400000  0.250000      4.000000
 -0.200000  0.400000  0.250000      4.000000
 -0.400000 -0.400000  0.250000      2.000000
 -0.200000 -0.400000  0.250000      4.000000
 -0.200000 -0.200000  0.250000      2.000000
 -0.000000 -0.000000  0.500000      1.000000
  0.200000 -0.000000  0.500000      4.000000
  0.400000 -0.000000  0.500000      4.000000
  0.200000  0.200000  0.500000      2.000000
  0.400000  0.200000  0.500000      4.000000
 -0.400000  0.200000  0.500000      4.000000
 -0.200000  0.200000  0.500000      2.000000
  0.400000  0.400000  0.500000      2.000000
 -0.400000  0.400000  0.500000      2.000000
 
 Following cartesian coordinates:
            Coordinates               Weight
  0.000000  0.000000  0.000000      1.000000
  0.037715  0.007648  0.000000      4.000000
  0.075430  0.015296  0.000000      4.000000
  0.037715  0.046131  0.000000      2.000000
  0.075430  0.053778  0.000000      4.000000
 -0.075430  0.023187  0.000000      4.000000
 -0.037715  0.030835  0.000000      2.000000
  0.075430  0.092261  0.000000      2.000000
 -0.075430  0.061670  0.000000      2.000000
  0.015632  0.019120  0.035065      2.000000
  0.053347  0.026768  0.035065      4.000000
  0.091062  0.034415  0.035065      4.000000
 -0.059798  0.003824  0.035065      4.000000
 -0.022083  0.011472  0.035065      4.000000
  0.053347  0.065250  0.035065      2.000000
  0.091062  0.072898  0.035065      4.000000
 -0.059798  0.042307  0.035065      4.000000
 -0.022083  0.049955  0.035065      4.000000
  0.091062  0.111381  0.035065      2.000000
 -0.059798  0.080789  0.035065      4.000000
 -0.022083  0.088437  0.035065      4.000000
 -0.059798 -0.073141  0.035065      2.000000
 -0.022083 -0.065494  0.035065      4.000000
 -0.022083 -0.027011  0.035065      2.000000
  0.031263  0.038239  0.070129      1.000000
  0.068979  0.045887  0.070129      4.000000
  0.106694  0.053535  0.070129      4.000000
  0.068979  0.084370  0.070129      2.000000
  0.106694  0.092018  0.070129      4.000000
 -0.044167  0.061426  0.070129      4.000000
 -0.006452  0.069074  0.070129      2.000000
  0.106694  0.130501  0.070129      2.000000
 -0.044167  0.099909  0.070129      2.000000
 
 -----------------------------------------------------------------------------
|                                                                             |
|           W    W    AA    RRRRR   N    N  II  N    N   GGGG   !!!           |
|           W    W   A  A   R    R  NN   N  II  NN   N  G    G  !!!           |
|           W    W  A    A  R    R  N N  N  II  N N  N  G       !!!           |
|           W WW W  AAAAAA  RRRRR   N  N N  II  N  N N  G  GGG   !            |
|           WW  WW  A    A  R   R   N   NN  II  N   NN  G    G                |
|           W    W  A    A  R    R  N    N  II  N    N   GGGG   !!!           |
|                                                                             |
|     The number of bands has been changed from the values supplied in        |
|     the INCAR file. This is a result of running the parallel version.       |
|     The orbitals not found in the WAVECAR file will be initialized with     |
|     random numbers, which is usually adequate. For correlated               |
|     calculations, however, you should redo the groundstate calculation.     |
|     I found NBANDS = 58. Now, NBANDS = 60.                                  |
|                                                                             |
 -----------------------------------------------------------------------------



--------------------------------------------------------------------------------------------------------




 Dimension of arrays:
   k-points           NKPTS =     33   k-points in BZ     NKDIM =     33   number of bands    NBANDS=     60
   number of dos      NEDOS =   2000   number of ions     NIONS =      8
   non local maximal  LDIM  =      6   non local SUM 2l+1 LMDIM =     18
   total plane-waves  NPLWV = 160000
   max r-space proj   IRMAX =      1   max aug-charges    IRDMAX=  35706
   dimension x,y,z NGX =    50 NGY =   50 NGZ =   64
   dimension x,y,z NGXF=   100 NGYF=  100 NGZF=  128
   support grid    NGXF=   100 NGYF=  100 NGZF=  128
   ions per type =               2   2   4
   NGX,Y,Z   is equivalent  to a cutoff of  14.32, 14.32, 14.92 a.u.
   NGXF,Y,Z  is equivalent  to a cutoff of  28.63, 28.63, 29.85 a.u.

 SYSTEM =  unknown system                          
 POSCAR =  In2 Cu2 Se4                             

 Startparameter for this run:
   NWRITE =      2    write-flag & timer
   PREC   = accura    normal or accurate (medium, high low for compatibility)
   ISTART =      0    job   : 0-new  1-cont  2-samecut
   ICHARG =     11    charge: 1-file 2-atom 10-const
   ISPIN  =      1    spin polarized calculation?
   LNONCOLLINEAR =      F non collinear calculations
   LSORBIT =      F    spin-orbit coupling
   INIWAV =      1    electr: 0-lowe 1-rand  2-diag
   LASPH  =      T    aspherical Exc in radial PAW
 Electronic Relaxation 1
   ENCUT  =  680.0 eV  49.98 Ry    7.07 a.u.  12.34 12.34 15.16*2*pi/ulx,y,z
   ENINI  =  680.0     initial cutoff
   ENAUG  = 1360.0 eV  augmentation charge cutoff
   NELM   =    200;   NELMIN=  2; NELMDL= -5     # of ELM steps 
   EDIFF  = 0.1E-04   stopping-criterion for ELM
   LREAL  =      F    real-space projection
   NLSPLINE    = F    spline interpolate recip. space projectors
   LCOMPAT=      F    compatible to vasp.4.4
   GGA_COMPAT  = T    GGA compatible to vasp.4.4-vasp.4.6
   LMAXPAW     = -100 max onsite density
   LMAXMIX     =    4 max onsite mixed and CHGCAR
   VOSKOWN=      0    Vosko Wilk Nusair interpolation
   ROPT   =    0.00000   0.00000   0.00000
 Ionic relaxation
   EDIFFG = 0.1E-03   stopping-criterion for IOM
   NSW    =      0    number of steps for IOM
   NBLOCK =      1;   KBLOCK =      1    inner block; outer block 
   IBRION =     -1    ionic relax: 0-MD 1-quasi-New 2-CG
   NFREE  =      0    steps in history (QN), initial steepest desc. (CG)
   ISIF   =      2    stress and relaxation
   IWAVPR =     10    prediction:  0-non 1-charg 2-wave 3-comb
   ISYM   =      2    0-nonsym 1-usesym 2-fastsym
   LCORR  =      T    Harris-Foulkes like correction to forces

   POTIM  = 0.5000    time-step for ionic-motion
   TEIN   =    0.0    initial temperature
   TEBEG  =    0.0;   TEEND  =   0.0 temperature during run
   SMASS  =  -3.00    Nose mass-parameter (am)
   estimated Nose-frequenzy (Omega)   =  0.10E-29 period in steps = 0.13E+47 mass=  -0.770E-27a.u.
   SCALEE = 1.0000    scale energy and forces
   NPACO  =    256;   APACO  = 10.0  distance and # of slots for P.C.
   PSTRESS=    0.0 pullay stress

  Mass of Ions in am
   POMASS = 114.82 63.55 78.96
  Ionic Valenz
   ZVAL   =  13.00 11.00  6.00
  Atomic Wigner-Seitz radii
   RWIGS  =  -1.00 -1.00 -1.00
  virtual crystal weights 
   VCA    =   1.00  1.00  1.00
   NELECT =      72.0000    total number of electrons
   NUPDOWN=      -1.0000    fix difference up-down

 DOS related values:
   EMIN   =  10.00;   EMAX   =-10.00  energy-range for DOS
   EFERMI =   0.00;   METHOD = LEGACY      
   ISMEAR =    -5;   SIGMA  =   0.05  broadening in eV -4-tet -1-fermi 0-gaus

 Electronic relaxation 2 (details)
   IALGO  =     68    algorithm
   LDIAG  =      T    sub-space diagonalisation (order eigenvalues)
   LSUBROT=      F    optimize rotation matrix (better conditioning)
   TURBO    =      0    0=normal 1=particle mesh
   IRESTART =      0    0=no restart 2=restart with 2 vectors
   NREBOOT  =      0    no. of reboots
   NMIN     =      0    reboot dimension
   EREF     =   0.00    reference energy to select bands
   IMIX   =      4    mixing-type and parameters
     AMIX     =   0.40;   BMIX     =  1.00
     AMIX_MAG =   1.60;   BMIX_MAG =  1.00
     AMIN     =   0.10
     WC   =   100.;   INIMIX=   1;  MIXPRE=   1;  MAXMIX= -45

 Intra band minimization:
   WEIMIN = 0.0000     energy-eigenvalue tresh-hold
   EBREAK =  0.42E-07  absolut break condition
   DEPER  =   0.30     relativ break condition  

   TIME   =   0.40     timestep for ELM

  volume/ion in A,a.u.               =      24.56       165.75
  Fermi-wavevector in a.u.,A,eV,Ry     =   1.171482  2.213780 18.672231  1.372370
  Thomas-Fermi vector in A             =   2.307925
 
 Write flags
   LWAVE        =      T    write WAVECAR
   LDOWNSAMPLE  =      F    k-point downsampling of WAVECAR
   LCHARG       =      F    write CHGCAR
   LVTOT        =      T    write LOCPOT, total local potential
   LVHAR        =      F    write LOCPOT, Hartree potential only
   LELF         =      F    write electronic localiz. function (ELF)
   LORBIT       =     11    0 simple, 1 ext, 2 COOP (PROOUT), +10 PAW based schemes


 Dipole corrections
   LMONO  =      F    monopole corrections only (constant potential shift)
   LDIPOL =      F    correct potential (dipole corrections)
   IDIPOL =      0    1-x, 2-y, 3-z, 4-all directions 
   EPSILON=  1.0000000 bulk dielectric constant

 Exchange correlation treatment:
   GGA     =    PS    GGA type
   LEXCH   =    14    internal setting for exchange type
   LIBXC   =     F    Libxc                    
   VOSKOWN =     0    Vosko Wilk Nusair interpolation
   LHFCALC =     F    Hartree Fock is set to
   LHFONE  =     F    Hartree Fock one center treatment
   AEXX    =    0.0000 exact exchange contribution

 Linear response parameters
   LEPSILON=     F    determine dielectric tensor
   LRPA    =     F    only Hartree local field effects (RPA)
   LNABLA  =     F    use nabla operator in PAW spheres
   LVEL    =     F    velocity operator in full k-point grid
   CSHIFT  =0.0000    complex shift for real part using Kramers Kronig
   OMEGAMAX=  -1.0    maximum frequency
   DEG_THRESHOLD= 0.2000000E-02 threshold for treating states as degnerate
   RTIME   =   -0.100 relaxation time in fs
  (WPLASMAI=    0.000 imaginary part of plasma frequency in eV, 0.658/RTIME)
   DFIELD  = 0.0000000 0.0000000 0.0000000 field for delta impulse in time
 
  Optional k-point grid parameters
   LKPOINTS_OPT  =     F    use optional k-point grid
   KPOINTS_OPT_MODE=     1    mode for optional k-point grid
 
 Orbital magnetization related:
   ORBITALMAG=     F  switch on orbital magnetization
   LCHIMAG   =     F  perturbation theory with respect to B field
   DQ        =  0.001000  dq finite difference perturbation B field
   LLRAUG    =     F  two centre corrections for induced B field
   LBONE     =     F  B-component reconstruction in AE one-centre
   LVGVCALC  =     T  calculate vGv susceptibility
   LVGVAPPL  =     F  apply vGv susceptibility instead of pGv for G=0

 Random number generation:
   RANDOM_GENERATOR = DEFAULT
   PCG_SEED         = not used


--------------------------------------------------------------------------------------------------------


 Static calculation
 charge density and potential remain constant during run
 non-spin polarized calculation
 RMM-DIIS sequential band-by-band and
  variant of blocked Davidson during initial phase
 perform sub-space diagonalisation
    before iterative eigenvector-optimisation
 no mixing
 using additional bands           24
 reciprocal scheme for non local part
 use partial core corrections
 calculate Harris-corrections to forces 
   (improved forces if not selfconsistent)
 use gradient corrections 
 WARNING: stress and forces are not correct
  (second derivative of E(xc) not defined)
 use of overlap-Matrix (Vanderbilt PP)
 Fermi weights with tetrahedron method with Bloechl corrections


--------------------------------------------------------------------------------------------------------


  energy-cutoff  :      680.00
  volume of cell :      196.49
      direct lattice vectors                 reciprocal lattice vectors
     5.302919200  0.000000000 -2.364029390     0.188575379  0.038239427  0.000000000
    -1.053879568  5.197142179 -2.364029719     0.000000000  0.192413439  0.000000000
     0.000000000  0.000000000  7.129686600     0.062526975  0.076478848  0.140258620

  length of vectors
     5.805995780  5.805995650  7.129686600     0.192413429  0.192413439  0.171554998


 
 k-points in units of 2pi/SCALE and weight: pymatgen with grid density = 1010 / numb
   0.00000000  0.00000000  0.00000000       0.010
   0.03771508  0.00764789  0.00000000       0.040
   0.07543015  0.01529577  0.00000000       0.040
   0.03771508  0.04613057  0.00000000       0.020
   0.07543015  0.05377846  0.00000000       0.040
  -0.07543015  0.02318692  0.00000000       0.040
  -0.03771508  0.03083480  0.00000000       0.020
   0.07543015  0.09226115  0.00000000       0.020
  -0.07543015  0.06166960  0.00000000       0.020
   0.01563174  0.01911971  0.03506465       0.020
   0.05334682  0.02676760  0.03506465       0.040
   0.09106190  0.03441548  0.03506465       0.040
  -0.05979841  0.00382394  0.03506465       0.040
  -0.02208333  0.01147183  0.03506465       0.040
   0.05334682  0.06525029  0.03506465       0.020
   0.09106190  0.07289817  0.03506465       0.040
  -0.05979841  0.04230663  0.03506465       0.040
  -0.02208333  0.04995451  0.03506465       0.040
   0.09106190  0.11138086  0.03506465       0.020
  -0.05979841  0.08078932  0.03506465       0.040
  -0.02208333  0.08843720  0.03506465       0.040
  -0.05979841 -0.07314143  0.03506465       0.020
  -0.02208333 -0.06549355  0.03506465       0.040
  -0.02208333 -0.02701086  0.03506465       0.020
   0.03126349  0.03823942  0.07012931       0.010
   0.06897856  0.04588731  0.07012931       0.040
   0.10669364  0.05353519  0.07012931       0.040
   0.06897856  0.08437000  0.07012931       0.020
   0.10669364  0.09201788  0.07012931       0.040
  -0.04416666  0.06142634  0.07012931       0.040
  -0.00645159  0.06907423  0.07012931       0.020
   0.10669364  0.13050057  0.07012931       0.020
  -0.04416666  0.09990903  0.07012931       0.020
 
 k-points in reciprocal lattice and weights: pymatgen with grid density = 1010 / numb
   0.00000000  0.00000000  0.00000000       0.010
   0.20000000  0.00000000  0.00000000       0.040
   0.40000000 -0.00000000  0.00000000       0.040
   0.20000000  0.20000000  0.00000000       0.020
   0.40000000  0.20000000  0.00000000       0.040
  -0.40000000  0.20000000  0.00000000       0.040
  -0.20000000  0.20000000  0.00000000       0.020
   0.40000000  0.40000000  0.00000000       0.020
  -0.40000000  0.40000000  0.00000000       0.020
  -0.00000000 -0.00000000  0.25000000       0.020
   0.20000000  0.00000000  0.25000000       0.040
   0.40000000 -0.00000000  0.25000000       0.040
  -0.40000000  0.00000000  0.25000000       0.040
  -0.20000000 -0.00000000  0.25000000       0.040
   0.20000000  0.20000000  0.25000000       0.020
   0.40000000  0.20000000  0.25000000       0.040
  -0.40000000  0.20000000  0.25000000       0.040
  -0.20000000  0.20000000  0.25000000       0.040
   0.40000000  0.40000000  0.25000000       0.020
  -0.40000000  0.40000000  0.25000000       0.040
  -0.20000000  0.40000000  0.25000000       0.040
  -0.40000000 -0.40000000  0.25000000       0.020
  -0.20000000 -0.40000000  0.25000000       0.040
  -0.20000000 -0.20000000  0.25000000       0.020
  -0.00000000 -0.00000000  0.50000000       0.010
   0.20000000 -0.00000000  0.50000000       0.040
   0.40000000 -0.00000000  0.50000000       0.040
   0.20000000  0.20000000  0.50000000       0.020
   0.40000000  0.20000000  0.50000000       0.040
  -0.40000000  0.20000000  0.50000000       0.040
  -0.20000000  0.20000000  0.50000000       0.020
   0.40000000  0.40000000  0.50000000       0.020
  -0.40000000  0.40000000  0.50000000       0.020
 
 position of ions in fractional coordinates (direct lattice) 
   0.50000000  0.50000000  0.00000000
   0.75000000  0.25000000  0.50000000
   0.00000000  0.00000000  0.00000000
   0.25000000  0.75000000  0.50000000
   0.34516103  0.37500000  0.25000000
   0.90483897  0.87500000  0.25000000
   0.12500000  0.65483897  0.75000000
   0.62500000  0.09516103  0.75000000
 
 position of ions in cartesian coordinates  (Angst):
   2.12451982  2.59857109 -2.36402955
   3.71371951  1.29928554  1.20081383
   0.00000000  0.00000000  0.00000000
   0.53532012  3.89785663  1.20081366
   1.43515622  1.94892832  0.07993969
   3.87614333  4.54749941 -2.42517027
  -0.02725651  3.40329123  3.50370249
   3.21403623  0.49456540  3.64478308
 


--------------------------------------------------------------------------------------------------------


 k-point   1 :   0.0000 0.0000 0.0000  plane waves:    7897
 k-point   2 :   0.2000 0.0000 0.0000  plane waves:    7920
 k-point   3 :   0.4000-0.0000 0.0000  plane waves:    7925
 k-point   4 :   0.2000 0.2000 0.0000  plane waves:    7921
 k-point   5 :   0.4000 0.2000 0.0000  plane waves:    7901
 k-point   6 :  -0.4000 0.2000 0.0000  plane waves:    7901
 k-point   7 :  -0.2000 0.2000 0.0000  plane waves:    7903
 k-point   8 :   0.4000 0.4000 0.0000  plane waves:    7901
 k-point   9 :  -0.4000 0.4000 0.0000  plane waves:    7920
 k-point  10 :  -0.0000-0.0000 0.2500  plane waves:    7937
 k-point  11 :   0.2000 0.0000 0.2500  plane waves:    7916
 k-point  12 :   0.4000-0.0000 0.2500  plane waves:    7905
 k-point  13 :  -0.4000 0.0000 0.2500  plane waves:    7897
 k-point  14 :  -0.2000-0.0000 0.2500  plane waves:    7924
 k-point  15 :   0.2000 0.2000 0.2500  plane waves:    7925
 k-point  16 :   0.4000 0.2000 0.2500  plane waves:    7918
 k-point  17 :  -0.4000 0.2000 0.2500  plane waves:    7906
 k-point  18 :  -0.2000 0.2000 0.2500  plane waves:    7911
 k-point  19 :   0.4000 0.4000 0.2500  plane waves:    7898
 k-point  20 :  -0.4000 0.4000 0.2500  plane waves:    7911
 k-point  21 :  -0.2000 0.4000 0.2500  plane waves:    7914
 k-point  22 :  -0.4000-0.4000 0.2500  plane waves:    7904
 k-point  23 :  -0.2000-0.4000 0.2500  plane waves:    7900
 k-point  24 :  -0.2000-0.2000 0.2500  plane waves:    7918
 k-point  25 :  -0.0000-0.0000 0.5000  plane waves:    7944
 k-point  26 :   0.2000-0.0000 0.5000  plane waves:    7921
 k-point  27 :   0.4000-0.0000 0.5000  plane waves:    7914
 k-point  28 :   0.2000 0.2000 0.5000  plane waves:    7913
 k-point  29 :   0.4000 0.2000 0.5000  plane waves:    7911
 k-point  30 :  -0.4000 0.2000 0.5000  plane waves:    7919
 k-point  31 :  -0.2000 0.2000 0.5000  plane waves:    7926
 k-point  32 :   0.4000 0.4000 0.5000  plane waves:    7916
 k-point  33 :  -0.4000 0.4000 0.5000  plane waves:    7906

 maximum and minimum number of plane-waves per node :       810      771

 maximum number of plane-waves:      7944
 maximum index in each direction: 
   IXMAX=   12   IYMAX=   12   IZMAX=   15
   IXMIN=  -12   IYMIN=  -12   IZMIN=  -15


 parallel 3D FFT for wavefunctions:
    minimum data exchange during FFTs selected (reduces bandwidth)
 parallel 3D FFT for charge:
    minimum data exchange during FFTs selected (reduces bandwidth)


 total amount of memory used by VASP MPI-rank0    46168. kBytes
=======================================================================

   base      :      30000. kBytes
   nonl-proj :      11564. kBytes
   fftplans  :        932. kBytes
   grid      :       1472. kBytes
   one-center:         15. kBytes
   wavefun   :       2185. kBytes
 
     INWAV:  cpu time      0.0000: real time      0.0001
 initial charge density was supplied:
 number of electron      71.9999998 magnetization 
 keeping initial charge density in first step


--------------------------------------------------------------------------------------------------------


 Maximum index for augmentation-charges          985 (set IRDMAX)


--------------------------------------------------------------------------------------------------------


 First call to EWALD:  gamma=   0.305
 Maximum number of real-space cells 3x 3x 3
 Maximum number of reciprocal cells 3x 3x 3

    FEWALD:  cpu time      0.0027: real time      0.0028


--------------------------------------- Ionic step        1  -------------------------------------------




--------------------------------------- Iteration      1(   1)  ---------------------------------------


    POTLOK:  cpu time      0.0212: real time      0.0238
    SETDIJ:  cpu time      0.1328: real time      0.1338
     EDDAV:  cpu time      0.8225: real time      0.8300
 BZINTS: Fermi energy:   18.375119;   72.000000 electrons
         Band energy: 0.540294E+03;  BLOECHL correction:   -0.175151
       DOS:  cpu time      0.0249: real time      0.0250
    --------------------------------------------
      LOOP:  cpu time      1.0013: real time      1.0126

 eigenvalue-minimisations  :  3996
 total energy-change (2. order) : 0.7381032E+03  (-0.3574902E+04)
 number of electron      71.9999998 magnetization 
 augmentation part       71.9999998 magnetization 

 Free energy of the ion-electron system (eV)
  ---------------------------------------------------
  alpha Z        PSCENC =       185.64929911
  Ewald energy   TEWEN  =     -4678.36476469
  -Hartree energ DENC   =     -2303.77795081
  -exchange      EXHF   =         0.00000000
  -V(xc)+E(xc)   XCENC  =       176.06828523
  PAW double counting   =      8090.08272835    -8232.82562561
  entropy T*S    EENTRO =         0.00000000
  eigenvalues    EBANDS =       540.29358773
  atomic energy  EATOM  =      6960.97766694
  Solvation  Ediel_sol  =         0.00000000
  ---------------------------------------------------
  free energy    TOTEN  =       738.10322626 eV

  energy without entropy =      738.10322626  energy(sigma->0) =      738.10322626


--------------------------------------------------------------------------------------------------------




--------------------------------------- Iteration      1(   2)  ---------------------------------------


     EDDAV:  cpu time      0.8055: real time      0.8097
 BZINTS: Fermi energy:    7.244001;   72.000000 electrons
         Band energy:-0.116165E+03;  BLOECHL correction:   -0.002434
       DOS:  cpu time      0.0215: real time      0.0217
    --------------------------------------------
      LOOP:  cpu time      0.8270: real time      0.8314

 eigenvalue-minimisations  :  3960
 total energy-change (2. order) :-0.6564582E+03  (-0.6098848E+03)
 number of electron      71.9999998 magnetization 
 augmentation part       71.9999998 magnetization 

 Free energy of the ion-electron system (eV)
  ---------------------------------------------------
  alpha Z        PSCENC =       185.64929911
  Ewald energy   TEWEN  =     -4678.36476469
  -Hartree energ DENC   =     -2303.77795081
  -exchange      EXHF   =         0.00000000
  -V(xc)+E(xc)   XCENC  =       176.06828523
  PAW double counting   =      8090.08272835    -8232.82562561
  entropy T*S    EENTRO =         0.00000000
  eigenvalues    EBANDS =      -116.16464151
  atomic energy  EATOM  =      6960.97766694
  Solvation  Ediel_sol  =         0.00000000
  ---------------------------------------------------
  free energy    TOTEN  =        81.64499702 eV

  energy without entropy =       81.64499702  energy(sigma->0) =       81.64499702


--------------------------------------------------------------------------------------------------------




--------------------------------------- Iteration      1(   3)  ---------------------------------------


     EDDAV:  cpu time      0.8291: real time      0.8448
 BZINTS: Fermi energy:    4.276248;   72.000000 electrons
         Band energy:-0.224703E+03;  BLOECHL correction:    0.000000
       DOS:  cpu time      0.0154: real time      0.0154
    --------------------------------------------
      LOOP:  cpu time      0.8445: real time      0.8602

 eigenvalue-minimisations  :  4632
 total energy-change (2. order) :-0.1085384E+03  (-0.1039707E+03)
 number of electron      71.9999998 magnetization 
 augmentation part       71.9999998 magnetization 

 Free energy of the ion-electron system (eV)
  ---------------------------------------------------
  alpha Z        PSCENC =       185.64929911
  Ewald energy   TEWEN  =     -4678.36476469
  -Hartree energ DENC   =     -2303.77795081
  -exchange      EXHF   =         0.00000000
  -V(xc)+E(xc)   XCENC  =       176.06828523
  PAW double counting   =      8090.08272835    -8232.82562561
  entropy T*S    EENTRO =         0.00000000
  eigenvalues    EBANDS =      -224.70308748
  atomic energy  EATOM  =      6960.97766694
  Solvation  Ediel_sol  =         0.00000000
  ---------------------------------------------------
  free energy    TOTEN  =       -26.89344895 eV

  energy without entropy =      -26.89344895  energy(sigma->0) =      -26.89344895


--------------------------------------------------------------------------------------------------------




--------------------------------------- Iteration      1(   4)  ---------------------------------------


     EDDAV:  cpu time      0.8816: real time      0.9000
 BZINTS: Fermi energy:    4.140030;   72.000000 electrons
         Band energy:-0.230840E+03;  BLOECHL correction:   -0.000000
       DOS:  cpu time      0.0154: real time      0.0155
    --------------------------------------------
      LOOP:  cpu time      0.8970: real time      0.9155

 eigenvalue-minimisations  :  4908
 total energy-change (2. order) :-0.6137280E+01  (-0.6092069E+01)
 number of electron      71.9999998 magnetization 
 augmentation part       71.9999998 magnetization 

 Free energy of the ion-electron system (eV)
  ---------------------------------------------------
  alpha Z        PSCENC =       185.64929911
  Ewald energy   TEWEN  =     -4678.36476469
  -Hartree energ DENC   =     -2303.77795081
  -exchange      EXHF   =         0.00000000
  -V(xc)+E(xc)   XCENC  =       176.06828523
  PAW double counting   =      8090.08272835    -8232.82562561
  entropy T*S    EENTRO =         0.00000000
  eigenvalues    EBANDS =      -230.84036739
  atomic energy  EATOM  =      6960.97766694
  Solvation  Ediel_sol  =         0.00000000
  ---------------------------------------------------
  free energy    TOTEN  =       -33.03072886 eV

  energy without entropy =      -33.03072886  energy(sigma->0) =      -33.03072886


--------------------------------------------------------------------------------------------------------




--------------------------------------- Iteration      1(   5)  ---------------------------------------


     EDDAV:  cpu time      0.9758: real time      0.9941
 BZINTS: Fermi energy:    4.135406;   72.000000 electrons
         Band energy:-0.231063E+03;  BLOECHL correction:    0.000000
       DOS:  cpu time      0.0155: real time      0.0156
    --------------------------------------------
      LOOP:  cpu time      0.9913: real time      1.0096

 eigenvalue-minimisations  :  5508
 total energy-change (2. order) :-0.2228398E+00  (-0.2227672E+00)
 number of electron      71.9999998 magnetization 
 augmentation part       71.9999998 magnetization 

 Free energy of the ion-electron system (eV)
  ---------------------------------------------------
  alpha Z        PSCENC =       185.64929911
  Ewald energy   TEWEN  =     -4678.36476469
  -Hartree energ DENC   =     -2303.77795081
  -exchange      EXHF   =         0.00000000
  -V(xc)+E(xc)   XCENC  =       176.06828523
  PAW double counting   =      8090.08272835    -8232.82562561
  entropy T*S    EENTRO =         0.00000000
  eigenvalues    EBANDS =      -231.06320715
  atomic energy  EATOM  =      6960.97766694
  Solvation  Ediel_sol  =         0.00000000
  ---------------------------------------------------
  free energy    TOTEN  =       -33.25356862 eV

  energy without entropy =      -33.25356862  energy(sigma->0) =      -33.25356862


--------------------------------------------------------------------------------------------------------




--------------------------------------- Iteration      1(   6)  ---------------------------------------


    EDDIAG:  cpu time      0.2496: real time      0.2648
  RMM-DIIS:  cpu time      0.4332: real time      0.4346
    ORTHCH:  cpu time      0.0351: real time      0.0352
 BZINTS: Fermi energy:    4.128583;   72.000000 electrons
         Band energy:-0.231071E+03;  BLOECHL correction:    0.000000
       DOS:  cpu time      0.0153: real time      0.0153
    --------------------------------------------
      LOOP:  cpu time      0.7331: real time      0.7499

 eigenvalue-minimisations  :  6584
 total energy-change (2. order) :-0.7481962E-02  (-0.7481962E-02)
 number of electron      71.9999998 magnetization 
 augmentation part       71.9999998 magnetization 

 Free energy of the ion-electron system (eV)
  ---------------------------------------------------
  alpha Z        PSCENC =       185.64929911
  Ewald energy   TEWEN  =     -4678.36476469
  -Hartree energ DENC   =     -2303.77795081
  -exchange      EXHF   =         0.00000000
  -V(xc)+E(xc)   XCENC  =       176.06828523
  PAW double counting   =      8090.08272835    -8232.82562561
  entropy T*S    EENTRO =         0.00000000
  eigenvalues    EBANDS =      -231.07068911
  atomic energy  EATOM  =      6960.97766694
  Solvation  Ediel_sol  =         0.00000000
  ---------------------------------------------------
  free energy    TOTEN  =       -33.26105058 eV

  energy without entropy =      -33.26105058  energy(sigma->0) =      -33.26105058


--------------------------------------------------------------------------------------------------------




--------------------------------------- Iteration      1(   7)  ---------------------------------------


    EDDIAG:  cpu time      0.2856: real time      0.3005
  RMM-DIIS:  cpu time      0.5449: real time      0.5463
    ORTHCH:  cpu time      0.0347: real time      0.0348
 BZINTS: Fermi energy:    4.131610;   72.000000 electrons
         Band energy:-0.231073E+03;  BLOECHL correction:    0.000000
       DOS:  cpu time      0.0158: real time      0.0158
    --------------------------------------------
      LOOP:  cpu time      0.8810: real time      0.8974

 eigenvalue-minimisations  :  7365
 total energy-change (2. order) :-0.1947209E-02  (-0.2156623E-02)
 number of electron      71.9999998 magnetization 
 augmentation part       71.9999998 magnetization 

 Free energy of the ion-electron system (eV)
  ---------------------------------------------------
  alpha Z        PSCENC =       185.64929911
  Ewald energy   TEWEN  =     -4678.36476469
  -Hartree energ DENC   =     -2303.77795081
  -exchange      EXHF   =         0.00000000
  -V(xc)+E(xc)   XCENC  =       176.06828523
  PAW double counting   =      8090.08272835    -8232.82562561
  entropy T*S    EENTRO =         0.00000000
  eigenvalues    EBANDS =      -231.07263632
  atomic energy  EATOM  =      6960.97766694
  Solvation  Ediel_sol  =         0.00000000
  ---------------------------------------------------
  free energy    TOTEN  =       -33.26299779 eV

  energy without entropy =      -33.26299779  energy(sigma->0) =      -33.26299779


--------------------------------------------------------------------------------------------------------




--------------------------------------- Iteration      1(   8)  ---------------------------------------


    EDDIAG:  cpu time      0.2747: real time      0.2901
  RMM-DIIS:  cpu time      0.5231: real time      0.5244
    ORTHCH:  cpu time      0.0362: real time      0.0363
 BZINTS: Fermi energy:    4.132699;   72.000000 electrons
         Band energy:-0.231073E+03;  BLOECHL correction:    0.000000
       DOS:  cpu time      0.0155: real time      0.0155
    --------------------------------------------
      LOOP:  cpu time      0.8494: real time      0.8664

 eigenvalue-minimisations  :  7621
 total energy-change (2. order) :-0.4957444E-03  (-0.5264754E-03)
 number of electron      71.9999998 magnetization 
 augmentation part       71.9999998 magnetization 

 Free energy of the ion-electron system (eV)
  ---------------------------------------------------
  alpha Z        PSCENC =       185.64929911
  Ewald energy   TEWEN  =     -4678.36476469
  -Hartree energ DENC   =     -2303.77795081
  -exchange      EXHF   =         0.00000000
  -V(xc)+E(xc)   XCENC  =       176.06828523
  PAW double counting   =      8090.08272835    -8232.82562561
  entropy T*S    EENTRO =         0.00000000
  eigenvalues    EBANDS =      -231.07313207
  atomic energy  EATOM  =      6960.97766694
  Solvation  Ediel_sol  =         0.00000000
  ---------------------------------------------------
  free energy    TOTEN  =       -33.26349353 eV

  energy without entropy =      -33.26349353  energy(sigma->0) =      -33.26349353


--------------------------------------------------------------------------------------------------------




--------------------------------------- Iteration      1(   9)  ---------------------------------------


    EDDIAG:  cpu time      0.3227: real time      0.3380
  RMM-DIIS:  cpu time      0.5676: real time      0.5693
    ORTHCH:  cpu time      0.0350: real time      0.0351
 BZINTS: Fermi energy:    4.130000;   72.000000 electrons
         Band energy:-0.231073E+03;  BLOECHL correction:    0.000000
       DOS:  cpu time      0.0158: real time      0.0158
    --------------------------------------------
      LOOP:  cpu time      0.9412: real time      0.9582

 eigenvalue-minimisations  :  7354
 total energy-change (2. order) :-0.2157435E-03  (-0.2256131E-03)
 number of electron      71.9999998 magnetization 
 augmentation part       71.9999998 magnetization 

 Free energy of the ion-electron system (eV)
  ---------------------------------------------------
  alpha Z        PSCENC =       185.64929911
  Ewald energy   TEWEN  =     -4678.36476469
  -Hartree energ DENC   =     -2303.77795081
  -exchange      EXHF   =         0.00000000
  -V(xc)+E(xc)   XCENC  =       176.06828523
  PAW double counting   =      8090.08272835    -8232.82562561
  entropy T*S    EENTRO =         0.00000000
  eigenvalues    EBANDS =      -231.07334781
  atomic energy  EATOM  =      6960.97766694
  Solvation  Ediel_sol  =         0.00000000
  ---------------------------------------------------
  free energy    TOTEN  =       -33.26370928 eV

  energy without entropy =      -33.26370928  energy(sigma->0) =      -33.26370928


--------------------------------------------------------------------------------------------------------




--------------------------------------- Iteration      1(  10)  ---------------------------------------


    EDDIAG:  cpu time      0.2853: real time      0.2967
  RMM-DIIS:  cpu time      0.4921: real time      0.4934
    ORTHCH:  cpu time      0.0354: real time      0.0355
 BZINTS: Fermi energy:    4.133641;   72.000000 electrons
         Band energy:-0.231073E+03;  BLOECHL correction:    0.000000
       DOS:  cpu time      0.0158: real time      0.0160
    --------------------------------------------
      LOOP:  cpu time      0.8286: real time      0.8416

 eigenvalue-minimisations  :  6467
 total energy-change (2. order) :-0.6270933E-04  (-0.7069008E-04)
 number of electron      71.9999998 magnetization 
 augmentation part       71.9999998 magnetization 

 Free energy of the ion-electron system (eV)
  ---------------------------------------------------
  alpha Z        PSCENC =       185.64929911
  Ewald energy   TEWEN  =     -4678.36476469
  -Hartree energ DENC   =     -2303.77795081
  -exchange      EXHF   =         0.00000000
  -V(xc)+E(xc)   XCENC  =       176.06828523
  PAW double counting   =      8090.08272835    -8232.82562561
  entropy T*S    EENTRO =         0.00000000
  eigenvalues    EBANDS =      -231.07341052
  atomic energy  EATOM  =      6960.97766694
  Solvation  Ediel_sol  =         0.00000000
  ---------------------------------------------------
  free energy    TOTEN  =       -33.26377199 eV

  energy without entropy =      -33.26377199  energy(sigma->0) =      -33.26377199


--------------------------------------------------------------------------------------------------------




--------------------------------------- Iteration      1(  11)  ---------------------------------------


    EDDIAG:  cpu time      0.2846: real time      0.2987
  RMM-DIIS:  cpu time      0.4406: real time      0.4418
    ORTHCH:  cpu time      0.0352: real time      0.0353
 BZINTS: Fermi energy:    4.131603;   72.000000 electrons
         Band energy:-0.231073E+03;  BLOECHL correction:    0.000000
       DOS:  cpu time      0.0159: real time      0.0159
    --------------------------------------------
      LOOP:  cpu time      0.7762: real time      0.7916

 eigenvalue-minimisations  :  5805
 total energy-change (2. order) :-0.4289818E-04  (-0.4579929E-04)
 number of electron      71.9999998 magnetization 
 augmentation part       71.9999998 magnetization 

 Free energy of the ion-electron system (eV)
  ---------------------------------------------------
  alpha Z        PSCENC =       185.64929911
  Ewald energy   TEWEN  =     -4678.36476469
  -Hartree energ DENC   =     -2303.77795081
  -exchange      EXHF   =         0.00000000
  -V(xc)+E(xc)   XCENC  =       176.06828523
  PAW double counting   =      8090.08272835    -8232.82562561
  entropy T*S    EENTRO =         0.00000000
  eigenvalues    EBANDS =      -231.07345342
  atomic energy  EATOM  =      6960.97766694
  Solvation  Ediel_sol  =         0.00000000
  ---------------------------------------------------
  free energy    TOTEN  =       -33.26381488 eV

  energy without entropy =      -33.26381488  energy(sigma->0) =      -33.26381488


--------------------------------------------------------------------------------------------------------




--------------------------------------- Iteration      1(  12)  ---------------------------------------


    EDDIAG:  cpu time      0.2791: real time      0.2958
  RMM-DIIS:  cpu time      0.3806: real time      0.3815
    ORTHCH:  cpu time      0.0337: real time      0.0338
 BZINTS: Fermi energy:    4.136452;   72.000000 electrons
         Band energy:-0.231073E+03;  BLOECHL correction:   -0.000000
       DOS:  cpu time      0.0160: real time      0.0161
    --------------------------------------------
      LOOP:  cpu time      0.7094: real time      0.7272

 eigenvalue-minimisations  :  5031
 total energy-change (2. order) :-0.1473697E-04  (-0.1744676E-04)
 number of electron      71.9999998 magnetization 
 augmentation part       71.9999998 magnetization 

 Free energy of the ion-electron system (eV)
  ---------------------------------------------------
  alpha Z        PSCENC =       185.64929911
  Ewald energy   TEWEN  =     -4678.36476469
  -Hartree energ DENC   =     -2303.77795081
  -exchange      EXHF   =         0.00000000
  -V(xc)+E(xc)   XCENC  =       176.06828523
  PAW double counting   =      8090.08272835    -8232.82562561
  entropy T*S    EENTRO =         0.00000000
  eigenvalues    EBANDS =      -231.07346815
  atomic energy  EATOM  =      6960.97766694
  Solvation  Ediel_sol  =         0.00000000
  ---------------------------------------------------
  free energy    TOTEN  =       -33.26382962 eV

  energy without entropy =      -33.26382962  energy(sigma->0) =      -33.26382962


--------------------------------------------------------------------------------------------------------




--------------------------------------- Iteration      1(  13)  ---------------------------------------


    EDDIAG:  cpu time      0.2871: real time      0.3038
  RMM-DIIS:  cpu time      0.3447: real time      0.3457
    ORTHCH:  cpu time      0.0351: real time      0.0352
 BZINTS: Fermi energy:    4.134719;   72.000000 electrons
         Band energy:-0.231073E+03;  BLOECHL correction:    0.000000
       DOS:  cpu time      0.0166: real time      0.0166
    --------------------------------------------
      LOOP:  cpu time      0.6834: real time      0.7013

 eigenvalue-minimisations  :  4398
 total energy-change (2. order) :-0.1065721E-04  (-0.1192339E-04)
 number of electron      71.9999998 magnetization 
 augmentation part       71.9999998 magnetization 

 Free energy of the ion-electron system (eV)
  ---------------------------------------------------
  alpha Z        PSCENC =       185.64929911
  Ewald energy   TEWEN  =     -4678.36476469
  -Hartree energ DENC   =     -2303.77795081
  -exchange      EXHF   =         0.00000000
  -V(xc)+E(xc)   XCENC  =       176.06828523
  PAW double counting   =      8090.08272835    -8232.82562561
  entropy T*S    EENTRO =         0.00000000
  eigenvalues    EBANDS =      -231.07347881
  atomic energy  EATOM  =      6960.97766694
  Solvation  Ediel_sol  =         0.00000000
  ---------------------------------------------------
  free energy    TOTEN  =       -33.26384028 eV

  energy without entropy =      -33.26384028  energy(sigma->0) =      -33.26384028


--------------------------------------------------------------------------------------------------------




--------------------------------------- Iteration      1(  14)  ---------------------------------------


    EDDIAG:  cpu time      0.2742: real time      0.2884
  RMM-DIIS:  cpu time      0.2891: real time      0.2899
    ORTHCH:  cpu time      0.0357: real time      0.0358
 BZINTS: Fermi energy:    4.132844;   72.000000 electrons
         Band energy:-0.231073E+03;  BLOECHL correction:    0.000000
       DOS:  cpu time      0.0156: real time      0.0157
    --------------------------------------------
      LOOP:  cpu time      0.6147: real time      0.6298

 eigenvalue-minimisations  :  3919
 total energy-change (2. order) :-0.3149515E-05  (-0.4622985E-05)
 number of electron      71.9999998 magnetization 
 augmentation part       71.9999998 magnetization 

 Free energy of the ion-electron system (eV)
  ---------------------------------------------------
  alpha Z        PSCENC =       185.64929911
  Ewald energy   TEWEN  =     -4678.36476469
  -Hartree energ DENC   =     -2303.77795081
  -exchange      EXHF   =         0.00000000
  -V(xc)+E(xc)   XCENC  =       176.06828523
  PAW double counting   =      8090.08272835    -8232.82562561
  entropy T*S    EENTRO =         0.00000000
  eigenvalues    EBANDS =      -231.07348196
  atomic energy  EATOM  =      6960.97766694
  Solvation  Ediel_sol  =         0.00000000
  ---------------------------------------------------
  free energy    TOTEN  =       -33.26384343 eV

  energy without entropy =      -33.26384343  energy(sigma->0) =      -33.26384343


--------------------------------------------------------------------------------------------------------




 average (electrostatic) potential at core
  the test charge radii are     1.0774  0.9430  1.0808
  (the norm of the test charge is              1.0000)
       1 -97.2133       2 -97.2133       3 -66.0511       4 -66.0511       5 -54.2729
       6 -54.2729       7 -54.2729       8 -54.2729
 
 
 
 E-fermi :   4.1328     XC(G=0):  -9.5004     alpha+bet : -9.4251

 Fermi energy:         4.1328439032

 k-point     1 :       0.0000    0.0000    0.0000
  band No.  band energies     occupation 
      1     -10.9710      2.00000
      2     -10.9538      2.00000
      3     -10.9538      2.00000
      4     -10.7104      2.00000
      5     -10.6902      2.00000
      6     -10.6902      2.00000
      7     -10.6284      2.00000
      8     -10.6274      2.00000
      9     -10.6104      2.00000
     10     -10.6034      2.00000
     11      -9.9311      2.00000
     12      -8.5353      2.00000
     13      -8.5207      2.00000
     14      -8.5207      2.00000
     15      -2.4254      2.00000
     16      -1.7382      2.00000
     17      -0.8455      2.00000
     18      -0.1218      2.00000
     19      -0.0439      2.00000
     20       0.4209      2.00000
     21       0.4209      2.00000
     22       0.6962      2.00000
     23       0.6962      2.00000
     24       0.9692      2.00000
     25       0.9692      2.00000
     26       1.0407      2.00000
     27       2.0303      2.00000
     28       2.0880      2.00000
     29       2.1524      2.00000
     30       2.4463      2.00000
     31       2.4614      2.00000
     32       2.4614      2.00000
     33       2.5714      2.00000
     34       3.7914      2.00000
     35       4.1264      2.00000
     36       4.1264      2.00000
     37       4.1359      0.00000
     38       5.9101      0.00000
     39       6.0406      0.00000
     40       7.9121      0.00000
     41       7.9121      0.00000
     42       8.5453      0.00000
     43       8.8940      0.00000
     44       8.8940      0.00000
     45       8.8993      0.00000
     46       9.2312      0.00000
     47      10.0102      0.00000
     48      10.0102      0.00000
     49      10.6145      0.00000
     50      10.6837      0.00000
     51      12.9258      0.00000
     52      13.3339      0.00000
     53      13.7793      0.00000
     54      13.8447      0.00000
     55      13.8517      0.00000
     56      14.3922      0.00000
     57      14.7059      0.00000
     58      15.2278      0.00000
     59      15.4646      0.00000
     60      15.5421      0.00000

 k-point     2 :       0.2000    0.0000    0.0000
  band No.  band energies     occupation 
      1     -10.9724      2.00000
      2     -10.9645      2.00000
      3     -10.9461      2.00000
      4     -10.7304      2.00000
      5     -10.7033      2.00000
      6     -10.6860      2.00000
      7     -10.6307      2.00000
      8     -10.6212      2.00000
      9     -10.6127      2.00000
     10     -10.6019      2.00000
     11      -9.7785      2.00000
     12      -8.6158      2.00000
     13      -8.5877      2.00000
     14      -8.5421      2.00000
     15      -2.3211      2.00000
     16      -1.7767      2.00000
     17      -0.8486      2.00000
     18      -0.2196      2.00000
     19      -0.0032      2.00000
     20       0.4534      2.00000
     21       0.5358      2.00000
     22       0.6026      2.00000
     23       0.6413      2.00000
     24       0.8576      2.00000
     25       0.9463      2.00000
     26       1.1477      2.00000
     27       2.1250      2.00000
     28       2.1982      2.00000
     29       2.2076      2.00000
     30       2.3178      2.00000
     31       2.4179      2.00000
     32       2.6277      2.00000
     33       2.6404      2.00000
     34       3.1046      2.00000
     35       3.8084      2.00000
     36       3.9837      2.00000
     37       5.0854      0.00000
     38       6.2633      0.00000
     39       6.4845      0.00000
     40       7.3415      0.00000
     41       7.6172      0.00000
     42       8.3952      0.00000
     43       8.8152      0.00000
     44       8.8424      0.00000
     45       8.9870      0.00000
     46       9.3732      0.00000
     47      10.0073      0.00000
     48      10.4929      0.00000
     49      11.3711      0.00000
     50      11.7215      0.00000
     51      12.2937      0.00000
     52      12.6349      0.00000
     53      13.0865      0.00000
     54      13.2765      0.00000
     55      13.4297      0.00000
     56      13.6910      0.00000
     57      13.9504      0.00000
     58      14.1710      0.00000
     59      14.9311      0.00000
     60      15.6346      0.00000

 k-point     3 :       0.4000   -0.0000    0.0000
  band No.  band energies     occupation 
      1     -10.9865      2.00000
      2     -10.9726      2.00000
      3     -10.9249      2.00000
      4     -10.7727      2.00000
      5     -10.7082      2.00000
      6     -10.6812      2.00000
      7     -10.6284      2.00000
      8     -10.6227      2.00000
      9     -10.6086      2.00000
     10     -10.6027      2.00000
     11      -9.4154      2.00000
     12      -8.9223      2.00000
     13      -8.6576      2.00000
     14      -8.5705      2.00000
     15      -2.1188      2.00000
     16      -1.7686      2.00000
     17      -0.7658      2.00000
     18      -0.3345      2.00000
     19      -0.0667      2.00000
     20       0.1296      2.00000
     21       0.4151      2.00000
     22       0.6597      2.00000
     23       0.7438      2.00000
     24       0.8892      2.00000
     25       0.9225      2.00000
     26       1.2386      2.00000
     27       2.1919      2.00000
     28       2.2133      2.00000
     29       2.2635      2.00000
     30       2.3662      2.00000
     31       2.4942      2.00000
     32       2.6825      2.00000
     33       2.8320      2.00000
     34       2.9828      2.00000
     35       3.2287      2.00000
     36       3.6686      2.00000
     37       5.8808      0.00000
     38       6.4185      0.00000
     39       7.1560      0.00000
     40       7.4825      0.00000
     41       7.8098      0.00000
     42       8.2763      0.00000
     43       8.7050      0.00000
     44       8.9120      0.00000
     45       9.3207      0.00000
     46       9.5538      0.00000
     47      10.0675      0.00000
     48      10.3197      0.00000
     49      10.9573      0.00000
     50      11.5998      0.00000
     51      11.6523      0.00000
     52      12.0141      0.00000
     53      12.1198      0.00000
     54      12.3304      0.00000
     55      12.9507      0.00000
     56      13.4278      0.00000
     57      14.1013      0.00000
     58      14.3877      0.00000
     59      15.2374      0.00000
     60      15.5851      0.00000

 k-point     4 :       0.2000    0.2000    0.0000
  band No.  band energies     occupation 
      1     -10.9761      2.00000
      2     -10.9731      2.00000
      3     -10.9317      2.00000
      4     -10.7650      2.00000
      5     -10.6989      2.00000
      6     -10.6884      2.00000
      7     -10.6308      2.00000
      8     -10.6173      2.00000
      9     -10.6142      2.00000
     10     -10.6007      2.00000
     11      -9.5907      2.00000
     12      -8.7011      2.00000
     13      -8.6446      2.00000
     14      -8.6066      2.00000
     15      -2.2569      2.00000
     16      -1.8843      2.00000
     17      -0.9138      2.00000
     18      -0.0420      2.00000
     19       0.0976      2.00000
     20       0.2427      2.00000
     21       0.2582      2.00000
     22       0.7312      2.00000
     23       0.7857      2.00000
     24       0.8973      2.00000
     25       1.0828      2.00000
     26       1.1573      2.00000
     27       2.1334      2.00000
     28       2.2252      2.00000
     29       2.3120      2.00000
     30       2.3158      2.00000
     31       2.4883      2.00000
     32       2.6206      2.00000
     33       2.6913      2.00000
     34       2.9937      2.00000
     35       3.8327      2.00000
     36       3.8532      2.00000
     37       5.1321      0.00000
     38       6.0190      0.00000
     39       6.8333      0.00000
     40       6.8948      0.00000
     41       7.4309      0.00000
     42       8.5563      0.00000
     43       8.9898      0.00000
     44       9.0180      0.00000
     45       9.2143      0.00000
     46       9.4515      0.00000
     47      10.4038      0.00000
     48      10.5664      0.00000
     49      10.9420      0.00000
     50      11.5593      0.00000
     51      11.7701      0.00000
     52      12.2775      0.00000
     53      12.9117      0.00000
     54      13.2995      0.00000
     55      13.5094      0.00000
     56      13.6833      0.00000
     57      13.7287      0.00000
     58      13.8694      0.00000
     59      15.5564      0.00000
     60      15.7787      0.00000

 k-point     5 :       0.4000    0.2000    0.0000
  band No.  band energies     occupation 
      1     -10.9910      2.00000
      2     -10.9783      2.00000
      3     -10.9057      2.00000
      4     -10.7984      2.00000
      5     -10.7043      2.00000
      6     -10.6874      2.00000
      7     -10.6256      2.00000
      8     -10.6207      2.00000
      9     -10.6083      2.00000
     10     -10.6035      2.00000
     11      -9.2560      2.00000
     12      -8.9458      2.00000
     13      -8.7385      2.00000
     14      -8.6135      2.00000
     15      -2.1821      2.00000
     16      -1.9314      2.00000
     17      -0.9681      2.00000
     18      -0.5166      2.00000
     19       0.0149      2.00000
     20       0.3142      2.00000
     21       0.5964      2.00000
     22       0.7105      2.00000
     23       0.8368      2.00000
     24       0.9299      2.00000
     25       1.0973      2.00000
     26       1.1892      2.00000
     27       2.1618      2.00000
     28       2.2063      2.00000
     29       2.2826      2.00000
     30       2.3669      2.00000
     31       2.6611      2.00000
     32       2.7118      2.00000
     33       2.8898      2.00000
     34       3.0604      2.00000
     35       3.3815      2.00000
     36       3.6044      2.00000
     37       5.5122      0.00000
     38       6.0408      0.00000
     39       6.9823      0.00000
     40       7.5209      0.00000
     41       7.9215      0.00000
     42       8.4095      0.00000
     43       8.7253      0.00000
     44       9.0436      0.00000
     45       9.3054      0.00000
     46       9.7047      0.00000
     47      10.3250      0.00000
     48      10.3765      0.00000
     49      10.5668      0.00000
     50      11.0539      0.00000
     51      11.3358      0.00000
     52      11.9320      0.00000
     53      12.6171      0.00000
     54      13.0195      0.00000
     55      13.3222      0.00000
     56      13.5712      0.00000
     57      13.8030      0.00000
     58      14.5636      0.00000
     59      15.3612      0.00000
     60      15.6098      0.00000

 k-point     6 :      -0.4000    0.2000    0.0000
  band No.  band energies     occupation 
      1     -10.9907      2.00000
      2     -10.9767      2.00000
      3     -10.9163      2.00000
      4     -10.7776      2.00000
      5     -10.7078      2.00000
      6     -10.6901      2.00000
      7     -10.6241      2.00000
      8     -10.6194      2.00000
      9     -10.6095      2.00000
     10     -10.6051      2.00000
     11      -9.3974      2.00000
     12      -8.8415      2.00000
     13      -8.7281      2.00000
     14      -8.5636      2.00000
     15      -2.2235      2.00000
     16      -1.9562      2.00000
     17      -0.9848      2.00000
     18      -0.3627      2.00000
     19      -0.1738      2.00000
[...]
   29.241127    0.696517    0.696392    0.695498   -0.000309   -0.000694   -0.000567
   29.257481    0.696956    0.696830    0.695937   -0.000309   -0.000693   -0.000567
   29.273835    0.697393    0.697267    0.696374   -0.000309   -0.000693   -0.000566
   29.290189    0.697828    0.697703    0.696811   -0.000309   -0.000693   -0.000566
   29.306543    0.698262    0.698137    0.697245   -0.000309   -0.000692   -0.000566
   29.322897    0.698695    0.698570    0.697679   -0.000308   -0.000692   -0.000566
   29.339251    0.699127    0.699002    0.698111   -0.000308   -0.000691   -0.000565
   29.355605    0.699557    0.699432    0.698542   -0.000308   -0.000691   -0.000565
   29.371959    0.699986    0.699861    0.698971   -0.000308   -0.000691   -0.000565
   29.388314    0.700413    0.700288    0.699399   -0.000308   -0.000690   -0.000564
   29.404668    0.700839    0.700715    0.699826   -0.000307   -0.000690   -0.000564
   29.421022    0.701264    0.701140    0.700251   -0.000307   -0.000689   -0.000564
   29.437376    0.701688    0.701563    0.700676   -0.000307   -0.000689   -0.000563
   29.453730    0.702110    0.701986    0.701099   -0.000307   -0.000688   -0.000563
   29.470084    0.702531    0.702407    0.701520   -0.000307   -0.000688   -0.000562
   29.486438    0.702951    0.702827    0.701941   -0.000306   -0.000688   -0.000562
   29.502792    0.703369    0.703245    0.702360   -0.000306   -0.000687   -0.000562
   29.519146    0.703787    0.703663    0.702778   -0.000306   -0.000687   -0.000561
   29.535500    0.704203    0.704079    0.703194   -0.000306   -0.000686   -0.000561
   29.551855    0.704617    0.704493    0.703610   -0.000306   -0.000686   -0.000561
   29.568209    0.705031    0.704907    0.704024   -0.000305   -0.000685   -0.000560
   29.584563    0.705443    0.705320    0.704437   -0.000305   -0.000685   -0.000560
   29.600917    0.705854    0.705731    0.704849   -0.000305   -0.000684   -0.000559
   29.617271    0.706264    0.706141    0.705260   -0.000305   -0.000684   -0.000559
   29.633625    0.706673    0.706550    0.705669   -0.000305   -0.000683   -0.000559
   29.649979    0.707081    0.706957    0.706077   -0.000304   -0.000683   -0.000558
   29.666333    0.707487    0.707364    0.706485   -0.000304   -0.000682   -0.000558
   29.682687    0.707892    0.707769    0.706891   -0.000304   -0.000682   -0.000557
   29.699041    0.708296    0.708173    0.707295   -0.000304   -0.000681   -0.000557
   29.715396    0.708699    0.708576    0.707699   -0.000303   -0.000681   -0.000557
   29.731750    0.709101    0.708978    0.708102   -0.000303   -0.000680   -0.000556
   29.748104    0.709502    0.709379    0.708503   -0.000303   -0.000680   -0.000556
   29.764458    0.709901    0.709778    0.708903   -0.000303   -0.000679   -0.000555
   29.780812    0.710300    0.710177    0.709303   -0.000303   -0.000679   -0.000555
   29.797166    0.710697    0.710574    0.709701   -0.000302   -0.000678   -0.000554
   29.813520    0.711093    0.710971    0.710098   -0.000302   -0.000678   -0.000554
   29.829874    0.711488    0.711366    0.710493   -0.000302   -0.000677   -0.000553
   29.846228    0.711882    0.711760    0.710888   -0.000302   -0.000676   -0.000553
   29.862582    0.712275    0.712153    0.711282   -0.000301   -0.000676   -0.000553
   29.878936    0.712667    0.712545    0.711675   -0.000301   -0.000675   -0.000552
   29.895291    0.713058    0.712936    0.712066   -0.000301   -0.000675   -0.000552
   29.911645    0.713447    0.713325    0.712457   -0.000301   -0.000674   -0.000551
   29.927999    0.713836    0.713714    0.712846   -0.000300   -0.000674   -0.000551
   29.944353    0.714224    0.714102    0.713235   -0.000300   -0.000673   -0.000550
   29.960707    0.714610    0.714488    0.713622   -0.000300   -0.000673   -0.000550
   29.977061    0.714996    0.714874    0.714008   -0.000300   -0.000672   -0.000549
   29.993415    0.715380    0.715259    0.714393   -0.000299   -0.000671   -0.000549
   30.009769    0.715763    0.715642    0.714778   -0.000299   -0.000671   -0.000548
   30.026123    0.716146    0.716025    0.715161   -0.000299   -0.000670   -0.000548
   30.042477    0.716527    0.716406    0.715543   -0.000299   -0.000670   -0.000547
   30.058832    0.716908    0.716787    0.715924   -0.000298   -0.000669   -0.000547
   30.075186    0.717287    0.717166    0.716305   -0.000298   -0.000668   -0.000547
   30.091540    0.717665    0.717545    0.716684   -0.000298   -0.000668   -0.000546
   30.107894    0.718043    0.717922    0.717062   -0.000297   -0.000667   -0.000546
   30.124248    0.718419    0.718299    0.717439   -0.000297   -0.000667   -0.000545
   30.140602    0.718794    0.718674    0.717816   -0.000297   -0.000666   -0.000545
   30.156956    0.719169    0.719049    0.718191   -0.000297   -0.000666   -0.000544
   30.173310    0.719542    0.719422    0.718565   -0.000296   -0.000665   -0.000544
   30.189664    0.719915    0.719795    0.718939   -0.000296   -0.000664   -0.000543
   30.206018    0.720286    0.720166    0.719311   -0.000296   -0.000664   -0.000543
   30.222373    0.720657    0.720537    0.719683   -0.000296   -0.000663   -0.000542
   30.238727    0.721027    0.720907    0.720053   -0.000295   -0.000663   -0.000542
   30.255081    0.721395    0.721276    0.720423   -0.000295   -0.000662   -0.000541
   30.271435    0.721763    0.721644    0.720791   -0.000295   -0.000661   -0.000541
   30.287789    0.722130    0.722010    0.721159   -0.000295   -0.000661   -0.000540
   30.304143    0.722496    0.722376    0.721526   -0.000294   -0.000660   -0.000540
   30.320497    0.722861    0.722742    0.721892   -0.000294   -0.000659   -0.000539
   30.336851    0.723225    0.723106    0.722257   -0.000294   -0.000659   -0.000539
   30.353205    0.723588    0.723469    0.722621   -0.000293   -0.000658   -0.000538
   30.369559    0.723950    0.723831    0.722984   -0.000293   -0.000658   -0.000538
   30.385914    0.724311    0.724193    0.723346   -0.000293   -0.000657   -0.000537
   30.402268    0.724672    0.724553    0.723707   -0.000293   -0.000656   -0.000537
   30.418622    0.725031    0.724913    0.724068   -0.000292   -0.000656   -0.000536
   30.434976    0.725390    0.725272    0.724427   -0.000292   -0.000655   -0.000536
   30.451330    0.725748    0.725629    0.724786   -0.000292   -0.000655   -0.000535
   30.467684    0.726105    0.725986    0.725144   -0.000292   -0.000654   -0.000535
   30.484038    0.726461    0.726342    0.725501   -0.000291   -0.000653   -0.000534
   30.500392    0.726816    0.726698    0.725857   -0.000291   -0.000653   -0.000534
   30.516746    0.727170    0.727052    0.726212   -0.000291   -0.000652   -0.000533
   30.533100    0.727523    0.727405    0.726566   -0.000290   -0.000651   -0.000533
   30.549455    0.727876    0.727758    0.726919   -0.000290   -0.000651   -0.000532
   30.565809    0.728227    0.728110    0.727272   -0.000290   -0.000650   -0.000532
   30.582163    0.728578    0.728461    0.727624   -0.000290   -0.000650   -0.000531
   30.598517    0.728928    0.728811    0.727975   -0.000289   -0.000649   -0.000531
   30.614871    0.729277    0.729160    0.728325   -0.000289   -0.000648   -0.000530
   30.631225    0.729626    0.729508    0.728674   -0.000289   -0.000648   -0.000530
   30.647579    0.729973    0.729856    0.729022   -0.000288   -0.000647   -0.000529
   30.663933    0.730320    0.730203    0.729370   -0.000288   -0.000646   -0.000529
   30.680287    0.730665    0.730549    0.729716   -0.000288   -0.000646   -0.000528
   30.696641    0.731010    0.730894    0.730062   -0.000288   -0.000645   -0.000527
   30.712995    0.731354    0.731238    0.730407   -0.000287   -0.000645   -0.000527
   30.729350    0.731698    0.731581    0.730752   -0.000287   -0.000644   -0.000526
   30.745704    0.732040    0.731924    0.731095   -0.000287   -0.000643   -0.000526
   30.762058    0.732382    0.732266    0.731438   -0.000286   -0.000643   -0.000525
   30.778412    0.732723    0.732607    0.731779   -0.000286   -0.000642   -0.000525
   30.794766    0.733063    0.732947    0.732120   -0.000286   -0.000641   -0.000524
   30.811120    0.733402    0.733286    0.732461   -0.000286   -0.000641   -0.000524
   30.827474    0.733741    0.733625    0.732800   -0.000285   -0.000640   -0.000523
   30.843828    0.734078    0.733963    0.733139   -0.000285   -0.000639   -0.000523
   30.860182    0.734415    0.734300    0.733476   -0.000285   -0.000639   -0.000522
   30.876536    0.734751    0.734636    0.733814   -0.000285   -0.000638   -0.000522
   30.892891    0.735087    0.734971    0.734150   -0.000284   -0.000638   -0.000521
   30.909245    0.735421    0.735306    0.734485   -0.000284   -0.000637   -0.000521
   30.925599    0.735755    0.735640    0.734820   -0.000284   -0.000636   -0.000520
   30.941953    0.736088    0.735973    0.735154   -0.000283   -0.000636   -0.000520
   30.958307    0.736420    0.736306    0.735487   -0.000283   -0.000635   -0.000519
   30.974661    0.736752    0.736637    0.735820   -0.000283   -0.000634   -0.000519
   30.991015    0.737083    0.736968    0.736151   -0.000283   -0.000634   -0.000518
   31.007369    0.737413    0.737298    0.736482   -0.000282   -0.000633   -0.000518
   31.023723    0.737742    0.737627    0.736812   -0.000282   -0.000632   -0.000517
   31.040077    0.738070    0.737956    0.737142   -0.000282   -0.000632   -0.000517
   31.056432    0.738398    0.738284    0.737470   -0.000281   -0.000631   -0.000516
   31.072786    0.738725    0.738611    0.737798   -0.000281   -0.000631   -0.000516
   31.089140    0.739051    0.738937    0.738126   -0.000281   -0.000630   -0.000515
   31.105494    0.739377    0.739263    0.738452   -0.000281   -0.000629   -0.000515
   31.121848    0.739702    0.739588    0.738778   -0.000280   -0.000629   -0.000514
   31.138202    0.740026    0.739912    0.739103   -0.000280   -0.000628   -0.000513
   31.154556    0.740349    0.740235    0.739427   -0.000280   -0.000627   -0.000513
   31.170910    0.740671    0.740558    0.739751   -0.000279   -0.000627   -0.000512
   31.187264    0.740993    0.740880    0.740073   -0.000279   -0.000626   -0.000512
   31.203618    0.741315    0.741201    0.740395   -0.000279   -0.000625   -0.000511
   31.219973    0.741635    0.741522    0.740717   -0.000279   -0.000625   -0.000511
   31.236327    0.741955    0.741842    0.741038   -0.000278   -0.000624   -0.000510
   31.252681    0.742274    0.742161    0.741357   -0.000278   -0.000624   -0.000510
   31.269035    0.742592    0.742479    0.741677   -0.000278   -0.000623   -0.000509
   31.285389    0.742910    0.742797    0.741995   -0.000277   -0.000622   -0.000509
   31.301743    0.743227    0.743114    0.742313   -0.000277   -0.000622   -0.000508
   31.318097    0.743543    0.743431    0.742630   -0.000277   -0.000621   -0.000508
   31.334451    0.743858    0.743746    0.742947   -0.000277   -0.000620   -0.000507
   31.350805    0.744173    0.744061    0.743262   -0.000276   -0.000620   -0.000507
   31.367159    0.744487    0.744375    0.743578   -0.000276   -0.000619   -0.000506
   31.383513    0.744801    0.744689    0.743892   -0.000276   -0.000618   -0.000506
   31.399868    0.745113    0.745002    0.744206   -0.000275   -0.000618   -0.000505
   31.416222    0.745426    0.745314    0.744519   -0.000275   -0.000617   -0.000505
   31.432576    0.745737    0.745626    0.744831   -0.000275   -0.000617   -0.000504
   31.448930    0.746048    0.745936    0.745143   -0.000275   -0.000616   -0.000504
   31.465284    0.746358    0.746247    0.745454   -0.000274   -0.000615   -0.000503
   31.481638    0.746667    0.746556    0.745764   -0.000274   -0.000615   -0.000503
   31.497992    0.746976    0.746865    0.746074   -0.000274   -0.000614   -0.000502
   31.514346    0.747284    0.747173    0.746383   -0.000273   -0.000613   -0.000502
   31.530700    0.747591    0.747481    0.746691   -0.000273   -0.000613   -0.000501
   31.547054    0.747898    0.747787    0.746999   -0.000273   -0.000612   -0.000500
   31.563409    0.748204    0.748094    0.747306   -0.000273   -0.000611   -0.000500
   31.579763    0.748510    0.748399    0.747612   -0.000272   -0.000611   -0.000499
   31.596117    0.748814    0.748704    0.747918   -0.000272   -0.000610   -0.000499
   31.612471    0.749118    0.749008    0.748223   -0.000272   -0.000610   -0.000498
   31.628825    0.749422    0.749312    0.748527   -0.000271   -0.000609   -0.000498
   31.645179    0.749725    0.749615    0.748831   -0.000271   -0.000608   -0.000497
   31.661533    0.750027    0.749917    0.749134   -0.000271   -0.000608   -0.000497
   31.677887    0.750328    0.750219    0.749436   -0.000271   -0.000607   -0.000496
   31.694241    0.750629    0.750520    0.749738   -0.000270   -0.000606   -0.000496
   31.710595    0.750930    0.750820    0.750039   -0.000270   -0.000606   -0.000495
   31.726950    0.751229    0.751120    0.750340   -0.000270   -0.000605   -0.000495
   31.743304    0.751528    0.751419    0.750640   -0.000270   -0.000605   -0.000494
   31.759658    0.751827    0.751717    0.750939   -0.000269   -0.000604   -0.000494
   31.776012    0.752124    0.752015    0.751238   -0.000269   -0.000603   -0.000493
   31.792366    0.752421    0.752313    0.751536   -0.000269   -0.000603   -0.000493
   31.808720    0.752718    0.752609    0.751833   -0.000268   -0.000602   -0.000492
   31.825074    0.753014    0.752905    0.752130   -0.000268   -0.000601   -0.000492
   31.841428    0.753309    0.753201    0.752426   -0.000268   -0.000601   -0.000491
   31.857782    0.753604    0.753495    0.752722   -0.000268   -0.000600   -0.000491
   31.874136    0.753898    0.753789    0.753017   -0.000267   -0.000600   -0.000490
   31.890491    0.754191    0.754083    0.753311   -0.000267   -0.000599   -0.000490
   31.906845    0.754484    0.754376    0.753605   -0.000267   -0.000598   -0.000489
   31.923199    0.754776    0.754668    0.753898   -0.000266   -0.000598   -0.000489
   31.939553    0.755068    0.754960    0.754191   -0.000266   -0.000597   -0.000488
   31.955907    0.755359    0.755251    0.754483   -0.000266   -0.000596   -0.000488
   31.972261    0.755649    0.755542    0.754774   -0.000266   -0.000596   -0.000487
   31.988615    0.755939    0.755832    0.755065   -0.000265   -0.000595   -0.000487
   32.004969    0.756228    0.756121    0.755355   -0.000265   -0.000595   -0.000486
   32.021323    0.756517    0.756410    0.755644   -0.000265   -0.000594   -0.000486
   32.037677    0.756805    0.756698    0.755933   -0.000265   -0.000593   -0.000485
   32.054031    0.757092    0.756985    0.756222   -0.000264   -0.000593   -0.000485
   32.070386    0.757379    0.757272    0.756509   -0.000264   -0.000592   -0.000484
   32.086740    0.757666    0.757559    0.756796   -0.000264   -0.000591   -0.000484
   32.103094    0.757951    0.757845    0.757083   -0.000263   -0.000591   -0.000483
   32.119448    0.758236    0.758130    0.757369   -0.000263   -0.000590   -0.000483
   32.135802    0.758521    0.758414    0.757655   -0.000263   -0.000590   -0.000482
   32.152156    0.758805    0.758698    0.757939   -0.000263   -0.000589   -0.000482
   32.168510    0.759088    0.758982    0.758224   -0.000262   -0.000588   -0.000481
   32.184864    0.759371    0.759265    0.758507   -0.000262   -0.000588   -0.000481
   32.201218    0.759653    0.759547    0.758791   -0.000262   -0.000587   -0.000480
   32.217572    0.759935    0.759829    0.759073   -0.000261   -0.000587   -0.000480
   32.233927    0.760216    0.760110    0.759355   -0.000261   -0.000586   -0.000479
   32.250281    0.760497    0.760391    0.759637   -0.000261   -0.000585   -0.000479
   32.266635    0.760777    0.760671    0.759917   -0.000261   -0.000585   -0.000478
   32.282989    0.761056    0.760951    0.760198   -0.000260   -0.000584   -0.000478
   32.299343    0.761335    0.761230    0.760478   -0.000260   -0.000584   -0.000477
   32.315697    0.761613    0.761508    0.760757   -0.000260   -0.000583   -0.000477
   32.332051    0.761891    0.761786    0.761035   -0.000260   -0.000582   -0.000476
   32.348405    0.762168    0.762063    0.761313   -0.000259   -0.000582   -0.000476
   32.364759    0.762445    0.762340    0.761591   -0.000259   -0.000581   -0.000475
   32.381113    0.762721    0.762616    0.761868   -0.000259   -0.000580   -0.000475
   32.397468    0.762997    0.762892    0.762144   -0.000259   -0.000580   -0.000474
   32.413822    0.763272    0.763167    0.762420   -0.000258   -0.000579   -0.000474
   32.430176    0.763546    0.763441    0.762696   -0.000258   -0.000579   -0.000473
   32.446530    0.763820    0.763715    0.762970   -0.000258   -0.000578   -0.000473
   32.462884    0.764093    0.763989    0.763245   -0.000257   -0.000577   -0.000472
   32.479238    0.764366    0.764262    0.763518   -0.000257   -0.000577   -0.000472
   32.495592    0.764638    0.764534    0.763792   -0.000257   -0.000576   -0.000471
   32.511946    0.764910    0.764806    0.764064   -0.000257   -0.000576   -0.000471
   32.528300    0.765181    0.765077    0.764336   -0.000256   -0.000575   -0.000470
   32.544654    0.765452    0.765348    0.764608   -0.000256   -0.000574   -0.000470
   32.561009    0.765722    0.765619    0.764879   -0.000256   -0.000574   -0.000469
   32.577363    0.765992    0.765888    0.765150   -0.000256   -0.000573   -0.000469
   32.593717    0.766261    0.766158    0.765420   -0.000255   -0.000573   -0.000468
   32.610071    0.766530    0.766426    0.765689   -0.000255   -0.000572   -0.000468
   32.626425    0.766798    0.766694    0.765958   -0.000255   -0.000571   -0.000467
   32.642779    0.767065    0.766962    0.766226   -0.000254   -0.000571   -0.000467
   32.659133    0.767332    0.767229    0.766494   -0.000254   -0.000570   -0.000466
   32.675487    0.767599    0.767496    0.766762   -0.000254   -0.000570   -0.000466
   32.691841    0.767865    0.767762    0.767029   -0.000254   -0.000569   -0.000465
 
 The outermost node in the dielectric function lies at epsilon=  16.7


--------------------------------------------------------------------------------------------------------


    OPTICS:  cpu time     11.4803: real time     11.5123
    4ORBIT:  cpu time      0.0000: real time      0.0000



 total charge

# of ion       s       p       d       tot
------------------------------------------
    1        0.839   0.650   9.908  11.397
    2        0.839   0.650   9.908  11.397
    3        0.372   0.335   9.266   9.972
    4        0.372   0.335   9.266   9.972
    5        1.453   2.347   0.042   3.843
    6        1.453   2.347   0.042   3.843
    7        1.453   2.347   0.042   3.843
    8        1.453   2.347   0.042   3.843
--------------------------------------------------
tot          8.234  11.358  38.518  58.111
 
 BZINTS: Fermi energy:    4.132844;   72.000000 electrons
         Band energy:-0.231073E+03;  BLOECHL correction:    0.000000

 total amount of memory used by VASP MPI-rank0    46168. kBytes
=======================================================================

   base      :      30000. kBytes
   nonl-proj :      11564. kBytes
   fftplans  :        932. kBytes
   grid      :       1472. kBytes
   one-center:         15. kBytes
   wavefun   :       2185. kBytes
 
  
  
 General timing and accounting informations for this job:
 ========================================================
  
                  Total CPU time used (sec):       41.523
                            User time (sec):       36.291
                          System time (sec):        5.232
                         Elapsed time (sec):       42.590
  
                   Maximum memory used (kb):      234056.
                   Average memory used (kb):          N/A
  
                          Minor page faults:        58843
                          Major page faults:            0
                 Voluntary context switches:         2204
