 vasp.6.4.2 20Jul23 (build Mar 15 2024 16:31:38) complex                        
  
 executed on             LinuxIFC date 2025.03.05  13:47:31
 running  120 mpi-ranks, on    3 nodes
 distrk:  each k-point on  120 cores,    1 groups
 distr:  one band on NCORE=  10 cores,   12 groups


--------------------------------------------------------------------------------------------------------


 INCAR:
   ALGO = Normal
   CSHIFT = 1e-05
   EDIFF = 1e-05
   ENAUG = 1360
   ENCUT = 680
   GGA = Pe
   HFSCREEN = 0.2
   ISMEAR = -5
   ISPIN = 1
   LAECHG = True
   LASPH = True
   LCHARG = True
   LDAU = False
   LELF = False
   LHFCALC = True
   LMIXTAU = True
   LOPTICS = True
   LORBIT = 11
   LREAL = False
   LVTOT = True
   LWAVE = True
   NBANDS = 15
   NCORE = 10
   NEDOS = 1455
   NELM = 200
   NELMIN = 5
   NSW = 0
   PREC = Accurate
   PRECFOCK = Fast
   SIGMA = 0.05

 POTCAR:    PAW_PBE Si 05Jan2001                  
 WARNING: For LVTOT=.TRUE., VASP.5.x writes the TOTAL local potential to the
     file LOCPOT. If you want only the Hartree contributions, use LVHAR=.TRUE.
     instead. 

 POTCAR:    PAW_PBE Si 05Jan2001                  
   VRHFIN =Si: s2p2                                                                                 
   LEXCH  = PE                                                                                      
   EATOM  =   103.0669 eV,    7.5752 Ry                                                             
                                                                                                    
   TITEL  = PAW_PBE Si 05Jan2001                                                                    
   LULTRA =        F    use ultrasoft PP ?                                                          
   IUNSCR =        1    unscreen: 0-lin 1-nonlin 2-no                                               
   RPACOR =    1.500    partial core radius                                                         
   POMASS =   28.085; ZVAL   =    4.000    mass and valenz                                          
   RCORE  =    1.900    outmost cutoff radius                                                       
   RWIGS  =    2.480; RWIGS  =    1.312    wigner-seitz radius (au A)                               
   ENMAX  =  245.345; ENMIN  =  184.009 eV                                                          
   ICORE  =        2    local potential                                                             
   LCOR   =        T    correct aug charges                                                         
   LPAW   =        T    paw PP                                                                      
   EAUG   =  322.069                                                                                
   DEXC   =    0.000                                                                                
   RMAX   =    1.950    core radius for proj-oper                                                   
   RAUG   =    1.300    factor for augmentation sphere                                              
   RDEP   =    1.993    radius for radial grids                                                     
   RDEPT  =    1.837    core radius for aug-charge                                                  
                                                                                                    
   Atomic configuration                                                                             
    6 entries                                                                                       
     n  l   j            E        occ.                                                              
     1  0  0.50     -1785.8828   2.0000                                                             
     2  0  0.50      -139.4969   2.0000                                                             
     2  1  1.50       -95.5546   6.0000                                                             
     3  0  0.50       -10.8127   2.0000                                                             
     3  1  0.50        -4.0811   2.0000                                                             
     3  2  1.50        -4.0817   0.0000                                                             
   Description                                                                                      
     l       E           TYP  RCUT    TYP  RCUT                                                     
     0    -10.8127223     23  1.900                                                                 
     0     -7.6451159     23  1.900                                                                 
     1     -4.0811372     23  1.900                                                                 
     1      2.4879257     23  1.900                                                                 
     2     -4.0817478      7  1.900                                                                 
  local pseudopotential read in
  partial core-charges read in
  partial kinetic energy density read in
  atomic valenz-charges read in
  non local Contribution for L=           0  read in
    real space projection operators read in
  non local Contribution for L=           0  read in
    real space projection operators read in
  non local Contribution for L=           1  read in
    real space projection operators read in
  non local Contribution for L=           1  read in
    real space projection operators read in
    PAW grid and wavefunctions read in
 
   number of l-projection  operators is LMAX  =           4
   number of lm-projection operators is LMMAX =           8
 
  PAW_PBE Si 05Jan2001                  :
 energy of atom  1       EATOM= -103.0669
 kinetic energy error for atom=    0.0003 (will be added to EATOM!!)
 
 
 POSCAR: Si2
  positions in direct lattice
  No initial velocities read in
 exchange correlation table for  LEXCH =        8
   RHO(1)=    0.500       N(1)  =     2000
   RHO(2)=  100.500       N(2)  =     4000
 


--------------------------------------------------------------------------------------------------------


 ion  position               nearest neighbor table
   1  0.875  0.875  0.875-   2 2.36   2 2.36   2 2.36   2 2.36
   2  0.125  0.125  0.125-   1 2.36   1 2.36   1 2.36   1 2.36
 
  LATTYP: Found a face centered cubic cell.
 ALAT       =     5.4437031470
  
  Lattice vectors:
  
 A1 = (   3.3335729972,   0.0000000000,   1.9246389981)
 A2 = (   1.1111909993,   3.1429239987,   1.9246389993)
 A3 = (   0.0000000000,   0.0000000000,   3.8492780000)


Analysis of symmetry for initial positions (statically):
=====================================================================
 Subroutine PRICEL returns:
 Original cell was already a primitive cell.
 

 Routine SETGRP: Setting up the symmetry group for a 
 face centered cubic supercell.


 Subroutine GETGRP returns: Found 48 space group operations
 (whereof 12 operations were pure point group operations)
 out of a pool of 48 trial point group operations.


The static configuration has the point symmetry D_3d.
 The point group associated with its full space group is O_h .


Analysis of symmetry for dynamics (positions and initial velocities):
=====================================================================
 Subroutine PRICEL returns:
 Original cell was already a primitive cell.
 

 Routine SETGRP: Setting up the symmetry group for a 
 face centered cubic supercell.


 Subroutine GETGRP returns: Found 48 space group operations
 (whereof 12 operations were pure point group operations)
 out of a pool of 48 trial point group operations.


The dynamic configuration has the point symmetry D_3d.
 The point group associated with its full space group is O_h .


 Subroutine INISYM returns: Found 48 space group operations
 (whereof 12 operations are pure point group operations),
 and found     1 'primitive' translations


----------------------------------------------------------------------------------------

                                     Primitive cell                                     

  volume of cell :      40.3295

  direct lattice vectors                    reciprocal lattice vectors
     3.333572997  0.000000000  1.924638998     0.299978432 -0.106058350  0.000000000
     1.111190999  3.142923999  1.924638999     0.000000000  0.318175050  0.000000000
     0.000000000  0.000000000  3.849278000    -0.149989216 -0.106058350  0.259788979

  length of vectors
     3.849278400  3.849279410  3.849278000     0.318175161  0.318175050  0.318175190

  position of ions in fractional coordinates (direct lattice)
     0.875000000  0.875000000  0.875000000
     0.125000000  0.125000000  0.125000000

  ion indices of the primitive-cell ions
   primitive index   ion index
                 1           1
                 2           2

----------------------------------------------------------------------------------------

 
 
 KPOINTS: pymatgen with grid density = 787 / numbe

Automatic generation of k-mesh.
 Grid dimensions read from file:
 generate k-points for:    7    7    7

 Generating k-lattice:

  Cartesian coordinates                     Fractional coordinates (reciprocal lattice)
     0.042854062 -0.015151193  0.000000000     0.142857143  0.000000000  0.000000000
     0.000000000  0.045453579  0.000000000     0.000000000  0.142857143  0.000000000
    -0.021427031 -0.015151193  0.037112711     0.000000000  0.000000000  0.142857143

  Length of vectors
     0.045453594  0.045453579  0.045453599

  Shift w.r.t. Gamma in fractional coordinates (k-lattice)
     0.000000000  0.000000000  0.000000000

 TETIRR: Found     58 inequivalent tetrahedra from     2058
 
 Subroutine IBZKPT returns following result:
 ===========================================
 
 Found     20 irreducible k-points:
 
 Following reciprocal coordinates:
            Coordinates               Weight
  0.000000  0.000000  0.000000      1.000000
  0.142857 -0.000000  0.000000      8.000000
  0.285714 -0.000000  0.000000      8.000000
  0.428571 -0.000000  0.000000      8.000000
  0.142857  0.142857  0.000000      6.000000
  0.285714  0.142857  0.000000     24.000000
  0.428571  0.142857  0.000000     24.000000
 -0.428571  0.142857  0.000000     24.000000
 -0.285714  0.142857  0.000000     24.000000
 -0.142857  0.142857  0.000000     12.000000
  0.285714  0.285714  0.000000      6.000000
  0.428571  0.285714  0.000000     24.000000
 -0.428571  0.285714  0.000000     24.000000
 -0.285714  0.285714  0.000000     12.000000
  0.428571  0.428571  0.000000      6.000000
 -0.428571  0.428571  0.000000     12.000000
  0.428571  0.285714  0.142857     24.000000
 -0.428571  0.285714  0.142857     48.000000
 -0.428571  0.428571  0.142857     24.000000
 -0.285714  0.428571  0.142857     24.000000
 
 Following cartesian coordinates:
            Coordinates               Weight
  0.000000  0.000000  0.000000      1.000000
  0.042854 -0.015151  0.000000      8.000000
  0.085708 -0.030302  0.000000      8.000000
  0.128562 -0.045454  0.000000      8.000000
  0.042854  0.030302  0.000000      6.000000
  0.085708  0.015151  0.000000     24.000000
  0.128562 -0.000000  0.000000     24.000000
 -0.128562  0.090907  0.000000     24.000000
 -0.085708  0.075756  0.000000     24.000000
 -0.042854  0.060605  0.000000     12.000000
  0.085708  0.060605  0.000000      6.000000
  0.128562  0.045454  0.000000     24.000000
 -0.128562  0.136361  0.000000     24.000000
 -0.085708  0.121210  0.000000     12.000000
  0.128562  0.090907  0.000000      6.000000
 -0.128562  0.181814  0.000000     12.000000
  0.107135  0.030302  0.037113     24.000000
 -0.149989  0.121210  0.037113     48.000000
 -0.149989  0.166663  0.037113     24.000000
 -0.107135  0.151512  0.037113     24.000000
 
 
 Subroutine IBZKPT_HF returns following result:
 ==============================================
 
 Found    343 k-points in 1st BZ
 the following    343 k-points will be used (e.g. in the exchange kernel)
 Following reciprocal coordinates:   # in IRBZ
  0.000000  0.000000  0.000000    0.00291545   1 t-inv F
  0.142857 -0.000000  0.000000    0.00291545   2 t-inv F
  0.285714 -0.000000  0.000000    0.00291545   3 t-inv F
  0.428571 -0.000000  0.000000    0.00291545   4 t-inv F
  0.142857  0.142857  0.000000    0.00291545   5 t-inv F
  0.285714  0.142857  0.000000    0.00291545   6 t-inv F
  0.428571  0.142857  0.000000    0.00291545   7 t-inv F
 -0.428571  0.142857  0.000000    0.00291545   8 t-inv F
 -0.285714  0.142857  0.000000    0.00291545   9 t-inv F
 -0.142857  0.142857  0.000000    0.00291545  10 t-inv F
  0.285714  0.285714  0.000000    0.00291545  11 t-inv F
  0.428571  0.285714  0.000000    0.00291545  12 t-inv F
 -0.428571  0.285714  0.000000    0.00291545  13 t-inv F
 -0.285714  0.285714  0.000000    0.00291545  14 t-inv F
  0.428571  0.428571  0.000000    0.00291545  15 t-inv F
 -0.428571  0.428571  0.000000    0.00291545  16 t-inv F
  0.428571  0.285714  0.142857    0.00291545  17 t-inv F
 -0.428571  0.285714  0.142857    0.00291545  18 t-inv F
 -0.428571  0.428571  0.142857    0.00291545  19 t-inv F
 -0.285714  0.428571  0.142857    0.00291545  20 t-inv F
 -0.142857  0.000000  0.000000    0.00291545   2 t-inv F
  0.000000  0.142857 -0.000000    0.00291545   2 t-inv F
  0.000000 -0.142857  0.000000    0.00291545   2 t-inv F
 -0.000000  0.000000  0.142857    0.00291545   2 t-inv F
  0.000000  0.000000 -0.142857    0.00291545   2 t-inv F
  0.142857  0.142857  0.142857    0.00291545   2 t-inv F
 -0.142857 -0.142857 -0.142857    0.00291545   2 t-inv F
 -0.285714  0.000000  0.000000    0.00291545   3 t-inv F
  0.000000  0.285714 -0.000000    0.00291545   3 t-inv F
  0.000000 -0.285714  0.000000    0.00291545   3 t-inv F
 -0.000000  0.000000  0.285714    0.00291545   3 t-inv F
  0.000000  0.000000 -0.285714    0.00291545   3 t-inv F
  0.285714  0.285714  0.285714    0.00291545   3 t-inv F
 -0.285714 -0.285714 -0.285714    0.00291545   3 t-inv F
 -0.428571  0.000000  0.000000    0.00291545   4 t-inv F
  0.000000  0.428571 -0.000000    0.00291545   4 t-inv F
  0.000000 -0.428571  0.000000    0.00291545   4 t-inv F
 -0.000000  0.000000  0.428571    0.00291545   4 t-inv F
  0.000000  0.000000 -0.428571    0.00291545   4 t-inv F
  0.428571  0.428571  0.428571    0.00291545   4 t-inv F
 -0.428571 -0.428571 -0.428571    0.00291545   4 t-inv F
 -0.142857 -0.142857  0.000000    0.00291545   5 t-inv F
  0.000000  0.142857  0.142857    0.00291545   5 t-inv F
  0.000000 -0.142857 -0.142857    0.00291545   5 t-inv F
  0.142857  0.000000  0.142857    0.00291545   5 t-inv F
 -0.142857  0.000000 -0.142857    0.00291545   5 t-inv F
 -0.285714 -0.142857  0.000000    0.00291545   6 t-inv F
  0.000000  0.285714  0.142857    0.00291545   6 t-inv F
  0.000000 -0.285714 -0.142857    0.00291545   6 t-inv F
  0.142857  0.000000  0.285714    0.00291545   6 t-inv F
 -0.142857  0.000000 -0.285714    0.00291545   6 t-inv F
 -0.285714  0.000000 -0.142857    0.00291545   6 t-inv F
  0.285714  0.000000  0.142857    0.00291545   6 t-inv F
 -0.142857 -0.285714  0.000000    0.00291545   6 t-inv F
  0.142857  0.285714  0.000000    0.00291545   6 t-inv F
  0.000000 -0.142857 -0.285714    0.00291545   6 t-inv F
  0.000000  0.142857  0.285714    0.00291545   6 t-inv F
  0.142857  0.142857 -0.142857    0.00291545   6 t-inv F
 -0.142857 -0.142857  0.142857    0.00291545   6 t-inv F
  0.285714  0.142857  0.285714    0.00291545   6 t-inv F
 -0.285714 -0.142857 -0.285714    0.00291545   6 t-inv F
  0.142857 -0.142857 -0.142857    0.00291545   6 t-inv F
 -0.142857  0.142857  0.142857    0.00291545   6 t-inv F
  0.285714  0.285714  0.142857    0.00291545   6 t-inv F
 -0.285714 -0.285714 -0.142857    0.00291545   6 t-inv F
 -0.142857  0.142857 -0.142857    0.00291545   6 t-inv F
  0.142857 -0.142857  0.142857    0.00291545   6 t-inv F
  0.142857  0.285714  0.285714    0.00291545   6 t-inv F
 -0.142857 -0.285714 -0.285714    0.00291545   6 t-inv F
 -0.428571 -0.142857  0.000000    0.00291545   7 t-inv F
  0.000000  0.428571  0.142857    0.00291545   7 t-inv F
  0.000000 -0.428571 -0.142857    0.00291545   7 t-inv F
  0.142857  0.000000  0.428571    0.00291545   7 t-inv F
 -0.142857  0.000000 -0.428571    0.00291545   7 t-inv F
 -0.428571  0.000000 -0.142857    0.00291545   7 t-inv F
  0.428571  0.000000  0.142857    0.00291545   7 t-inv F
 -0.142857 -0.428571  0.000000    0.00291545   7 t-inv F
  0.142857  0.428571  0.000000    0.00291545   7 t-inv F
  0.000000 -0.142857 -0.428571    0.00291545   7 t-inv F
  0.000000  0.142857  0.428571    0.00291545   7 t-inv F
  0.142857  0.142857 -0.285714    0.00291545   7 t-inv F
 -0.142857 -0.142857  0.285714    0.00291545   7 t-inv F
  0.428571  0.285714  0.428571    0.00291545   7 t-inv F
 -0.428571 -0.285714 -0.428571    0.00291545   7 t-inv F
  0.285714 -0.142857 -0.142857    0.00291545   7 t-inv F
 -0.285714  0.142857  0.142857    0.00291545   7 t-inv F
  0.428571  0.428571  0.285714    0.00291545   7 t-inv F
 -0.428571 -0.428571 -0.285714    0.00291545   7 t-inv F
 -0.142857  0.285714 -0.142857    0.00291545   7 t-inv F
  0.142857 -0.285714  0.142857    0.00291545   7 t-inv F
  0.285714  0.428571  0.428571    0.00291545   7 t-inv F
 -0.285714 -0.428571 -0.428571    0.00291545   7 t-inv F
  0.428571 -0.142857  0.000000    0.00291545   8 t-inv F
  0.000000 -0.428571  0.142857    0.00291545   8 t-inv F
  0.000000  0.428571 -0.142857    0.00291545   8 t-inv F
  0.142857  0.000000 -0.428571    0.00291545   8 t-inv F
 -0.142857  0.000000  0.428571    0.00291545   8 t-inv F
  0.428571  0.000000 -0.142857    0.00291545   8 t-inv F
 -0.428571  0.000000  0.142857    0.00291545   8 t-inv F
 -0.142857  0.428571  0.000000    0.00291545   8 t-inv F
  0.142857 -0.428571  0.000000    0.00291545   8 t-inv F
  0.000000 -0.142857  0.428571    0.00291545   8 t-inv F
  0.000000  0.142857 -0.428571    0.00291545   8 t-inv F
  0.142857  0.142857  0.571429    0.00291545   8 t-inv F
 -0.142857 -0.142857 -0.571429    0.00291545   8 t-inv F
 -0.428571 -0.571429 -0.428571    0.00291545   8 t-inv F
  0.428571  0.571429  0.428571    0.00291545   8 t-inv F
 -0.571429 -0.142857 -0.142857    0.00291545   8 t-inv F
  0.571429  0.142857  0.142857    0.00291545   8 t-inv F
 -0.428571 -0.428571 -0.571429    0.00291545   8 t-inv F
  0.428571  0.428571  0.571429    0.00291545   8 t-inv F
 -0.142857 -0.571429 -0.142857    0.00291545   8 t-inv F
  0.142857  0.571429  0.142857    0.00291545   8 t-inv F
 -0.571429 -0.428571 -0.428571    0.00291545   8 t-inv F
  0.571429  0.428571  0.428571    0.00291545   8 t-inv F
  0.285714 -0.142857  0.000000    0.00291545   9 t-inv F
  0.000000 -0.285714  0.142857    0.00291545   9 t-inv F
  0.000000  0.285714 -0.142857    0.00291545   9 t-inv F
  0.142857  0.000000 -0.285714    0.00291545   9 t-inv F
 -0.142857  0.000000  0.285714    0.00291545   9 t-inv F
  0.285714  0.000000 -0.142857    0.00291545   9 t-inv F
 -0.285714  0.000000  0.142857    0.00291545   9 t-inv F
 -0.142857  0.285714  0.000000    0.00291545   9 t-inv F
  0.142857 -0.285714  0.000000    0.00291545   9 t-inv F
  0.000000 -0.142857  0.285714    0.00291545   9 t-inv F
  0.000000  0.142857 -0.285714    0.00291545   9 t-inv F
  0.142857  0.142857  0.428571    0.00291545   9 t-inv F
 -0.142857 -0.142857 -0.428571    0.00291545   9 t-inv F
 -0.285714 -0.428571 -0.285714    0.00291545   9 t-inv F
  0.285714  0.428571  0.285714    0.00291545   9 t-inv F
 -0.428571 -0.142857 -0.142857    0.00291545   9 t-inv F
  0.428571  0.142857  0.142857    0.00291545   9 t-inv F
 -0.285714 -0.285714 -0.428571    0.00291545   9 t-inv F
  0.285714  0.285714  0.428571    0.00291545   9 t-inv F
 -0.142857 -0.428571 -0.142857    0.00291545   9 t-inv F
  0.142857  0.428571  0.142857    0.00291545   9 t-inv F
 -0.428571 -0.285714 -0.285714    0.00291545   9 t-inv F
  0.428571  0.285714  0.285714    0.00291545   9 t-inv F
  0.142857 -0.142857  0.000000    0.00291545  10 t-inv F
  0.000000 -0.142857  0.142857    0.00291545  10 t-inv F
  0.000000  0.142857 -0.142857    0.00291545  10 t-inv F
  0.142857  0.000000 -0.142857    0.00291545  10 t-inv F
 -0.142857  0.000000  0.142857    0.00291545  10 t-inv F
  0.142857  0.142857  0.285714    0.00291545  10 t-inv F
 -0.142857 -0.142857 -0.285714    0.00291545  10 t-inv F
 -0.142857 -0.285714 -0.142857    0.00291545  10 t-inv F
  0.142857  0.285714  0.142857    0.00291545  10 t-inv F
 -0.285714 -0.142857 -0.142857    0.00291545  10 t-inv F
  0.285714  0.142857  0.142857    0.00291545  10 t-inv F
 -0.285714 -0.285714  0.000000    0.00291545  11 t-inv F
  0.000000  0.285714  0.285714    0.00291545  11 t-inv F
  0.000000 -0.285714 -0.285714    0.00291545  11 t-inv F
  0.285714  0.000000  0.285714    0.00291545  11 t-inv F
 -0.285714  0.000000 -0.285714    0.00291545  11 t-inv F
 -0.428571 -0.285714  0.000000    0.00291545  12 t-inv F
  0.000000  0.428571  0.285714    0.00291545  12 t-inv F
  0.000000 -0.428571 -0.285714    0.00291545  12 t-inv F
  0.285714  0.000000  0.428571    0.00291545  12 t-inv F
 -0.285714  0.000000 -0.428571    0.00291545  12 t-inv F
 -0.428571  0.000000 -0.285714    0.00291545  12 t-inv F
  0.428571  0.000000  0.285714    0.00291545  12 t-inv F
 -0.285714 -0.428571  0.000000    0.00291545  12 t-inv F
  0.285714  0.428571  0.000000    0.00291545  12 t-inv F
  0.000000 -0.285714 -0.428571    0.00291545  12 t-inv F
  0.000000  0.285714  0.428571    0.00291545  12 t-inv F
  0.285714  0.285714 -0.142857    0.00291545  12 t-inv F
 -0.285714 -0.285714  0.142857    0.00291545  12 t-inv F
  0.428571  0.142857  0.428571    0.00291545  12 t-inv F
 -0.428571 -0.142857 -0.428571    0.00291545  12 t-inv F
  0.142857 -0.285714 -0.285714    0.00291545  12 t-inv F
 -0.142857  0.285714  0.285714    0.00291545  12 t-inv F
  0.428571  0.428571  0.142857    0.00291545  12 t-inv F
 -0.428571 -0.428571 -0.142857    0.00291545  12 t-inv F
 -0.285714  0.142857 -0.285714    0.00291545  12 t-inv F
  0.285714 -0.142857  0.285714    0.00291545  12 t-inv F
  0.142857  0.428571  0.428571    0.00291545  12 t-inv F
 -0.142857 -0.428571 -0.428571    0.00291545  12 t-inv F
  0.428571 -0.285714  0.000000    0.00291545  13 t-inv F
  0.000000 -0.428571  0.285714    0.00291545  13 t-inv F
  0.000000  0.428571 -0.285714    0.00291545  13 t-inv F
  0.285714  0.000000 -0.428571    0.00291545  13 t-inv F
 -0.285714  0.000000  0.428571    0.00291545  13 t-inv F
  0.428571  0.000000 -0.285714    0.00291545  13 t-inv F
 -0.428571  0.000000  0.285714    0.00291545  13 t-inv F
 -0.285714  0.428571  0.000000    0.00291545  13 t-inv F
  0.285714 -0.428571  0.000000    0.00291545  13 t-inv F
  0.000000 -0.285714  0.428571    0.00291545  13 t-inv F
  0.000000  0.285714 -0.428571    0.00291545  13 t-inv F
  0.285714  0.285714  0.714286    0.00291545  13 t-inv F
 -0.285714 -0.285714 -0.714286    0.00291545  13 t-inv F
 -0.428571 -0.714286 -0.428571    0.00291545  13 t-inv F
  0.428571  0.714286  0.428571    0.00291545  13 t-inv F
 -0.714286 -0.285714 -0.285714    0.00291545  13 t-inv F
  0.714286  0.285714  0.285714    0.00291545  13 t-inv F
 -0.428571 -0.428571 -0.714286    0.00291545  13 t-inv F
  0.428571  0.428571  0.714286    0.00291545  13 t-inv F
 -0.285714 -0.714286 -0.285714    0.00291545  13 t-inv F
  0.285714  0.714286  0.285714    0.00291545  13 t-inv F
 -0.714286 -0.428571 -0.428571    0.00291545  13 t-inv F
  0.714286  0.428571  0.428571    0.00291545  13 t-inv F
  0.285714 -0.285714  0.000000    0.00291545  14 t-inv F
  0.000000 -0.285714  0.285714    0.00291545  14 t-inv F
  0.000000  0.285714 -0.285714    0.00291545  14 t-inv F
  0.285714  0.000000 -0.285714    0.00291545  14 t-inv F
 -0.285714  0.000000  0.285714    0.00291545  14 t-inv F
  0.285714  0.285714  0.571429    0.00291545  14 t-inv F
 -0.285714 -0.285714 -0.571429    0.00291545  14 t-inv F
 -0.285714 -0.571429 -0.285714    0.00291545  14 t-inv F
  0.285714  0.571429  0.285714    0.00291545  14 t-inv F
 -0.571429 -0.285714 -0.285714    0.00291545  14 t-inv F
  0.571429  0.285714  0.285714    0.00291545  14 t-inv F
 -0.428571 -0.428571  0.000000    0.00291545  15 t-inv F
  0.000000  0.428571  0.428571    0.00291545  15 t-inv F
  0.000000 -0.428571 -0.428571    0.00291545  15 t-inv F
  0.428571  0.000000  0.428571    0.00291545  15 t-inv F
 -0.428571  0.000000 -0.428571    0.00291545  15 t-inv F
  0.428571 -0.428571  0.000000    0.00291545  16 t-inv F
  0.000000 -0.428571  0.428571    0.00291545  16 t-inv F
  0.000000  0.428571 -0.428571    0.00291545  16 t-inv F
  0.428571  0.000000 -0.428571    0.00291545  16 t-inv F
 -0.428571  0.000000  0.428571    0.00291545  16 t-inv F
  0.428571  0.428571  0.857143    0.00291545  16 t-inv F
 -0.428571 -0.428571 -0.857143    0.00291545  16 t-inv F
 -0.428571 -0.857143 -0.428571    0.00291545  16 t-inv F
  0.428571  0.857143  0.428571    0.00291545  16 t-inv F
 -0.857143 -0.428571 -0.428571    0.00291545  16 t-inv F
  0.857143  0.428571  0.428571    0.00291545  16 t-inv F
 -0.428571 -0.285714 -0.142857    0.00291545  17 t-inv F
  0.142857  0.428571  0.285714    0.00291545  17 t-inv F
 -0.142857 -0.428571 -0.285714    0.00291545  17 t-inv F
  0.285714  0.142857  0.428571    0.00291545  17 t-inv F
 -0.285714 -0.142857 -0.428571    0.00291545  17 t-inv F
 -0.428571 -0.142857 -0.285714    0.00291545  17 t-inv F
  0.428571  0.142857  0.285714    0.00291545  17 t-inv F
 -0.285714 -0.428571 -0.142857    0.00291545  17 t-inv F
  0.285714  0.428571  0.142857    0.00291545  17 t-inv F
 -0.142857 -0.285714 -0.428571    0.00291545  17 t-inv F
  0.142857  0.285714  0.428571    0.00291545  17 t-inv F
  0.285714  0.142857 -0.142857    0.00291545  17 t-inv F
 -0.285714 -0.142857  0.142857    0.00291545  17 t-inv F
  0.142857 -0.285714 -0.142857    0.00291545  17 t-inv F
 -0.142857  0.285714  0.142857    0.00291545  17 t-inv F
  0.142857  0.285714 -0.142857    0.00291545  17 t-inv F
 -0.142857 -0.285714  0.142857    0.00291545  17 t-inv F
  0.142857 -0.142857 -0.285714    0.00291545  17 t-inv F
 -0.142857  0.142857  0.285714    0.00291545  17 t-inv F
 -0.142857  0.142857 -0.285714    0.00291545  17 t-inv F
  0.142857 -0.142857  0.285714    0.00291545  17 t-inv F
 -0.285714  0.142857 -0.142857    0.00291545  17 t-inv F
  0.285714 -0.142857  0.142857    0.00291545  17 t-inv F
  0.428571 -0.285714 -0.142857    0.00291545  18 t-inv F
  0.142857 -0.428571  0.285714    0.00291545  18 t-inv F
 -0.142857  0.428571 -0.285714    0.00291545  18 t-inv F
  0.285714  0.142857 -0.428571    0.00291545  18 t-inv F
 -0.285714 -0.142857  0.428571    0.00291545  18 t-inv F
  0.428571 -0.142857 -0.285714    0.00291545  18 t-inv F
 -0.428571  0.142857  0.285714    0.00291545  18 t-inv F
 -0.285714  0.428571 -0.142857    0.00291545  18 t-inv F
  0.285714 -0.428571  0.142857    0.00291545  18 t-inv F
 -0.142857 -0.285714  0.428571    0.00291545  18 t-inv F
  0.142857  0.285714 -0.428571    0.00291545  18 t-inv F
  0.285714  0.142857  0.714286    0.00291545  18 t-inv F
 -0.285714 -0.142857 -0.714286    0.00291545  18 t-inv F
 -0.428571 -0.714286 -0.571429    0.00291545  18 t-inv F
  0.428571  0.714286  0.571429    0.00291545  18 t-inv F
  0.142857  0.571429 -0.142857    0.00291545  18 t-inv F
 -0.142857 -0.571429  0.142857    0.00291545  18 t-inv F
  0.142857 -0.571429 -0.142857    0.00291545  18 t-inv F
 -0.142857  0.571429  0.142857    0.00291545  18 t-inv F
 -0.714286 -0.142857 -0.285714    0.00291545  18 t-inv F
  0.714286  0.142857  0.285714    0.00291545  18 t-inv F
  0.571429  0.714286  0.428571    0.00291545  18 t-inv F
 -0.571429 -0.714286 -0.428571    0.00291545  18 t-inv F
 -0.571429 -0.428571 -0.714286    0.00291545  18 t-inv F
  0.571429  0.428571  0.714286    0.00291545  18 t-inv F
 -0.142857  0.142857  0.571429    0.00291545  18 t-inv F
  0.142857 -0.142857 -0.571429    0.00291545  18 t-inv F
  0.714286  0.285714  0.142857    0.00291545  18 t-inv F
 -0.714286 -0.285714 -0.142857    0.00291545  18 t-inv F
 -0.142857  0.142857 -0.571429    0.00291545  18 t-inv F
  0.142857 -0.142857  0.571429    0.00291545  18 t-inv F
 -0.285714 -0.714286 -0.142857    0.00291545  18 t-inv F
  0.285714  0.714286  0.142857    0.00291545  18 t-inv F
  0.428571  0.571429  0.714286    0.00291545  18 t-inv F
 -0.428571 -0.571429 -0.714286    0.00291545  18 t-inv F
 -0.714286 -0.571429 -0.428571    0.00291545  18 t-inv F
  0.714286  0.571429  0.428571    0.00291545  18 t-inv F
  0.571429 -0.142857  0.142857    0.00291545  18 t-inv F
 -0.571429  0.142857 -0.142857    0.00291545  18 t-inv F
  0.142857  0.714286  0.285714    0.00291545  18 t-inv F
 -0.142857 -0.714286 -0.285714    0.00291545  18 t-inv F
 -0.571429 -0.142857  0.142857    0.00291545  18 t-inv F
  0.571429  0.142857 -0.142857    0.00291545  18 t-inv F
 -0.142857 -0.285714 -0.714286    0.00291545  18 t-inv F
  0.142857  0.285714  0.714286    0.00291545  18 t-inv F
  0.714286  0.428571  0.571429    0.00291545  18 t-inv F
 -0.714286 -0.428571 -0.571429    0.00291545  18 t-inv F
  0.428571 -0.428571 -0.142857    0.00291545  19 t-inv F
  0.142857 -0.428571  0.428571    0.00291545  19 t-inv F
 -0.142857  0.428571 -0.428571    0.00291545  19 t-inv F
  0.428571  0.142857 -0.428571    0.00291545  19 t-inv F
 -0.428571 -0.142857  0.428571    0.00291545  19 t-inv F
  0.428571 -0.142857 -0.428571    0.00291545  19 t-inv F
 -0.428571  0.142857  0.428571    0.00291545  19 t-inv F
 -0.428571  0.428571 -0.142857    0.00291545  19 t-inv F
  0.428571 -0.428571  0.142857    0.00291545  19 t-inv F
 -0.142857 -0.428571  0.428571    0.00291545  19 t-inv F
  0.142857  0.428571 -0.428571    0.00291545  19 t-inv F
  0.428571  0.285714  0.857143    0.00291545  19 t-inv F
 -0.428571 -0.285714 -0.857143    0.00291545  19 t-inv F
  0.142857  0.571429 -0.285714    0.00291545  19 t-inv F
 -0.142857 -0.571429  0.285714    0.00291545  19 t-inv F
  0.285714 -0.571429 -0.142857    0.00291545  19 t-inv F
 -0.285714  0.571429  0.142857    0.00291545  19 t-inv F
 -0.857143 -0.285714 -0.428571    0.00291545  19 t-inv F
  0.857143  0.285714  0.428571    0.00291545  19 t-inv F
 -0.285714  0.142857  0.571429    0.00291545  19 t-inv F
  0.285714 -0.142857 -0.571429    0.00291545  19 t-inv F
 -0.428571 -0.857143 -0.285714    0.00291545  19 t-inv F
  0.428571  0.857143  0.285714    0.00291545  19 t-inv F
  0.285714 -0.428571 -0.142857    0.00291545  20 t-inv F
  0.142857 -0.285714  0.428571    0.00291545  20 t-inv F
 -0.142857  0.285714 -0.428571    0.00291545  20 t-inv F
  0.428571  0.142857 -0.285714    0.00291545  20 t-inv F
 -0.428571 -0.142857  0.285714    0.00291545  20 t-inv F
  0.285714 -0.142857 -0.428571    0.00291545  20 t-inv F
 -0.285714  0.142857  0.428571    0.00291545  20 t-inv F
 -0.428571  0.285714 -0.142857    0.00291545  20 t-inv F
  0.428571 -0.285714  0.142857    0.00291545  20 t-inv F
 -0.142857 -0.428571  0.285714    0.00291545  20 t-inv F
  0.142857  0.428571 -0.285714    0.00291545  20 t-inv F
  0.428571  0.285714  0.714286    0.00291545  20 t-inv F
 -0.428571 -0.285714 -0.714286    0.00291545  20 t-inv F
 -0.285714 -0.714286 -0.428571    0.00291545  20 t-inv F
  0.285714  0.714286  0.428571    0.00291545  20 t-inv F
 -0.714286 -0.285714 -0.428571    0.00291545  20 t-inv F
  0.714286  0.285714  0.428571    0.00291545  20 t-inv F
  0.428571  0.714286  0.285714    0.00291545  20 t-inv F
 -0.428571 -0.714286 -0.285714    0.00291545  20 t-inv F
  0.714286  0.428571  0.285714    0.00291545  20 t-inv F
 -0.714286 -0.428571 -0.285714    0.00291545  20 t-inv F
  0.285714  0.428571  0.714286    0.00291545  20 t-inv F
 -0.285714 -0.428571 -0.714286    0.00291545  20 t-inv F
 -----------------------------------------------------------------------------
|                                                                             |
|           W    W    AA    RRRRR   N    N  II  N    N   GGGG   !!!           |
|           W    W   A  A   R    R  NN   N  II  NN   N  G    G  !!!           |
|           W    W  A    A  R    R  N N  N  II  N N  N  G       !!!           |
|           W WW W  AAAAAA  RRRRR   N  N N  II  N  N N  G  GGG   !            |
|           WW  WW  A    A  R   R   N   NN  II  N   NN  G    G                |
|           W    W  A    A  R    R  N    N  II  N    N   GGGG   !!!           |
|                                                                             |
|     The number of bands has been changed from the values supplied in        |
|     the INCAR file. This is a result of running the parallel version.       |
|     The orbitals not found in the WAVECAR file will be initialized with     |
|     random numbers, which is usually adequate. For correlated               |
|     calculations, however, you should redo the groundstate calculation.     |
|     I found NBANDS = 15. Now, NBANDS = 24.                                  |
|                                                                             |
 -----------------------------------------------------------------------------



--------------------------------------------------------------------------------------------------------




 Dimension of arrays:
   k-points           NKPTS =     20   k-points in BZ     NKDIM =    343   number of bands    NBANDS=     24
   number of dos      NEDOS =   1455   number of ions     NIONS =      2
   non local maximal  LDIM  =      4   non local SUM 2l+1 LMDIM =      8
   total plane-waves  NPLWV =  46656
   max r-space proj   IRMAX =      1   max aug-charges    IRDMAX=  38875
   dimension x,y,z NGX =    36 NGY =   36 NGZ =   36
   dimension x,y,z NGXF=    72 NGYF=   72 NGZF=   72
   support grid    NGXF=    72 NGYF=   72 NGZF=   72
   ions per type =               2
   NGX,Y,Z   is equivalent  to a cutoff of  15.55, 15.55, 15.55 a.u.
   NGXF,Y,Z  is equivalent  to a cutoff of  31.10, 31.10, 31.10 a.u.

 SYSTEM =  unknown system                          
 POSCAR =  Si2                                     

 Startparameter for this run:
   NWRITE =      2    write-flag & timer
   PREC   = accura    normal or accurate (medium, high low for compatibility)
   ISTART =      0    job   : 0-new  1-cont  2-samecut
   ICHARG =      2    charge: 1-file 2-atom 10-const
   ISPIN  =      1    spin polarized calculation?
   LNONCOLLINEAR =      F non collinear calculations
   LSORBIT =      F    spin-orbit coupling
   INIWAV =      1    electr: 0-lowe 1-rand  2-diag
   LASPH  =      T    aspherical Exc in radial PAW
 Electronic Relaxation 1
   ENCUT  =  680.0 eV  49.98 Ry    7.07 a.u.   8.18  8.18  8.18*2*pi/ulx,y,z
   ENINI  =  680.0     initial cutoff
   ENAUG  = 1360.0 eV  augmentation charge cutoff
   NELM   =    200;   NELMIN=  5; NELMDL= -5     # of ELM steps 
   EDIFF  = 0.1E-04   stopping-criterion for ELM
   LREAL  =      F    real-space projection
   NLSPLINE    = F    spline interpolate recip. space projectors
   LCOMPAT=      F    compatible to vasp.4.4
   GGA_COMPAT  = T    GGA compatible to vasp.4.4-vasp.4.6
   LMAXPAW     = -100 max onsite density
   LMAXMIX     =    2 max onsite mixed and CHGCAR
   VOSKOWN=      0    Vosko Wilk Nusair interpolation
   ROPT   =    0.00000
 Ionic relaxation
   EDIFFG = 0.1E-03   stopping-criterion for IOM
   NSW    =      0    number of steps for IOM
   NBLOCK =      1;   KBLOCK =      1    inner block; outer block 
   IBRION =     -1    ionic relax: 0-MD 1-quasi-New 2-CG
   NFREE  =      0    steps in history (QN), initial steepest desc. (CG)
   ISIF   =      0    stress and relaxation
   IWAVPR =     10    prediction:  0-non 1-charg 2-wave 3-comb
   ISYM   =      3    0-nonsym 1-usesym 2-fastsym
   LCORR  =      T    Harris-Foulkes like correction to forces

   POTIM  = 0.5000    time-step for ionic-motion
   TEIN   =    0.0    initial temperature
   TEBEG  =    0.0;   TEEND  =   0.0 temperature during run
   SMASS  =  -3.00    Nose mass-parameter (am)
   estimated Nose-frequenzy (Omega)   =  0.10E-29 period in steps = 0.13E+47 mass=  -0.339E-27a.u.
   SCALEE = 1.0000    scale energy and forces
   NPACO  =    256;   APACO  = 10.0  distance and # of slots for P.C.
   PSTRESS=    0.0 pullay stress

  Mass of Ions in am
   POMASS =  28.09
  Ionic Valenz
   ZVAL   =   4.00
  Atomic Wigner-Seitz radii
   RWIGS  =  -1.00
  virtual crystal weights 
   VCA    =   1.00
   NELECT =       8.0000    total number of electrons
   NUPDOWN=      -1.0000    fix difference up-down

 DOS related values:
   EMIN   =  10.00;   EMAX   =-10.00  energy-range for DOS
   EFERMI =   0.00;   METHOD = LEGACY      
   ISMEAR =    -5;   SIGMA  =   0.05  broadening in eV -4-tet -1-fermi 0-gaus

 Electronic relaxation 2 (details)
   IALGO  =     38    algorithm
   LDIAG  =      T    sub-space diagonalisation (order eigenvalues)
   LSUBROT=      F    optimize rotation matrix (better conditioning)
   TURBO    =      0    0=normal 1=particle mesh
   IRESTART =      0    0=no restart 2=restart with 2 vectors
   NREBOOT  =      0    no. of reboots
   NMIN     =      0    reboot dimension
   EREF     =   0.00    reference energy to select bands
   IMIX   =      1    mixing-type and parameters
     AMIX     =   0.40;   BMIX     =  1.00
     AMIX_MAG =   1.60;   BMIX_MAG =  1.00
     AMIN     =   0.10
     WC   =   100.;   INIMIX=   1;  MIXPRE=   1;  MAXMIX= -45

 Intra band minimization:
   WEIMIN = 0.0000     energy-eigenvalue tresh-hold
   EBREAK =  0.10E-06  absolut break condition
   DEPER  =   0.30     relativ break condition  

   TIME   =   0.40     timestep for ELM

  volume/ion in A,a.u.               =      20.16       136.08
  Fermi-wavevector in a.u.,A,eV,Ry     =   0.954766  1.804247 12.402783  0.911579
  Thomas-Fermi vector in A             =   2.083543
 
 Write flags
   LWAVE        =      T    write WAVECAR
   LDOWNSAMPLE  =      F    k-point downsampling of WAVECAR
   LCHARG       =      T    write CHGCAR
   LVTOT        =      T    write LOCPOT, total local potential
   LVHAR        =      F    write LOCPOT, Hartree potential only
   LELF         =      F    write electronic localiz. function (ELF)
   LORBIT       =     11    0 simple, 1 ext, 2 COOP (PROOUT), +10 PAW based schemes


 Dipole corrections
   LMONO  =      F    monopole corrections only (constant potential shift)
   LDIPOL =      F    correct potential (dipole corrections)
   IDIPOL =      0    1-x, 2-y, 3-z, 4-all directions 
   EPSILON=  1.0000000 bulk dielectric constant

 Exchange correlation treatment:
   GGA     =    PE    GGA type
   LEXCH   =     8    internal setting for exchange type
   LIBXC   =     F    Libxc                    
   VOSKOWN =     0    Vosko Wilk Nusair interpolation
   EXXOEP  =     0    0=HF, 1=EXX-LHF (local Hartree Fock) 2=EXX OEP
   LHFCALC =     T    Hartree Fock is set to
   LSYMGRAD=     F    symmetrize gradient (conserves proper symmetry)
   PRECFOCK=fast      Normal, Fast or Accurate (Low or Medium for compatibility)
   LRHFCALC=     F    long range Hartree Fock
   LRSCOR  =     F    long range correlation only (use DFT for short range part)
   LTHOMAS =     F    Thomas Fermi screening in HF
   LMODELHF=     F    short range full HF, long range fraction AEXX
   FOCKCORR=     1    mode to apply convergence corrections
   LFOCKACE=     T    use Adeptively-Compressed-Exchange operator
   ENCUT4O =  -1.0   cutoff for four orbital integrals eV
   LMAXFOCK=     4    L truncation for augmentation on plane wave grid
   LMAXFOCKAE=  -1    L truncation for all-electron charge restoration on plane wave grid
   NMAXFOCKAE=   1    number of basis functions for all-electron charge restoration
   LFOCKAEDFT=     F  apply the AE augmentation even for DFT
   NKREDX  =     1    reduce k-point grid by
   NKREDY  =     1    reduce k-point grid by
   NKREDZ  =     1    reduce k-point grid by
   SHIFTRED=     F    shift reduced grid of Gamma
   HFKIDENT=     F    idential grid for each k-point
   ODDONLY =     F    use only odd q-grid points
   EVENONLY=     F    use only even q-grid points
   HFALPHA =   -1.0000 decay constant for conv. correction
   MCALPHA =    0.0000 extent of test-charge in conv. correction in multipole expansion
   AEXX    =    0.2500 exact exchange contribution
   HFSCREEN=    0.2000 screening length (either q_TF or 0.3 A-1)
   HFSCREENC=   0.2000 screening length for correlation (either q_TF or 0.3 A-1)
   HFRCUT  =    0.0000 spherical cutoff for potential kernel
   ALDAX   =    0.7500 LDA exchange part
   AGGAX   =    0.7500 GGA exchange part
   ALDAC   =    1.0000 LDA correlation
   AGGAC   =    1.0000 GGA correlation
   ENCUTFOCK=  -1.0 apply spherical cutoff to Coloumb kernel
   NBANDSGWLOW=     1    first orbital included in HF term
   NBLOCK_FOCK=    64    blocking factor in FOCK_ACC

 Linear response parameters
   LEPSILON=     F    determine dielectric tensor
   LRPA    =     F    only Hartree local field effects (RPA)
   LNABLA  =     F    use nabla operator in PAW spheres
   LVEL    =     F    velocity operator in full k-point grid
   CSHIFT  =0.0000    complex shift for real part using Kramers Kronig
   OMEGAMAX=  -1.0    maximum frequency
   DEG_THRESHOLD= 0.2000000E-02 threshold for treating states as degnerate
   RTIME   =   -0.100 relaxation time in fs
  (WPLASMAI=    0.000 imaginary part of plasma frequency in eV, 0.658/RTIME)
   DFIELD  = 0.0000000 0.0000000 0.0000000 field for delta impulse in time
 
  Optional k-point grid parameters
   LKPOINTS_OPT  =     F    use optional k-point grid
   KPOINTS_OPT_MODE=     1    mode for optional k-point grid
 
 Orbital magnetization related:
   ORBITALMAG=     F  switch on orbital magnetization
   LCHIMAG   =     F  perturbation theory with respect to B field
   DQ        =  0.001000  dq finite difference perturbation B field
   LLRAUG    =     F  two centre corrections for induced B field
   LBONE     =     F  B-component reconstruction in AE one-centre
   LVGVCALC  =     T  calculate vGv susceptibility
   LVGVAPPL  =     F  apply vGv susceptibility instead of pGv for G=0

 Random number generation:
   RANDOM_GENERATOR = DEFAULT
   PCG_SEED         = not used


--------------------------------------------------------------------------------------------------------


 Static calculation
 charge density and potential will be updated during run
 non-spin polarized calculation
 Variant of blocked Davidson
 Davidson routine will perform the subspace rotation
 perform sub-space diagonalisation
    after iterative eigenvector-optimisation
 Kerker-like  mixing scheme
 using additional bands           20
 reciprocal scheme for non local part
 use partial core corrections
 calculate Harris-corrections to forces 
   (improved forces if not selfconsistent)
 use gradient corrections 
 use of overlap-Matrix (Vanderbilt PP)
 Fermi weights with tetrahedron method with Bloechl corrections


--------------------------------------------------------------------------------------------------------


  energy-cutoff  :      680.00
  volume of cell :       40.33
      direct lattice vectors                 reciprocal lattice vectors
     3.333572997  0.000000000  1.924638998     0.299978432 -0.106058350  0.000000000
     1.111190999  3.142923999  1.924638999     0.000000000  0.318175050  0.000000000
     0.000000000  0.000000000  3.849278000    -0.149989216 -0.106058350  0.259788979

  length of vectors
     3.849278400  3.849279410  3.849278000     0.318175161  0.318175050  0.318175190


 
 k-points in units of 2pi/SCALE and weight: pymatgen with grid density = 787 / numbe
   0.00000000  0.00000000  0.00000000       0.003
   0.04285406 -0.01515119  0.00000000       0.023
   0.08570812 -0.03030239  0.00000000       0.023
   0.12856219 -0.04545358  0.00000000       0.023
   0.04285406  0.03030239  0.00000000       0.017
   0.08570812  0.01515119  0.00000000       0.070
   0.12856219 -0.00000000  0.00000000       0.070
  -0.12856219  0.09090716  0.00000000       0.070
  -0.08570812  0.07575596  0.00000000       0.070
  -0.04285406  0.06060477  0.00000000       0.035
   0.08570812  0.06060477  0.00000000       0.017
   0.12856219  0.04545358  0.00000000       0.070
  -0.12856219  0.13636074  0.00000000       0.070
  -0.08570812  0.12120954  0.00000000       0.035
   0.12856219  0.09090716  0.00000000       0.017
  -0.12856219  0.18181431  0.00000000       0.035
   0.10713515  0.03030239  0.03711271       0.070
  -0.14998922  0.12120954  0.03711271       0.140
  -0.14998922  0.16666312  0.03711271       0.070
  -0.10713515  0.15151193  0.03711271       0.070
 
 k-points in reciprocal lattice and weights: pymatgen with grid density = 787 / numbe
   0.00000000  0.00000000  0.00000000       0.003
   0.14285714 -0.00000000  0.00000000       0.023
   0.28571429 -0.00000000  0.00000000       0.023
   0.42857143 -0.00000000  0.00000000       0.023
   0.14285714  0.14285714  0.00000000       0.017
   0.28571429  0.14285714  0.00000000       0.070
   0.42857143  0.14285714  0.00000000       0.070
  -0.42857143  0.14285714  0.00000000       0.070
  -0.28571429  0.14285714  0.00000000       0.070
  -0.14285714  0.14285714  0.00000000       0.035
   0.28571429  0.28571429  0.00000000       0.017
   0.42857143  0.28571429  0.00000000       0.070
  -0.42857143  0.28571429  0.00000000       0.070
  -0.28571429  0.28571429  0.00000000       0.035
   0.42857143  0.42857143  0.00000000       0.017
  -0.42857143  0.42857143  0.00000000       0.035
   0.42857143  0.28571429  0.14285714       0.070
  -0.42857143  0.28571429  0.14285714       0.140
  -0.42857143  0.42857143  0.14285714       0.070
  -0.28571429  0.42857143  0.14285714       0.070
 
 position of ions in fractional coordinates (direct lattice) 
   0.87500000  0.87500000  0.87500000
   0.12500000  0.12500000  0.12500000
 
 position of ions in cartesian coordinates  (Angst):
   3.88916850  2.75005850  6.73623650
   0.55559550  0.39286550  0.96231950
 


--------------------------------------------------------------------------------------------------------


 k-point   1 :   0.0000 0.0000 0.0000  plane waves:    1639
 k-point   2 :   0.1429-0.0000 0.0000  plane waves:    1618
 k-point   3 :   0.2857-0.0000 0.0000  plane waves:    1633
 k-point   4 :   0.4286-0.0000 0.0000  plane waves:    1616
 k-point   5 :   0.1429 0.1429 0.0000  plane waves:    1623
 k-point   6 :   0.2857 0.1429 0.0000  plane waves:    1626
 k-point   7 :   0.4286 0.1429 0.0000  plane waves:    1623
 k-point   8 :  -0.4286 0.1429 0.0000  plane waves:    1626
 k-point   9 :  -0.2857 0.1429 0.0000  plane waves:    1629
 k-point  10 :  -0.1429 0.1429 0.0000  plane waves:    1618
 k-point  11 :   0.2857 0.2857 0.0000  plane waves:    1620
 k-point  12 :   0.4286 0.2857 0.0000  plane waves:    1626
 k-point  13 :  -0.4286 0.2857 0.0000  plane waves:    1623
 k-point  14 :  -0.2857 0.2857 0.0000  plane waves:    1622
 k-point  15 :   0.4286 0.4286 0.0000  plane waves:    1628
 k-point  16 :  -0.4286 0.4286 0.0000  plane waves:    1628
 k-point  17 :   0.4286 0.2857 0.1429  plane waves:    1615
 k-point  18 :  -0.4286 0.2857 0.1429  plane waves:    1624
 k-point  19 :  -0.4286 0.4286 0.1429  plane waves:    1641
 k-point  20 :  -0.2857 0.4286 0.1429  plane waves:    1626

 maximum and minimum number of plane-waves per node :       174      151

 maximum number of plane-waves:      1641
 maximum index in each direction: 
   IXMAX=    8   IYMAX=    8   IZMAX=    8
   IXMIN=   -8   IYMIN=   -8   IZMIN=   -8


 parallel 3D FFT for wavefunctions:
    minimum data exchange during FFTs selected (reduces bandwidth)
 parallel 3D FFT for charge:
    minimum data exchange during FFTs selected (reduces bandwidth)


 FFT grid for exact exchange (Hartree Fock) 
  NGX = 20; NGY = 20; NGZ = 20

 
 Radii for the augmentation spheres in the non-local exchange
 for species   1 augmentation radius   1.335 (default was   0.989)
       energy cutoff for augmentation   2720.0

 real space projection operators:
  total allocation   :        270.84 KBytes
  max/ min on nodes  :         27.91         26.23

 Maximum index for augmentation-charges in exchange          193
  SETUP_FOCK is finished

 total amount of memory used by VASP MPI-rank0    31369. kBytes
=======================================================================

   base      :      30000. kBytes
   nonl-proj :        267. kBytes
   fftplans  :        394. kBytes
   grid      :        463. kBytes
   one-center:          3. kBytes
   HF        :          4. kBytes
   nonlr-proj:        100. kBytes
   wavefun   :        138. kBytes
 
     INWAV:  cpu time      0.0001: real time      0.0007
 initial charge density was supplied:
 charge density of overlapping atoms calculated
 number of electron       8.0000000 magnetization 
 keeping initial charge density in first step


--------------------------------------------------------------------------------------------------------


 Maximum index for augmentation-charges         1039 (set IRDMAX)


--------------------------------------------------------------------------------------------------------


 First call to EWALD:  gamma=   0.517
 Maximum number of real-space cells 3x 3x 3
 Maximum number of reciprocal cells 3x 3x 3

    FEWALD:  cpu time      0.0027: real time      0.0029


--------------------------------------- Ionic step        1  -------------------------------------------




--------------------------------------- Iteration      1(   1)  ---------------------------------------


    POTLOK:  cpu time      0.0156: real time      0.0179
    SETDIJ:  cpu time      0.0464: real time      0.0466
     EDDAV:  cpu time      0.1717: real time      0.1752
 BZINTS: Fermi energy:    7.861692;    8.000000 electrons
         Band energy: 0.166206E+02;  BLOECHL correction:    0.000000
       DOS:  cpu time      0.0045: real time      0.0048
    --------------------------------------------
      LOOP:  cpu time      0.2382: real time      0.2446

 eigenvalue-minimisations  :   960
 total energy-change (2. order) :-0.2491848E+03  (-0.3555104E+03)
 number of electron       8.0000000 magnetization 
 augmentation part        8.0000000 magnetization 

 Free energy of the ion-electron system (eV)
  ---------------------------------------------------
  alpha Z        PSCENC =         3.33880742
  Ewald energy   TEWEN  =      -227.98820653
  -Hartree energ DENC   =       -11.11484529
  -exchange      EXHF   =         0.00000000
  -V(xc)+E(xc)   XCENC  =       -18.63153738
  PAW double counting   =       176.24759923     -391.65626926
  entropy T*S    EENTRO =         0.00000000
  eigenvalues    EBANDS =        16.62057290
  atomic energy  EATOM  =       203.99906502
  Solvation  Ediel_sol  =         0.00000000
  ---------------------------------------------------
  free energy    TOTEN  =      -249.18481390 eV

  energy without entropy =     -249.18481390  energy(sigma->0) =     -249.18481390
  exchange ACFDT corr.  =         0.00000000  see jH, gK, PRB 81, 115126


--------------------------------------------------------------------------------------------------------




--------------------------------------- Iteration      1(   2)  ---------------------------------------


     EDDAV:  cpu time      0.1741: real time      0.1780
 BZINTS: Fermi energy:    4.871046;    8.000000 electrons
         Band energy:-0.132042E+01;  BLOECHL correction:    0.000000
       DOS:  cpu time      0.0024: real time      0.0024
    --------------------------------------------
      LOOP:  cpu time      0.1766: real time      0.1805

 eigenvalue-minimisations  :  1344
 total energy-change (2. order) :-0.1794100E+02  (-0.1757250E+02)
 number of electron       8.0000000 magnetization 
 augmentation part        8.0000000 magnetization 

 Free energy of the ion-electron system (eV)
  ---------------------------------------------------
  alpha Z        PSCENC =         3.33880742
  Ewald energy   TEWEN  =      -227.98820653
  -Hartree energ DENC   =       -11.11484529
  -exchange      EXHF   =         0.00000000
  -V(xc)+E(xc)   XCENC  =       -18.63153738
  PAW double counting   =       176.24759923     -391.65626926
  entropy T*S    EENTRO =         0.00000000
  eigenvalues    EBANDS =        -1.32042410
  atomic energy  EATOM  =       203.99906502
  Solvation  Ediel_sol  =         0.00000000
  ---------------------------------------------------
  free energy    TOTEN  =      -267.12581090 eV

  energy without entropy =     -267.12581090  energy(sigma->0) =     -267.12581090
  exchange ACFDT corr.  =         0.00000000  see jH, gK, PRB 81, 115126


--------------------------------------------------------------------------------------------------------




--------------------------------------- Iteration      1(   3)  ---------------------------------------


     EDDAV:  cpu time      0.1405: real time      0.1580
 BZINTS: Fermi energy:    4.729975;    8.000000 electrons
         Band energy:-0.167487E+01;  BLOECHL correction:    0.000000
       DOS:  cpu time      0.0024: real time      0.0024
    --------------------------------------------
      LOOP:  cpu time      0.1429: real time      0.1604

 eigenvalue-minimisations  :  1188
 total energy-change (2. order) :-0.3544421E+00  (-0.3541238E+00)
 number of electron       8.0000000 magnetization 
 augmentation part        8.0000000 magnetization 

 Free energy of the ion-electron system (eV)
  ---------------------------------------------------
  alpha Z        PSCENC =         3.33880742
  Ewald energy   TEWEN  =      -227.98820653
  -Hartree energ DENC   =       -11.11484529
  -exchange      EXHF   =         0.00000000
  -V(xc)+E(xc)   XCENC  =       -18.63153738
  PAW double counting   =       176.24759923     -391.65626926
  entropy T*S    EENTRO =         0.00000000
  eigenvalues    EBANDS =        -1.67486616
  atomic energy  EATOM  =       203.99906502
  Solvation  Ediel_sol  =         0.00000000
  ---------------------------------------------------
  free energy    TOTEN  =      -267.48025296 eV

  energy without entropy =     -267.48025296  energy(sigma->0) =     -267.48025296
  exchange ACFDT corr.  =         0.00000000  see jH, gK, PRB 81, 115126


--------------------------------------------------------------------------------------------------------




--------------------------------------- Iteration      1(   4)  ---------------------------------------


     EDDAV:  cpu time      0.1512: real time      0.1685
 BZINTS: Fermi energy:    4.747553;    8.000000 electrons
         Band energy:-0.167604E+01;  BLOECHL correction:    0.000000
       DOS:  cpu time      0.0023: real time      0.0023
    --------------------------------------------
      LOOP:  cpu time      0.1535: real time      0.1709

 eigenvalue-minimisations  :  1272
 total energy-change (2. order) :-0.1174175E-02  (-0.1174419E-02)
 number of electron       8.0000000 magnetization 
 augmentation part        8.0000000 magnetization 

 Free energy of the ion-electron system (eV)
  ---------------------------------------------------
  alpha Z        PSCENC =         3.33880742
  Ewald energy   TEWEN  =      -227.98820653
  -Hartree energ DENC   =       -11.11484529
  -exchange      EXHF   =         0.00000000
  -V(xc)+E(xc)   XCENC  =       -18.63153738
  PAW double counting   =       176.24759923     -391.65626926
  entropy T*S    EENTRO =         0.00000000
  eigenvalues    EBANDS =        -1.67604034
  atomic energy  EATOM  =       203.99906502
  Solvation  Ediel_sol  =         0.00000000
  ---------------------------------------------------
  free energy    TOTEN  =      -267.48142713 eV

  energy without entropy =     -267.48142713  energy(sigma->0) =     -267.48142713
  exchange ACFDT corr.  =         0.00000000  see jH, gK, PRB 81, 115126


--------------------------------------------------------------------------------------------------------




--------------------------------------- Iteration      1(   5)  ---------------------------------------


    POTLOK:  cpu time      0.0091: real time      0.0275
    SETDIJ:  cpu time      0.1250: real time      0.1253
     EDDAV:  cpu time     13.0453: real time     13.0809
 BZINTS: Fermi energy:    4.704314;    8.000000 electrons
         Band energy:-0.554200E+01;  BLOECHL correction:    0.000000
       DOS:  cpu time      0.0024: real time      0.0026
    CHARGE:  cpu time      0.0338: real time      0.0341
    MIXING:  cpu time      0.0010: real time      0.0010
    --------------------------------------------
      LOOP:  cpu time     13.2167: real time     13.2714

 eigenvalue-minimisations  :  1116
 total energy-change (2. order) : 0.2545399E+03  (-0.1580805E+00)
 number of electron       8.0000000 magnetization 
 augmentation part       -0.4502835 magnetization 

 Free energy of the ion-electron system (eV)
  ---------------------------------------------------
  alpha Z        PSCENC =         3.33880742
  Ewald energy   TEWEN  =      -227.98820653
  -Hartree energ DENC   =       -11.11484529
  -exchange      EXHF   =        11.44829652
  -V(xc)+E(xc)   XCENC  =       -14.90535473
  PAW double counting   =       171.63954155     -143.81684058
  entropy T*S    EENTRO =         0.00000000
  eigenvalues    EBANDS =        -5.54199765
  atomic energy  EATOM  =       203.99906502
  Solvation  Ediel_sol  =         0.00000000
  ---------------------------------------------------
  free energy    TOTEN  =       -12.94153427 eV

  energy without entropy =      -12.94153427  energy(sigma->0) =      -12.94153427
  exchange ACFDT corr.  =         0.00000000  see jH, gK, PRB 81, 115126


--------------------------------------------------------------------------------------------------------




--------------------------------------- Iteration      1(   6)  ---------------------------------------


    POTLOK:  cpu time      0.0099: real time      0.0249
    SETDIJ:  cpu time      0.1255: real time      0.1259
     EDDAV:  cpu time     13.8352: real time     13.8701
 BZINTS: Fermi energy:    4.972094;    8.000000 electrons
         Band energy:-0.376887E+01;  BLOECHL correction:    0.000000
       DOS:  cpu time      0.0025: real time      0.0026
    CHARGE:  cpu time      0.0287: real time      0.0289
    MIXING:  cpu time      0.0001: real time      0.0001
    --------------------------------------------
      LOOP:  cpu time     14.0019: real time     14.0525

 eigenvalue-minimisations  :  1332
 total energy-change (2. order) : 0.2545127E+00  (-0.1624829E-01)
 number of electron       8.0000000 magnetization 
 augmentation part       -0.4391695 magnetization 

 Free energy of the ion-electron system (eV)
  ---------------------------------------------------
  alpha Z        PSCENC =         3.33880742
  Ewald energy   TEWEN  =      -227.98820653
  -Hartree energ DENC   =       -12.78580650
  -exchange      EXHF   =        11.49702051
  -V(xc)+E(xc)   XCENC  =       -14.70469788
  PAW double counting   =       533.71664113     -505.99097750
  entropy T*S    EENTRO =         0.00000000
  eigenvalues    EBANDS =        -3.76886724
  atomic energy  EATOM  =       203.99906502
  Solvation  Ediel_sol  =         0.00000000
  ---------------------------------------------------
  free energy    TOTEN  =       -12.68702157 eV

  energy without entropy =      -12.68702157  energy(sigma->0) =      -12.68702157
  exchange ACFDT corr.  =         0.00000000  see jH, gK, PRB 81, 115126


--------------------------------------------------------------------------------------------------------




--------------------------------------- Iteration      1(   7)  ---------------------------------------


    POTLOK:  cpu time      0.0132: real time      0.0271
    SETDIJ:  cpu time      0.1233: real time      0.1235
     EDDAV:  cpu time     13.0270: real time     13.0599
 BZINTS: Fermi energy:    5.156091;    8.000000 electrons
         Band energy:-0.265861E+01;  BLOECHL correction:   -0.000000
       DOS:  cpu time      0.0024: real time      0.0024
    CHARGE:  cpu time      0.0284: real time      0.0285
    MIXING:  cpu time      0.0001: real time      0.0001
    --------------------------------------------
      LOOP:  cpu time     13.1944: real time     13.2416

 eigenvalue-minimisations  :  1332
 total energy-change (2. order) : 0.8013350E-01  (-0.6521327E-02)
 number of electron       8.0000000 magnetization 
 augmentation part       -0.4358221 magnetization 

 Free energy of the ion-electron system (eV)
  ---------------------------------------------------
  alpha Z        PSCENC =         3.33880742
  Ewald energy   TEWEN  =      -227.98820653
  -Hartree energ DENC   =       -13.81330590
  -exchange      EXHF   =        11.41158298
  -V(xc)+E(xc)   XCENC  =       -14.57503010
  PAW double counting   =       924.63056520     -896.95175179
  entropy T*S    EENTRO =         0.00000000
  eigenvalues    EBANDS =        -2.65861438
  atomic energy  EATOM  =       203.99906502
  Solvation  Ediel_sol  =         0.00000000
  ---------------------------------------------------
  free energy    TOTEN  =       -12.60688807 eV

  energy without entropy =      -12.60688807  energy(sigma->0) =      -12.60688807
  exchange ACFDT corr.  =         0.00000000  see jH, gK, PRB 81, 115126


--------------------------------------------------------------------------------------------------------




--------------------------------------- Iteration      1(   8)  ---------------------------------------


    POTLOK:  cpu time      0.0088: real time      0.0276
    SETDIJ:  cpu time      0.1225: real time      0.1228
     EDDAV:  cpu time     13.0147: real time     13.0476
 BZINTS: Fermi energy:    5.287335;    8.000000 electrons
         Band energy:-0.205373E+01;  BLOECHL correction:    0.000000
       DOS:  cpu time      0.0025: real time      0.0025
    CHARGE:  cpu time      0.0288: real time      0.0289
    MIXING:  cpu time      0.0001: real time      0.0001
    --------------------------------------------
      LOOP:  cpu time     13.1775: real time     13.2295

 eigenvalue-minimisations  :  1344
 total energy-change (2. order) : 0.2073309E-01  (-0.2103373E-02)
 number of electron       8.0000000 magnetization 
 augmentation part       -0.4344618 magnetization 

 Free energy of the ion-electron system (eV)
  ---------------------------------------------------
  alpha Z        PSCENC =         3.33880742
  Ewald energy   TEWEN  =      -227.98820653
  -Hartree energ DENC   =       -14.38515570
  -exchange      EXHF   =        11.34539155
  -V(xc)+E(xc)   XCENC  =       -14.49920283
  PAW double counting   =      1214.51066295    -1186.85378764
  entropy T*S    EENTRO =         0.00000000
  eigenvalues    EBANDS =        -2.05372922
  atomic energy  EATOM  =       203.99906502
  Solvation  Ediel_sol  =         0.00000000
  ---------------------------------------------------
  free energy    TOTEN  =       -12.58615499 eV

  energy without entropy =      -12.58615499  energy(sigma->0) =      -12.58615499
  exchange ACFDT corr.  =         0.00000000  see jH, gK, PRB 81, 115126


--------------------------------------------------------------------------------------------------------




--------------------------------------- Iteration      1(   9)  ---------------------------------------


    POTLOK:  cpu time      0.0122: real time      0.0275
    SETDIJ:  cpu time      0.1235: real time      0.1238
     EDDAV:  cpu time     13.9195: real time     13.9547
 BZINTS: Fermi energy:    5.354372;    8.000000 electrons
         Band energy:-0.173839E+01;  BLOECHL correction:    0.000000
       DOS:  cpu time      0.0025: real time      0.0025
    CHARGE:  cpu time      0.0283: real time      0.0284
    MIXING:  cpu time      0.0001: real time      0.0001
    --------------------------------------------
      LOOP:  cpu time     14.0861: real time     14.1370

 eigenvalue-minimisations  :  1332
 total energy-change (2. order) : 0.5237521E-02  (-0.5527691E-03)
 number of electron       8.0000000 magnetization 
 augmentation part       -0.4340214 magnetization 

 Free energy of the ion-electron system (eV)
  ---------------------------------------------------
  alpha Z        PSCENC =         3.33880742
  Ewald energy   TEWEN  =      -227.98820653
  -Hartree energ DENC   =       -14.69171341
  -exchange      EXHF   =        11.30855443
  -V(xc)+E(xc)   XCENC  =       -14.45604596
  PAW double counting   =      1404.81464830    -1377.16763937
  entropy T*S    EENTRO =         0.00000000
  eigenvalues    EBANDS =        -1.73838737
  atomic energy  EATOM  =       203.99906502
  Solvation  Ediel_sol  =         0.00000000
  ---------------------------------------------------
  free energy    TOTEN  =       -12.58091747 eV

  energy without entropy =      -12.58091747  energy(sigma->0) =      -12.58091747
  exchange ACFDT corr.  =         0.00000000  see jH, gK, PRB 81, 115126


--------------------------------------------------------------------------------------------------------




--------------------------------------- Iteration      1(  10)  ---------------------------------------


    POTLOK:  cpu time      0.0087: real time      0.0259
    SETDIJ:  cpu time      0.1242: real time      0.1245
     EDDAV:  cpu time     13.0215: real time     13.0547
 BZINTS: Fermi energy:    5.371183;    8.000000 electrons
         Band energy:-0.157419E+01;  BLOECHL correction:    0.000000
       DOS:  cpu time      0.0025: real time      0.0025
    CHARGE:  cpu time      0.0288: real time      0.0288
    MIXING:  cpu time      0.0002: real time      0.0002
    --------------------------------------------
      LOOP:  cpu time     13.1857: real time     13.2365

 eigenvalue-minimisations  :  1320
 total energy-change (2. order) : 0.1304319E-02  (-0.1329647E-03)
 number of electron       8.0000000 magnetization 
 augmentation part       -0.4339355 magnetization 

 Free energy of the ion-electron system (eV)
  ---------------------------------------------------
  alpha Z        PSCENC =         3.33880742
  Ewald energy   TEWEN  =      -227.98820653
  -Hartree energ DENC   =       -14.85639920
  -exchange      EXHF   =        11.29016841
  -V(xc)+E(xc)   XCENC  =       -14.43148778
  PAW double counting   =      1520.71109245    -1493.06846008
  entropy T*S    EENTRO =         0.00000000
  eigenvalues    EBANDS =        -1.57419285
  atomic energy  EATOM  =       203.99906502
  Solvation  Ediel_sol  =         0.00000000
  ---------------------------------------------------
  free energy    TOTEN  =       -12.57961315 eV

  energy without entropy =      -12.57961315  energy(sigma->0) =      -12.57961315
  exchange ACFDT corr.  =         0.00000000  see jH, gK, PRB 81, 115126


--------------------------------------------------------------------------------------------------------




--------------------------------------- Iteration      1(  11)  ---------------------------------------


    POTLOK:  cpu time      0.0089: real time      0.0276
    SETDIJ:  cpu time      0.1245: real time      0.1248
     EDDAV:  cpu time     13.0030: real time     13.0360
 BZINTS: Fermi energy:    5.380335;    8.000000 electrons
         Band energy:-0.148688E+01;  BLOECHL correction:    0.000000
       DOS:  cpu time      0.0025: real time      0.0025
    CHARGE:  cpu time      0.0286: real time      0.0287
    MIXING:  cpu time      0.0001: real time      0.0001
    --------------------------------------------
      LOOP:  cpu time     13.1675: real time     13.2196

 eigenvalue-minimisations  :  1272
 total energy-change (2. order) : 0.2906162E-03  (-0.3532548E-04)
 number of electron       8.0000000 magnetization 
 augmentation part       -0.4339620 magnetization 

 Free energy of the ion-electron system (eV)
  ---------------------------------------------------
  alpha Z        PSCENC =         3.33880742
  Ewald energy   TEWEN  =      -227.98820653
  -Hartree energ DENC   =       -14.94684765
  -exchange      EXHF   =        11.28139431
  -V(xc)+E(xc)   XCENC  =       -14.41733793
  PAW double counting   =      1588.03826520    -1560.39757970
  entropy T*S    EENTRO =         0.00000000
  eigenvalues    EBANDS =        -1.48688268
  atomic energy  EATOM  =       203.99906502
  Solvation  Ediel_sol  =         0.00000000
  ---------------------------------------------------
  free energy    TOTEN  =       -12.57932253 eV

  energy without entropy =      -12.57932253  energy(sigma->0) =      -12.57932253
  exchange ACFDT corr.  =         0.00000000  see jH, gK, PRB 81, 115126


--------------------------------------------------------------------------------------------------------




--------------------------------------- Iteration      1(  12)  ---------------------------------------


    POTLOK:  cpu time      0.0087: real time      0.0255
    SETDIJ:  cpu time      0.1239: real time      0.1242
     EDDAV:  cpu time     13.8994: real time     13.9345
 BZINTS: Fermi energy:    5.385480;    8.000000 electrons
         Band energy:-0.143886E+01;  BLOECHL correction:    0.000000
       DOS:  cpu time      0.0025: real time      0.0025
    CHARGE:  cpu time      0.0284: real time      0.0285
    MIXING:  cpu time      0.0001: real time      0.0001
    --------------------------------------------
      LOOP:  cpu time     14.0630: real time     14.1153

 eigenvalue-minimisations  :  1236
 total energy-change (2. order) : 0.4254378E-04  (-0.9847013E-05)
 number of electron       8.0000000 magnetization 
 augmentation part       -0.4340170 magnetization 

 Free energy of the ion-electron system (eV)
  ---------------------------------------------------
  alpha Z        PSCENC =         3.33880742
  Ewald energy   TEWEN  =      -227.98820653
  -Hartree energ DENC   =       -14.99800990
  -exchange      EXHF   =        11.27724553
  -V(xc)+E(xc)   XCENC  =       -14.40906794
  PAW double counting   =      1626.11625438    -1598.47650804
  entropy T*S    EENTRO =         0.00000000
  eigenvalues    EBANDS =        -1.43885992
  atomic energy  EATOM  =       203.99906502
  Solvation  Ediel_sol  =         0.00000000
  ---------------------------------------------------
  free energy    TOTEN  =       -12.57927999 eV

  energy without entropy =      -12.57927999  energy(sigma->0) =      -12.57927999
  exchange ACFDT corr.  =         0.00000000  see jH, gK, PRB 81, 115126


--------------------------------------------------------------------------------------------------------




--------------------------------------- Iteration      1(  13)  ---------------------------------------


    POTLOK:  cpu time      0.0086: real time      0.0285
    SETDIJ:  cpu time      0.1225: real time      0.1228
     EDDAV:  cpu time     13.0070: real time     13.0399
 BZINTS: Fermi energy:    5.388489;    8.000000 electrons
         Band energy:-0.141143E+01;  BLOECHL correction:    0.000000
       DOS:  cpu time      0.0025: real time      0.0025
    --------------------------------------------
      LOOP:  cpu time     13.1406: real time     13.1937

 eigenvalue-minimisations  :  1236
 total energy-change (2. order) :-0.9389566E-05  (-0.3182990E-05)
 number of electron       8.0000000 magnetization 
 augmentation part       -0.4340170 magnetization 

 Free energy of the ion-electron system (eV)
  ---------------------------------------------------
  alpha Z        PSCENC =         3.33880742
  Ewald energy   TEWEN  =      -227.98820653
  -Hartree energ DENC   =       -15.02790123
  -exchange      EXHF   =        11.27529179
  -V(xc)+E(xc)   XCENC  =       -14.40415957
  PAW double counting   =      1647.11955957    -1619.48031857
  entropy T*S    EENTRO =         0.00000000
  eigenvalues    EBANDS =        -1.41142728
  atomic energy  EATOM  =       203.99906502
  Solvation  Ediel_sol  =         0.00000000
  ---------------------------------------------------
  free energy    TOTEN  =       -12.57928938 eV

  energy without entropy =      -12.57928938  energy(sigma->0) =      -12.57928938
  exchange ACFDT corr.  =         0.00000000  see jH, gK, PRB 81, 115126


--------------------------------------------------------------------------------------------------------




 average (electrostatic) potential at core
  the test charge radii are     0.9892
  (the norm of the test charge is              1.0000)
       1 -79.6064       2 -79.6064
 
 
 
 E-fermi :   5.3885     XC(G=0):  -7.8216     alpha+bet :-11.8943

 Fermi energy:         5.3884893554

 k-point     1 :       0.0000    0.0000    0.0000
  band No.  band energies     occupation 
      1      -7.8579      2.00000
      2       5.3871      2.00000
      3       5.3871      2.00000
      4       5.3871      2.00000
      5       8.7286      0.00000
      6       8.7286      0.00000
      7       8.7286      0.00000
      8       9.6375      0.00000
      9      14.1582      0.00000
     10      14.1902      0.00000
     11      14.1902      0.00000
     12      17.7114      0.00000
     13      17.7114      0.00000
     14      17.7114      0.00000
     15      21.6189      0.00000
     16      30.0715      0.00000
     17      30.0715      0.00000
     18      30.0715      0.00000
     19      31.3633      0.00000
     20      31.3633      0.00000
     21      32.8724      0.00000
     22      32.8724      0.00000
     23      32.8724      0.00000
     24      36.0997      0.00000

 k-point     2 :       0.1429   -0.0000    0.0000
  band No.  band energies     occupation 
      1      -7.5646      2.00000
      2       3.3296      2.00000
      3       5.0167      2.00000
      4       5.0167      2.00000
      5       8.5868      0.00000
      6       9.2776      0.00000
      7       9.2776      0.00000
      8      11.3419      0.00000
      9      13.5722      0.00000
     10      13.5722      0.00000
     11      15.1930      0.00000
     12      17.0228      0.00000
     13      19.2678      0.00000
     14      19.2678      0.00000
     15      23.2738      0.00000
     16      27.5018      0.00000
     17      27.5018      0.00000
     18      27.9458      0.00000
     19      30.9660      0.00000
     20      30.9661      0.00000
     21      33.4629      0.00000
     22      33.4629      0.00000
     23      34.5711      0.00000
     24      36.3484      0.00000

 k-point     3 :       0.2857   -0.0000    0.0000
  band No.  band energies     occupation 
      1      -6.7181      2.00000
      2       0.4066      2.00000
      3       4.4511      2.00000
      4       4.4511      2.00000
      5       8.0092      0.00000
      6       9.7618      0.00000
      7       9.7618      0.00000
      8      13.8884      0.00000
      9      13.8884      0.00000
     10      13.8925      0.00000
     11      15.2122      0.00000
     12      19.1199      0.00000
     13      21.8250      0.00000
     14      21.8250      0.00000
     15      23.9984      0.00000
     16      23.9984      0.00000
     17      24.3498      0.00000
     18      27.1363      0.00000
     19      31.1800      0.00000
     20      31.1801      0.00000
     21      33.8367      0.00000
     22      33.8644      0.00000
     23      33.8644      0.00000
     24      36.5791      0.00000

 k-point     4 :       0.4286   -0.0000    0.0000
  band No.  band energies     occupation 
      1      -5.5664      2.00000
      2      -1.8714      2.00000
      3       4.1243      2.00000
      4       4.1243      2.00000
      5       7.6616      0.00000
      6       9.5922      0.00000
      7       9.5922      0.00000
      8      14.0789      0.00000
      9      16.0481      0.00000
     10      16.0481      0.00000
     11      17.0916      0.00000
     12      19.2819      0.00000
     13      19.2819      0.00000
     14      20.4365      0.00000
     15      24.3309      0.00000
     16      26.6224      0.00000
     17      26.6224      0.00000
     18      28.8129      0.00000
     19      30.2624      0.00000
     20      30.2624      0.00000
     21      31.0331      0.00000
     22      33.5617      0.00000
     23      33.5617      0.00000
     24      34.7144      0.00000

 k-point     5 :       0.1429    0.1429    0.0000
  band No.  band energies     occupation 
      1      -7.4653      2.00000
      2       3.6519      2.00000
      3       4.3648      2.00000
      4       4.3648      2.00000
      5       7.9718      0.00000
      6      10.2116      0.00000
      7      10.2116      0.00000
      8      10.7170      0.00000
      9      12.8248      0.00000
     10      14.6094      0.00000
     11      15.6314      0.00000
     12      18.3585      0.00000
     13      18.3585      0.00000
     14      18.8674      0.00000
     15      24.1256      0.00000
     16      26.9958      0.00000
     17      26.9958      0.00000
     18      28.3183      0.00000
     19      29.3931      0.00000
     20      30.5237      0.00000
     21      33.7636      0.00000
     22      34.1014      0.00000
     23      34.1015      0.00000
     24      38.7206      0.00000

 k-point     6 :       0.2857    0.1429    0.0000
  band No.  band energies     occupation 
      1      -6.7949      2.00000
      2       1.2901      2.00000
      3       3.7498      2.00000
      4       3.7624      2.00000
      5       8.1522      0.00000
      6      10.1911      0.00000
      7      10.7734      0.00000
      8      11.0588      0.00000
      9      14.6823      0.00000
     10      15.0092      0.00000
     11      16.6027      0.00000
     12      18.5463      0.00000
     13      20.1760      0.00000
     14      21.6274      0.00000
     15      23.4671      0.00000
     16      24.1441      0.00000
     17      26.4943      0.00000
     18      28.1169      0.00000
     19      28.3481      0.00000
     20      29.9216      0.00000
     21      33.2109      0.00000
     22      34.5125      0.00000
     23      34.6119      0.00000
     24      36.8622      0.00000

 k-point     7 :       0.4286    0.1429    0.0000
  band No.  band energies     occupation 
      1      -5.6780      2.00000
      2      -1.1571      2.00000
      3       2.9940      2.00000
      4       3.5435      2.00000
      5       8.2356      0.00000
      6      10.0458      0.00000
      7      10.8186      0.00000
      8      12.1268      0.00000
      9      15.8617      0.00000
     10      16.8534      0.00000
     11      17.5603      0.00000
     12      18.9609      0.00000
     13      19.7218      0.00000
     14      22.3894      0.00000
     15      24.2482      0.00000
     16      24.4415      0.00000
     17      26.0191      0.00000
     18      28.5347      0.00000
     19      29.1390      0.00000
     20      30.5367      0.00000
     21      31.2942      0.00000
     22      31.6172      0.00000
     23      34.5592      0.00000
     24      35.1356      0.00000

 k-point     8 :      -0.4286    0.1429    0.0000
  band No.  band energies     occupation 
      1      -5.0583      2.00000
      2      -2.1246      2.00000
      3       2.5335      2.00000
      4       3.7547      2.00000
      5       8.3588      0.00000
      6       9.9215      0.00000
      7      10.4008      0.00000
      8      14.6509      0.00000
      9      15.1655      0.00000
     10      15.5900      0.00000
     11      17.4671      0.00000
     12      19.9108      0.00000
     13      20.4025      0.00000
     14      21.1061      0.00000
     15      24.8638      0.00000
     16      26.7551      0.00000
     17      27.3692      0.00000
     18      27.7476      0.00000
     19      28.5675      0.00000
     20      29.0116      0.00000
     21      31.6395      0.00000
     22      32.5193      0.00000
     23      33.1425      0.00000
     24      34.4823      0.00000

 k-point     9 :      -0.2857    0.1429    0.0000
  band No.  band energies     occupation 
      1      -6.0863      2.00000
      2      -0.3952      2.00000
      3       2.5422      2.00000
      4       4.3170      2.00000
      5       8.8091      0.00000
      6      10.1152      0.00000
      7      10.1718      0.00000
      8      13.0537      0.00000
      9      13.1303      0.00000
[...]
   47.706084    0.873351    0.873351    0.873351   -0.000000    0.000000    0.000000
   47.744526    0.873567    0.873567    0.873567   -0.000000    0.000000    0.000000
   47.782968    0.873783    0.873783    0.873783   -0.000000    0.000000    0.000000
   47.821409    0.873998    0.873998    0.873998   -0.000000    0.000000    0.000000
   47.859851    0.874213    0.874213    0.874213   -0.000000    0.000000    0.000000
   47.898293    0.874427    0.874426    0.874427   -0.000000    0.000000    0.000000
   47.936734    0.874640    0.874640    0.874640   -0.000000    0.000000    0.000000
   47.975176    0.874853    0.874852    0.874853   -0.000000    0.000000    0.000000
   48.013618    0.875065    0.875065    0.875065   -0.000000    0.000000    0.000000
   48.052059    0.875276    0.875276    0.875276   -0.000000    0.000000    0.000000
   48.090501    0.875487    0.875487    0.875487   -0.000000    0.000000    0.000000
   48.128943    0.875698    0.875697    0.875698   -0.000000    0.000000    0.000000
   48.167384    0.875907    0.875907    0.875907   -0.000000    0.000000    0.000000
   48.205826    0.876117    0.876117    0.876117   -0.000000    0.000000    0.000000
   48.244268    0.876325    0.876325    0.876325   -0.000000    0.000000    0.000000
   48.282709    0.876533    0.876533    0.876533   -0.000000    0.000000    0.000000
   48.321151    0.876741    0.876741    0.876741   -0.000000    0.000000    0.000000
   48.359592    0.876948    0.876948    0.876948   -0.000000    0.000000    0.000000
   48.398034    0.877154    0.877154    0.877154   -0.000000    0.000000    0.000000
   48.436476    0.877360    0.877360    0.877360   -0.000000    0.000000    0.000000
   48.474917    0.877565    0.877565    0.877565   -0.000000    0.000000    0.000000
   48.513359    0.877770    0.877770    0.877770   -0.000000    0.000000    0.000000
   48.551801    0.877974    0.877974    0.877974   -0.000000    0.000000    0.000000
   48.590242    0.878178    0.878178    0.878178   -0.000000    0.000000    0.000000
   48.628684    0.878381    0.878381    0.878381   -0.000000    0.000000    0.000000
   48.667126    0.878584    0.878583    0.878584   -0.000000    0.000000    0.000000
   48.705567    0.878786    0.878786    0.878786   -0.000000    0.000000    0.000000
   48.744009    0.878987    0.878987    0.878987   -0.000000    0.000000    0.000000
   48.782451    0.879188    0.879188    0.879188   -0.000000    0.000000    0.000000
   48.820892    0.879388    0.879388    0.879388   -0.000000    0.000000    0.000000
   48.859334    0.879588    0.879588    0.879588   -0.000000    0.000000    0.000000
   48.897776    0.879788    0.879788    0.879788   -0.000000    0.000000    0.000000
   48.936217    0.879986    0.879986    0.879987   -0.000000    0.000000    0.000000
   48.974659    0.880185    0.880185    0.880185   -0.000000    0.000000    0.000000
   49.013100    0.880383    0.880382    0.880383   -0.000000    0.000000    0.000000
   49.051542    0.880580    0.880580    0.880580   -0.000000    0.000000    0.000000
   49.089984    0.880777    0.880776    0.880777   -0.000000    0.000000    0.000000
   49.128425    0.880973    0.880973    0.880973   -0.000000    0.000000    0.000000
   49.166867    0.881168    0.881168    0.881169   -0.000000    0.000000    0.000000
   49.205309    0.881364    0.881364    0.881364   -0.000000    0.000000    0.000000
   49.243750    0.881558    0.881558    0.881558   -0.000000    0.000000    0.000000
   49.282192    0.881753    0.881752    0.881753   -0.000000    0.000000    0.000000
   49.320634    0.881946    0.881946    0.881946   -0.000000    0.000000    0.000000
   49.359075    0.882139    0.882139    0.882139   -0.000000    0.000000    0.000000
   49.397517    0.882332    0.882332    0.882332   -0.000000    0.000000    0.000000
   49.435959    0.882524    0.882524    0.882524   -0.000000    0.000000    0.000000
   49.474400    0.882716    0.882716    0.882716   -0.000000    0.000000    0.000000
   49.512842    0.882907    0.882907    0.882907   -0.000000    0.000000    0.000000
   49.551284    0.883098    0.883098    0.883098   -0.000000    0.000000    0.000000
   49.589725    0.883288    0.883288    0.883288   -0.000000    0.000000    0.000000
   49.628167    0.883478    0.883478    0.883478   -0.000000    0.000000    0.000000
   49.666608    0.883667    0.883667    0.883667   -0.000000    0.000000    0.000000
   49.705050    0.883856    0.883856    0.883856   -0.000000    0.000000    0.000000
   49.743492    0.884044    0.884044    0.884044   -0.000000    0.000000    0.000000
   49.781933    0.884232    0.884232    0.884232   -0.000000    0.000000    0.000000
   49.820375    0.884419    0.884419    0.884419   -0.000000    0.000000    0.000000
   49.858817    0.884606    0.884606    0.884606   -0.000000    0.000000    0.000000
   49.897258    0.884792    0.884792    0.884792   -0.000000    0.000000    0.000000
   49.935700    0.884978    0.884978    0.884978   -0.000000    0.000000    0.000000
   49.974142    0.885164    0.885163    0.885164   -0.000000    0.000000    0.000000
   50.012583    0.885348    0.885348    0.885348   -0.000000    0.000000    0.000000
   50.051025    0.885533    0.885533    0.885533   -0.000000    0.000000    0.000000
   50.089467    0.885717    0.885717    0.885717   -0.000000    0.000000    0.000000
   50.127908    0.885900    0.885900    0.885901   -0.000000    0.000000    0.000000
   50.166350    0.886084    0.886083    0.886084   -0.000000    0.000000    0.000000
   50.204792    0.886266    0.886266    0.886266   -0.000000    0.000000    0.000000
   50.243233    0.886448    0.886448    0.886448   -0.000000    0.000000    0.000000
   50.281675    0.886630    0.886630    0.886630   -0.000000    0.000000    0.000000
   50.320116    0.886811    0.886811    0.886811   -0.000000    0.000000    0.000000
   50.358558    0.886992    0.886992    0.886992   -0.000000    0.000000    0.000000
   50.397000    0.887172    0.887172    0.887172   -0.000000    0.000000    0.000000
   50.435441    0.887352    0.887352    0.887352   -0.000000    0.000000    0.000000
   50.473883    0.887532    0.887532    0.887532   -0.000000    0.000000    0.000000
   50.512325    0.887711    0.887711    0.887711   -0.000000    0.000000    0.000000
   50.550766    0.887889    0.887889    0.887889   -0.000000    0.000000    0.000000
   50.589208    0.888067    0.888067    0.888067   -0.000000    0.000000    0.000000
   50.627650    0.888245    0.888245    0.888245   -0.000000    0.000000    0.000000
   50.666091    0.888422    0.888422    0.888422   -0.000000    0.000000    0.000000
   50.704533    0.888599    0.888599    0.888599   -0.000000    0.000000    0.000000
   50.742975    0.888775    0.888775    0.888775   -0.000000    0.000000    0.000000
   50.781416    0.888951    0.888951    0.888951   -0.000000    0.000000    0.000000
   50.819858    0.889127    0.889127    0.889127   -0.000000    0.000000    0.000000
   50.858300    0.889302    0.889302    0.889302   -0.000000    0.000000    0.000000
   50.896741    0.889476    0.889476    0.889476   -0.000000    0.000000    0.000000
   50.935183    0.889651    0.889650    0.889651   -0.000000    0.000000    0.000000
   50.973624    0.889824    0.889824    0.889824   -0.000000    0.000000    0.000000
   51.012066    0.889998    0.889998    0.889998   -0.000000    0.000000    0.000000
   51.050508    0.890171    0.890170    0.890171   -0.000000    0.000000    0.000000
   51.088949    0.890343    0.890343    0.890343   -0.000000    0.000000    0.000000
   51.127391    0.890515    0.890515    0.890515   -0.000000    0.000000    0.000000
   51.165833    0.890687    0.890687    0.890687   -0.000000    0.000000    0.000000
   51.204274    0.890858    0.890858    0.890858   -0.000000    0.000000    0.000000
   51.242716    0.891029    0.891029    0.891029   -0.000000    0.000000    0.000000
   51.281158    0.891199    0.891199    0.891199   -0.000000    0.000000    0.000000
   51.319599    0.891369    0.891369    0.891369   -0.000000    0.000000    0.000000
   51.358041    0.891539    0.891539    0.891539   -0.000000    0.000000    0.000000
   51.396483    0.891708    0.891708    0.891708   -0.000000    0.000000    0.000000
   51.434924    0.891876    0.891876    0.891877   -0.000000    0.000000    0.000000
   51.473366    0.892045    0.892045    0.892045   -0.000000    0.000000    0.000000
   51.511808    0.892213    0.892213    0.892213   -0.000000    0.000000    0.000000
   51.550249    0.892380    0.892380    0.892380   -0.000000    0.000000    0.000000
   51.588691    0.892547    0.892547    0.892547   -0.000000    0.000000    0.000000
   51.627132    0.892714    0.892714    0.892714   -0.000000    0.000000    0.000000
   51.665574    0.892880    0.892880    0.892880   -0.000000    0.000000    0.000000
   51.704016    0.893046    0.893046    0.893046   -0.000000    0.000000    0.000000
   51.742457    0.893212    0.893212    0.893212   -0.000000    0.000000    0.000000
   51.780899    0.893377    0.893377    0.893377   -0.000000    0.000000    0.000000
   51.819341    0.893542    0.893542    0.893542   -0.000000    0.000000    0.000000
   51.857782    0.893706    0.893706    0.893706   -0.000000    0.000000    0.000000
   51.896224    0.893870    0.893870    0.893870   -0.000000    0.000000    0.000000
   51.934666    0.894033    0.894033    0.894033   -0.000000    0.000000    0.000000
   51.973107    0.894197    0.894196    0.894197   -0.000000    0.000000    0.000000
   52.011549    0.894359    0.894359    0.894359   -0.000000    0.000000    0.000000
   52.049991    0.894522    0.894522    0.894522   -0.000000    0.000000    0.000000
   52.088432    0.894684    0.894684    0.894684   -0.000000    0.000000    0.000000
   52.126874    0.894845    0.894845    0.894845   -0.000000    0.000000    0.000000
   52.165316    0.895006    0.895006    0.895006   -0.000000    0.000000    0.000000
   52.203757    0.895167    0.895167    0.895167   -0.000000    0.000000    0.000000
   52.242199    0.895328    0.895328    0.895328   -0.000000    0.000000    0.000000
   52.280640    0.895488    0.895488    0.895488   -0.000000    0.000000    0.000000
   52.319082    0.895647    0.895647    0.895647   -0.000000    0.000000    0.000000
   52.357524    0.895807    0.895807    0.895807   -0.000000    0.000000    0.000000
   52.395965    0.895966    0.895966    0.895966   -0.000000    0.000000    0.000000
   52.434407    0.896124    0.896124    0.896124   -0.000000    0.000000    0.000000
   52.472849    0.896282    0.896282    0.896282   -0.000000    0.000000    0.000000
   52.511290    0.896440    0.896440    0.896440   -0.000000    0.000000    0.000000
   52.549732    0.896598    0.896598    0.896598   -0.000000    0.000000    0.000000
   52.588174    0.896755    0.896755    0.896755   -0.000000    0.000000    0.000000
   52.626615    0.896912    0.896911    0.896912   -0.000000    0.000000    0.000000
   52.665057    0.897068    0.897068    0.897068   -0.000000    0.000000    0.000000
   52.703499    0.897224    0.897224    0.897224   -0.000000    0.000000    0.000000
   52.741940    0.897379    0.897379    0.897379   -0.000000    0.000000    0.000000
   52.780382    0.897535    0.897535    0.897535   -0.000000    0.000000    0.000000
   52.818824    0.897690    0.897689    0.897690   -0.000000    0.000000    0.000000
   52.857265    0.897844    0.897844    0.897844   -0.000000    0.000000    0.000000
   52.895707    0.897998    0.897998    0.897998   -0.000000    0.000000    0.000000
   52.934148    0.898152    0.898152    0.898152   -0.000000    0.000000    0.000000
   52.972590    0.898305    0.898305    0.898306   -0.000000    0.000000    0.000000
   53.011032    0.898459    0.898458    0.898459   -0.000000    0.000000    0.000000
   53.049473    0.898611    0.898611    0.898611   -0.000000    0.000000    0.000000
   53.087915    0.898764    0.898764    0.898764   -0.000000    0.000000    0.000000
   53.126357    0.898916    0.898916    0.898916   -0.000000    0.000000    0.000000
   53.164798    0.899067    0.899067    0.899067   -0.000000    0.000000    0.000000
   53.203240    0.899219    0.899219    0.899219   -0.000000    0.000000    0.000000
   53.241682    0.899370    0.899370    0.899370   -0.000000    0.000000    0.000000
   53.280123    0.899520    0.899520    0.899520   -0.000000    0.000000    0.000000
   53.318565    0.899671    0.899671    0.899671   -0.000000    0.000000    0.000000
   53.357007    0.899821    0.899820    0.899821   -0.000000    0.000000    0.000000
   53.395448    0.899970    0.899970    0.899970   -0.000000    0.000000    0.000000
   53.433890    0.900119    0.900119    0.900119   -0.000000    0.000000    0.000000
   53.472332    0.900268    0.900268    0.900268   -0.000000    0.000000    0.000000
   53.510773    0.900417    0.900417    0.900417   -0.000000    0.000000    0.000000
   53.549215    0.900565    0.900565    0.900565   -0.000000    0.000000    0.000000
   53.587656    0.900713    0.900713    0.900713   -0.000000    0.000000    0.000000
   53.626098    0.900860    0.900860    0.900860   -0.000000    0.000000    0.000000
   53.664540    0.901008    0.901008    0.901008   -0.000000    0.000000    0.000000
   53.702981    0.901155    0.901154    0.901155   -0.000000    0.000000    0.000000
   53.741423    0.901301    0.901301    0.901301   -0.000000    0.000000    0.000000
   53.779865    0.901447    0.901447    0.901447   -0.000000    0.000000    0.000000
   53.818306    0.901593    0.901593    0.901593   -0.000000    0.000000    0.000000
   53.856748    0.901739    0.901739    0.901739   -0.000000    0.000000    0.000000
   53.895190    0.901884    0.901884    0.901884   -0.000000    0.000000    0.000000
   53.933631    0.902029    0.902029    0.902029   -0.000000    0.000000    0.000000
   53.972073    0.902173    0.902173    0.902173   -0.000000    0.000000    0.000000
   54.010515    0.902317    0.902317    0.902318   -0.000000    0.000000    0.000000
   54.048956    0.902461    0.902461    0.902461   -0.000000    0.000000    0.000000
   54.087398    0.902605    0.902605    0.902605   -0.000000    0.000000    0.000000
   54.125840    0.902748    0.902748    0.902748   -0.000000    0.000000    0.000000
   54.164281    0.902891    0.902891    0.902891   -0.000000    0.000000    0.000000
   54.202723    0.903034    0.903034    0.903034   -0.000000    0.000000    0.000000
   54.241165    0.903176    0.903176    0.903176   -0.000000    0.000000    0.000000
   54.279606    0.903318    0.903318    0.903318   -0.000000    0.000000    0.000000
   54.318048    0.903460    0.903459    0.903460   -0.000000    0.000000    0.000000
   54.356489    0.903601    0.903601    0.903601   -0.000000    0.000000    0.000000
   54.394931    0.903742    0.903742    0.903742   -0.000000    0.000000    0.000000
   54.433373    0.903883    0.903882    0.903883   -0.000000    0.000000    0.000000
   54.471814    0.904023    0.904023    0.904023   -0.000000    0.000000    0.000000
   54.510256    0.904163    0.904163    0.904163   -0.000000    0.000000    0.000000
   54.548698    0.904303    0.904303    0.904303   -0.000000    0.000000    0.000000
   54.587139    0.904442    0.904442    0.904442   -0.000000    0.000000    0.000000
   54.625581    0.904581    0.904581    0.904581   -0.000000    0.000000    0.000000
   54.664023    0.904720    0.904720    0.904720   -0.000000    0.000000    0.000000
   54.702464    0.904858    0.904858    0.904859   -0.000000    0.000000    0.000000
   54.740906    0.904997    0.904997    0.904997   -0.000000    0.000000    0.000000
   54.779348    0.905135    0.905134    0.905135   -0.000000    0.000000    0.000000
   54.817789    0.905272    0.905272    0.905272   -0.000000    0.000000    0.000000
   54.856231    0.905409    0.905409    0.905409   -0.000000    0.000000    0.000000
   54.894673    0.905546    0.905546    0.905546   -0.000000    0.000000    0.000000
   54.933114    0.905683    0.905683    0.905683   -0.000000    0.000000    0.000000
   54.971556    0.905819    0.905819    0.905819   -0.000000    0.000000    0.000000
   55.009997    0.905955    0.905955    0.905955   -0.000000    0.000000    0.000000
   55.048439    0.906091    0.906091    0.906091   -0.000000    0.000000    0.000000
   55.086881    0.906227    0.906226    0.906227   -0.000000    0.000000    0.000000
   55.125322    0.906362    0.906362    0.906362   -0.000000    0.000000    0.000000
   55.163764    0.906497    0.906496    0.906497   -0.000000    0.000000    0.000000
   55.202206    0.906631    0.906631    0.906631   -0.000000    0.000000    0.000000
   55.240647    0.906765    0.906765    0.906765   -0.000000    0.000000    0.000000
   55.279089    0.906899    0.906899    0.906899   -0.000000    0.000000    0.000000
   55.317531    0.907033    0.907033    0.907033   -0.000000    0.000000    0.000000
   55.355972    0.907166    0.907166    0.907166   -0.000000    0.000000    0.000000
   55.394414    0.907299    0.907299    0.907299   -0.000000    0.000000    0.000000
   55.432856    0.907432    0.907432    0.907432   -0.000000    0.000000    0.000000
   55.471297    0.907565    0.907565    0.907565   -0.000000    0.000000    0.000000
   55.509739    0.907697    0.907697    0.907697   -0.000000    0.000000    0.000000
   55.548181    0.907829    0.907829    0.907829   -0.000000    0.000000    0.000000
   55.586622    0.907960    0.907960    0.907960   -0.000000    0.000000    0.000000
   55.625064    0.908092    0.908092    0.908092   -0.000000    0.000000    0.000000
   55.663505    0.908223    0.908223    0.908223   -0.000000    0.000000    0.000000
   55.701947    0.908354    0.908354    0.908354   -0.000000    0.000000    0.000000
   55.740389    0.908484    0.908484    0.908484   -0.000000    0.000000    0.000000
   55.778830    0.908614    0.908614    0.908614   -0.000000    0.000000    0.000000
   55.817272    0.908744    0.908744    0.908744   -0.000000    0.000000    0.000000
   55.855714    0.908874    0.908874    0.908874   -0.000000    0.000000    0.000000
   55.894155    0.909003    0.909003    0.909003   -0.000000    0.000000    0.000000
 
 The outermost node in the dielectric function lies at epsilon=  19.3


--------------------------------------------------------------------------------------------------------


    OPTICS:  cpu time      0.4580: real time      0.4626
    4ORBIT:  cpu time      0.0000: real time      0.0000



 total charge

# of ion       s       p       d       tot
------------------------------------------
    1        0.759   0.959   0.000   1.718
    2        0.759   0.959   0.000   1.718
--------------------------------------------------
tot          1.518   1.918   0.000   3.436
 
 BZINTS: Fermi energy:    5.388489;    8.000000 electrons
         Band energy:-0.141143E+01;  BLOECHL correction:    0.000000

 total amount of memory used by VASP MPI-rank0    32351. kBytes
=======================================================================

   base      :      30000. kBytes
   nonl-proj :        267. kBytes
   fftplans  :        394. kBytes
   grid      :        463. kBytes
   one-center:          3. kBytes
   HF        :          4. kBytes
   nonlr-proj:        301. kBytes
   wavefun   :        138. kBytes
   fock_wrk  :        781. kBytes
 
  
  
 General timing and accounting informations for this job:
 ========================================================
  
                  Total CPU time used (sec):      173.962
                            User time (sec):      172.852
                          System time (sec):        1.109
                         Elapsed time (sec):      175.445
  
                   Maximum memory used (kb):      283776.
                   Average memory used (kb):          N/A
  
                          Minor page faults:        44237
                          Major page faults:            0
                 Voluntary context switches:         3734
