<?xml version="1.0" encoding="ISO-8859-1"?>
<modeling>
 <generator>
  <i name="program" type="string">vasp </i>
  <i name="version" type="string">6.4.2  </i>
  <i name="subversion" type="string">20Jul23 (build Mar 15 2024 16:31:38) complex                          parallel </i>
  <i name="platform" type="string">LinuxIFC </i>
  <i name="date" type="string">2025 03 05 </i>
  <i name="time" type="string">13:47:31 </i>
 </generator>
 <incar>
  <i type="string" name="PREC">Accurate</i>
  <i type="string" name="ALGO">Normal</i>
  <i type="int" name="ISPIN">     1</i>
  <i type="int" name="NELM">   200</i>
  <i type="int" name="NELMIN">     5</i>
  <i name="EDIFF">      0.00001000</i>
  <i type="int" name="NSW">     0</i>
  <i name="ENCUT">    680.00000000</i>
  <i name="ENAUG">   1360.00000000</i>
  <i type="int" name="NBANDS">    15</i>
  <i type="int" name="NEDOS">  1455</i>
  <i type="logical" name="LREAL"> F  </i>
  <i type="int" name="ISMEAR">    -5</i>
  <i name="SIGMA">      0.05000000</i>
  <i type="logical" name="LWAVE"> T  </i>
  <i type="logical" name="LCHARG"> T  </i>
  <i type="logical" name="LVTOT"> T  </i>
  <i type="int" name="LORBIT">    11</i>
  <i type="logical" name="LELF"> F  </i>
  <i type="logical" name="LOPTICS"> T  </i>
  <i type="logical" name="LASPH"> T  </i>
  <i type="logical" name="LAECHG"> T  </i>
  <i name="CSHIFT">      0.00001000</i>
  <i name="HFSCREEN">      0.20000000</i>
  <i type="logical" name="LHFCALC"> T  </i>
  <i type="string" name="GGA">Pe</i>
  <i type="string" name="PRECFOCK">Fast</i>
  <i type="logical" name="LDAU"> F  </i>
  <i type="logical" name="LMIXTAU"> T  </i>
 </incar>
 <primitive_cell>
  <structure name="primitive_cell" >
   <crystal>
    <varray name="basis" >
     <v>       3.33357300       0.00000000       1.92463900 </v>
     <v>       1.11119100       3.14292400       1.92463900 </v>
     <v>       0.00000000       0.00000000       3.84927800 </v>
    </varray>
    <i name="volume">     40.32952680 </i>
    <varray name="rec_basis" >
     <v>       0.29997843      -0.10605835       0.00000000 </v>
     <v>       0.00000000       0.31817505       0.00000000 </v>
     <v>      -0.14998922      -0.10605835       0.25978898 </v>
    </varray>
   </crystal>
   <varray name="positions" >
    <v>       0.87500000       0.87500000       0.87500000 </v>
    <v>       0.12500000       0.12500000       0.12500000 </v>
   </varray>
  </structure>
  <varray name="primitive_index" >
   <v type="int" >        1 </v>
   <v type="int" >        2 </v>
  </varray>
 </primitive_cell>
 <kpoints>
  <generation param="Gamma">
   <v type="int" name="divisions">       7        7        7 </v>
   <v name="usershift">      0.00000000       0.00000000       0.00000000 </v>
   <v name="genvec1">      0.14285714       0.00000000       0.00000000 </v>
   <v name="genvec2">      0.00000000       0.14285714       0.00000000 </v>
   <v name="genvec3">      0.00000000       0.00000000       0.14285714 </v>
   <v name="shift">      0.00000000       0.00000000       0.00000000 </v>
  </generation>
  <varray name="kpointlist" >
   <v>       0.00000000       0.00000000       0.00000000 </v>
   <v>       0.14285714      -0.00000000       0.00000000 </v>
   <v>       0.28571429      -0.00000000       0.00000000 </v>
   <v>       0.42857143      -0.00000000       0.00000000 </v>
   <v>       0.14285714       0.14285714       0.00000000 </v>
   <v>       0.28571429       0.14285714       0.00000000 </v>
   <v>       0.42857143       0.14285714       0.00000000 </v>
   <v>      -0.42857143       0.14285714       0.00000000 </v>
   <v>      -0.28571429       0.14285714       0.00000000 </v>
   <v>      -0.14285714       0.14285714       0.00000000 </v>
   <v>       0.28571429       0.28571429       0.00000000 </v>
   <v>       0.42857143       0.28571429       0.00000000 </v>
   <v>      -0.42857143       0.28571429       0.00000000 </v>
   <v>      -0.28571429       0.28571429       0.00000000 </v>
   <v>       0.42857143       0.42857143       0.00000000 </v>
   <v>      -0.42857143       0.42857143       0.00000000 </v>
   <v>       0.42857143       0.28571429       0.14285714 </v>
   <v>      -0.42857143       0.28571429       0.14285714 </v>
   <v>      -0.42857143       0.42857143       0.14285714 </v>
   <v>      -0.28571429       0.42857143       0.14285714 </v>
  </varray>
  <varray name="weights" >
   <v>       0.00291545 </v>
   <v>       0.02332362 </v>
   <v>       0.02332362 </v>
   <v>       0.02332362 </v>
   <v>       0.01749271 </v>
   <v>       0.06997085 </v>
   <v>       0.06997085 </v>
   <v>       0.06997085 </v>
   <v>       0.06997085 </v>
   <v>       0.03498542 </v>
   <v>       0.01749271 </v>
   <v>       0.06997085 </v>
   <v>       0.06997085 </v>
   <v>       0.03498542 </v>
   <v>       0.01749271 </v>
   <v>       0.03498542 </v>
   <v>       0.06997085 </v>
   <v>       0.13994169 </v>
   <v>       0.06997085 </v>
   <v>       0.06997085 </v>
  </varray>
  <varray name="tetrahedronlist"  type="int" >
   <v type="int" >       48        2        3        6       10 </v>
   <v type="int" >       48        6        9       10       17 </v>
   <v type="int" >       24        9        9       10       17 </v>
   <v type="int" >       48        3        6        9       10 </v>
   <v type="int" >       48        9       14       17       18 </v>
   <v type="int" >       48        8        9       14       18 </v>
   <v type="int" >       24        9        9       14       17 </v>
   <v type="int" >       48        8       13       18       18 </v>
   <v type="int" >       48        7        8       13       18 </v>
   <v type="int" >       48        8       13       14       18 </v>
   <v type="int" >       48        7       12       17       18 </v>
   <v type="int" >       48        6        7       12       17 </v>
   <v type="int" >       48        7       12       13       18 </v>
   <v type="int" >       24        6        6       11       17 </v>
   <v type="int" >       24        5        6        6       11 </v>
   <v type="int" >       48        6       11       12       17 </v>
   <v type="int" >       24        5        6        6       10 </v>
   <v type="int" >       48        2        5        6       10 </v>
   <v type="int" >       48        6        7        9       17 </v>
   <v type="int" >       48        3        6        7        9 </v>
   <v type="int" >       48       12       17       18       19 </v>
   <v type="int" >       24       17       18       18       19 </v>
   <v type="int" >       24       14       17       18       18 </v>
   <v type="int" >       48        7        9       17       18 </v>
   <v type="int" >       48       18       19       20       20 </v>
   <v type="int" >       24       18       18       20       20 </v>
   <v type="int" >       48       13       18       18       20 </v>
   <v type="int" >       24       18       18       19       20 </v>
   <v type="int" >       24       14       18       18       20 </v>
   <v type="int" >       48       13       14       18       20 </v>
   <v type="int" >       48       13       18       19       20 </v>
   <v type="int" >       48       12       13       18       19 </v>
   <v type="int" >       24       12       12       17       19 </v>
   <v type="int" >       24       11       12       12       17 </v>
   <v type="int" >       24        6        6       10       17 </v>
   <v type="int" >       48       12       13       16       19 </v>
   <v type="int" >       24       16       19       19       20 </v>
   <v type="int" >       12       19       19       20       20 </v>
   <v type="int" >       24       19       20       20       20 </v>
   <v type="int" >       48       13       16       19       20 </v>
   <v type="int" >        6       20       20       20       20 </v>
   <v type="int" >       48        7        8        8       18 </v>
   <v type="int" >       48        7        8        9       18 </v>
   <v type="int" >       24       13       13       16       20 </v>
   <v type="int" >       24        8        8       18       18 </v>
   <v type="int" >       24        2        2        5       10 </v>
   <v type="int" >       48        3        4        7        9 </v>
   <v type="int" >       48        4        7        8        9 </v>
   <v type="int" >       24       13       13       14       20 </v>
   <v type="int" >       24       12       12       15       19 </v>
   <v type="int" >       24       11       12       12       15 </v>
   <v type="int" >       48       12       15       16       19 </v>
   <v type="int" >       48        4        7        8        8 </v>
   <v type="int" >       12       16       16       19       19 </v>
   <v type="int" >       24       15       16       16       19 </v>
   <v type="int" >       24        4        4        8        8 </v>
   <v type="int" >       12       15       15       16       16 </v>
   <v type="int" >       24        1        2        2        5 </v>
  </varray>
  <i name="volumeweight">      0.00048591 </i>
 </kpoints>
 <parameters>
  <separator name="general" >
   <i type="string" name="SYSTEM">unknown system</i>
   <i type="logical" name="LCOMPAT"> F  </i>
  </separator>
  <separator name="electronic" >
   <i type="string" name="PREC">accura</i>
   <i name="ENMAX">    680.00000000</i>
   <i name="ENAUG">   1360.00000000</i>
   <i name="EDIFF">      0.00001000</i>
   <i type="int" name="IALGO">    38</i>
   <i type="int" name="IWAVPR">    10</i>
   <i type="int" name="NBANDS">    24</i>
   <i type="int" name="NBANDSLOW">    -1</i>
   <i type="int" name="NBANDSHIGH">    -1</i>
   <i name="NELECT">      8.00000000</i>
   <i type="int" name="TURBO">     0</i>
   <i type="int" name="IRESTART">     0</i>
   <i type="int" name="NREBOOT">     0</i>
   <i type="int" name="NMIN">     0</i>
   <i name="EREF">      0.00000000</i>
   <separator name="electronic smearing" >
    <i type="int" name="ISMEAR">    -5</i>
    <i name="SIGMA">      0.05000000</i>
    <i name="KSPACING">      0.50000000</i>
    <i type="logical" name="KGAMMA"> T  </i>
    <i type="logical" name="KBLOWUP"> T  </i>
   </separator>
   <separator name="electronic projectors" >
    <i type="logical" name="LREAL"> F  </i>
    <v name="ROPT">      0.00000000</v>
    <i type="int" name="LMAXPAW">  -100</i>
    <i type="int" name="LMAXMIX">     2</i>
    <i type="logical" name="NLSPLINE"> F  </i>
   </separator>
   <separator name="electronic startup" >
    <i type="int" name="ISTART">     0</i>
    <i type="int" name="ICHARG">     2</i>
    <i type="int" name="INIWAV">     1</i>
   </separator>
   <separator name="electronic spin" >
    <i type="int" name="ISPIN">     1</i>
    <i type="logical" name="LNONCOLLINEAR"> F  </i>
    <v name="MAGMOM">      1.00000000      1.00000000</v>
    <i name="NUPDOWN">     -1.00000000</i>
    <i type="logical" name="LSORBIT"> F  </i>
    <v name="SAXIS">      0.00000000      0.00000000      1.00000000</v>
    <i type="logical" name="LSPIRAL"> F  </i>
    <v name="QSPIRAL">      0.00000000      0.00000000      0.00000000</v>
    <i type="logical" name="LZEROZ"> F  </i>
   </separator>
   <separator name="electronic exchange-correlation" >
    <i type="logical" name="LASPH"> T  </i>
    <i type="logical" name="LMETAGGA"> F  </i>
   </separator>
   <separator name="electronic convergence" >
    <i type="int" name="NELM">   200</i>
    <i type="int" name="NELMDL">    -5</i>
    <i type="int" name="NELMIN">     5</i>
    <i name="ENINI">    680.00000000</i>
    <separator name="electronic convergence detail" >
     <i type="logical" name="LDIAG"> T  </i>
     <i type="logical" name="LSUBROT"> F  </i>
     <i name="WEIMIN">      0.00000000</i>
     <i name="EBREAK">      0.00000010</i>
     <i name="DEPER">      0.30000000</i>
     <i type="int" name="NRMM">     4</i>
     <i name="TIME">      0.40000000</i>
    </separator>
   </separator>
   <separator name="electronic mixer" >
    <i name="AMIX">      0.40000000</i>
    <i name="BMIX">      1.00000000</i>
    <i name="AMIN">      0.10000000</i>
    <i name="AMIX_MAG">      1.60000000</i>
    <i name="BMIX_MAG">      1.00000000</i>
    <separator name="electronic mixer details" >
     <i type="int" name="IMIX">     1</i>
     <i type="logical" name="MIXFIRST"> F  </i>
     <i type="int" name="MAXMIX">   -45</i>
     <i name="WC">    100.00000000</i>
     <i type="int" name="INIMIX">     1</i>
     <i type="int" name="MIXPRE">     1</i>
     <i type="int" name="MREMOVE">     5</i>
    </separator>
   </separator>
   <separator name="electronic dipolcorrection" >
    <i type="logical" name="LDIPOL"> F  </i>
    <i type="logical" name="LMONO"> F  </i>
    <i type="int" name="IDIPOL">     0</i>
    <i name="EPSILON">      1.00000000</i>
    <v name="DIPOL">   -100.00000000   -100.00000000   -100.00000000</v>
    <i name="EFIELD">      0.00000000</i>
   </separator>
  </separator>
  <separator name="grids" >
   <i type="int" name="NGX">    36</i>
   <i type="int" name="NGY">    36</i>
   <i type="int" name="NGZ">    36</i>
   <i type="int" name="NGXF">    72</i>
   <i type="int" name="NGYF">    72</i>
   <i type="int" name="NGZF">    72</i>
   <i type="logical" name="ADDGRID"> F  </i>
  </separator>
  <separator name="ionic" >
   <i type="int" name="NSW">     0</i>
   <i type="int" name="IBRION">    -1</i>
   <i type="int" name="MDALGO">     0</i>
   <i type="int" name="ISIF">     0</i>
   <i name="PSTRESS">      0.00000000</i>
   <i name="EDIFFG">      0.00010000</i>
   <i type="int" name="NFREE">     0</i>
   <i name="POTIM">      0.50000000</i>
   <i name="SMASS">     -3.00000000</i>
   <i name="SCALEE">      1.00000000</i>
  </separator>
  <separator name="ionic md" >
   <i name="TEBEG">      0.00010000</i>
   <i name="TEEND">      0.00010000</i>
   <i type="int" name="NBLOCK">     1</i>
   <i type="int" name="KBLOCK">     1</i>
   <i type="int" name="NPACO">   256</i>
   <i name="APACO">     10.00000000</i>
  </separator>
  <separator name="symmetry" >
   <i type="int" name="ISYM">     3</i>
   <i name="SYMPREC">      0.00001000</i>
  </separator>
  <separator name="dos" >
   <i type="int" name="LORBIT">    11</i>
   <v name="RWIGS">     -1.00000000</v>
   <i type="int" name="NEDOS">  1455</i>
   <i name="EMIN">     10.00000000</i>
   <i name="EMAX">    -10.00000000</i>
   <i name="EFERMI">      0.00000000</i>
  </separator>
  <separator name="writing" >
   <i type="int" name="NWRITE">     2</i>
   <i type="logical" name="LWAVE"> T  </i>
   <i type="logical" name="LDOWNSAMPLE"> F  </i>
   <i type="logical" name="LCHARG"> T  </i>
   <i type="logical" name="LPARD"> F  </i>
   <i type="logical" name="LVTOT"> T  </i>
   <i type="logical" name="LVHAR"> F  </i>
   <i type="logical" name="LELF"> F  </i>
   <i type="logical" name="LOPTICS"> T  </i>
   <v name="STM">      0.00000000      0.00000000      0.00000000      0.00000000      0.00000000      0.00000000      0.00000000</v>
  </separator>
  <separator name="performance" >
   <i type="int" name="NPAR">    12</i>
   <i type="int" name="NSIM">     4</i>
   <i type="int" name="NBLK">    -1</i>
   <i type="logical" name="LPLANE"> T  </i>
   <i type="logical" name="LSCALAPACK"> T  </i>
   <i type="logical" name="LSCAAWARE"> T  </i>
   <i type="logical" name="LSCALU"> F  </i>
   <i type="logical" name="LASYNC"> F  </i>
   <i type="logical" name="LORBITALREAL"> F  </i>
  </separator>
  <separator name="miscellaneous" >
   <i type="int" name="IDIOT">     3</i>
   <i type="int" name="PHON_NSTRUCT">    -1</i>
   <i type="logical" name="LMUSIC"> F  </i>
   <v name="POMASS">     28.08500000</v>
   <v name="DARWINR">      0.00000000</v>
   <v name="DARWINV">      1.00000000</v>
   <i type="logical" name="LCORR"> T  </i>
  </separator>
  <i type="logical" name="GGA_COMPAT"> T  </i>
  <i type="logical" name="LBERRY"> F  </i>
  <i type="int" name="ICORELEVEL">     0</i>
  <i type="logical" name="LDAU"> F  </i>
  <i type="int" name="I_CONSTRAINED_M">     0</i>
  <separator name="electronic exchange-correlation" >
   <i type="string" name="GGA">PE</i>
   <i type="int" name="VOSKOWN">     0</i>
   <i type="logical" name="LHFCALC"> T  </i>
   <i type="string" name="PRECFOCK">fast</i>
   <i type="logical" name="LSYMGRAD"> F  </i>
   <i type="logical" name="LHFONE"> F  </i>
   <i type="logical" name="LRHFCALC"> F  </i>
   <i type="logical" name="LTHOMAS"> F  </i>
   <i type="logical" name="LMODELHF"> F  </i>
   <i type="logical" name="LFOCKACE"> T  </i>
   <i name="ENCUT4O">     -1.00000000</i>
   <i type="int" name="EXXOEP">     0</i>
   <i type="int" name="FOURORBIT">     0</i>
   <i name="AEXX">      0.25000000</i>
   <i name="HFALPHA">     -1.00000000</i>
   <i name="MCALPHA">      0.00000000</i>
   <i name="ALDAX">      0.75000000</i>
   <i name="AGGAX">      0.75000000</i>
   <i name="ALDAC">      1.00000000</i>
   <i name="AGGAC">      1.00000000</i>
   <i type="int" name="NKREDX">     1</i>
   <i type="int" name="NKREDY">     1</i>
   <i type="int" name="NKREDZ">     1</i>
   <i type="logical" name="SHIFTRED"> F  </i>
   <i type="logical" name="ODDONLY"> F  </i>
   <i type="logical" name="EVENONLY"> F  </i>
   <i type="int" name="LMAXFOCK">     4</i>
   <i type="int" name="NMAXFOCKAE">     1</i>
   <i type="logical" name="LFOCKAEDFT"> F  </i>
   <i name="HFSCREEN">      0.20000000</i>
   <i name="HFSCREENC">      0.20000000</i>
   <i type="int" name="NBANDSGWLOW">     1</i>
  </separator>
  <separator name="vdW DFT" >
   <i type="logical" name="LUSE_VDW"> F  </i>
   <i type="int" name="IVDW_NL">     1</i>
   <i type="logical" name="LSPIN_VDW"> F  </i>
   <i name="Zab_VDW">     -0.84910000</i>
   <i name="PARAM1">      0.12340000</i>
   <i name="PARAM2">      1.00000000</i>
   <i name="PARAM3">      0.00000000</i>
  </separator>
  <separator name="model GW" >
   <i type="int" name="MODEL_GW">     0</i>
   <i name="MODEL_EPS0">     12.09885804</i>
   <i name="MODEL_ALPHA">      1.00000000</i>
  </separator>
  <separator name="linear response parameters" >
   <i type="logical" name="LEPSILON"> F  </i>
   <i type="logical" name="LRPA"> F  </i>
   <i type="logical" name="LNABLA"> F  </i>
   <i type="logical" name="LVEL"> F  </i>
   <i name="CSHIFT">      0.00001000</i>
   <i name="OMEGAMAX">     -1.00000000</i>
   <i name="DEG_THRESHOLD">      0.00200000</i>
   <i name="RTIME">     -0.10000000</i>
   <i name="WPLASMAI">      0.00000000</i>
   <v name="DFIELD">      0.00000000      0.00000000      0.00000000</v>
   <v name="WPLASMA">      0.00000000      0.00000000      0.00000000      0.00000000      0.00000000      0.00000000      0.00000000      0.00000000      0.00000000</v>
  </separator>
  <separator name="orbital magnetization" >
   <i type="logical" name="NUCIND"> F  </i>
   <v name="MAGPOS">      0.00000000      0.00000000      0.00000000</v>
   <i type="logical" name="LNICSALL"> T  </i>
   <i type="logical" name="ORBITALMAG"> F  </i>
   <i type="logical" name="LMAGBLOCH"> F  </i>
   <i type="logical" name="LCHIMAG"> F  </i>
   <i type="logical" name="LGAUGE"> T  </i>
   <i type="int" name="MAGATOM">     0</i>
   <v name="MAGDIPOL">      0.00000000      0.00000000      0.00000000</v>
   <v name="AVECCONST">      0.00000000      0.00000000      0.00000000</v>
  </separator>
  <separator name="response functions" >
   <i type="logical" name="LALL_IN_ONE"> F  </i>
   <i type="int" name="IALL_IN_ONE">    -1</i>
   <i type="int" name="NBANDS_WAVE">    -1</i>
   <i type="logical" name="LFINITE_TEMPERATURE"> F  </i>
   <i type="logical" name="LADDER"> F  </i>
   <i type="logical" name="LRPAFORCE"> F  </i>
   <i type="logical" name="LFXC"> F  </i>
   <i type="logical" name="LHARTREE"> T  </i>
   <i type="int" name="IBSE">     0</i>
   <v type="int" name="KPOINT">    -1     0     0     0</v>
   <i type="logical" name="LTCTC"> F  </i>
   <i type="logical" name="LTCTE"> F  </i>
   <i type="logical" name="LTETE"> F  </i>
   <i type="logical" name="LTRIPLET"> F  </i>
   <i type="logical" name="LFXCEPS"> F  </i>
   <i type="logical" name="LFXHEG"> F  </i>
   <i type="int" name="NATURALO">     2</i>
   <i type="logical" name="LHOLEGF"> F  </i>
   <i type="logical" name="L2ORDER"> F  </i>
   <i type="logical" name="LDMP1"> F  </i>
   <i type="logical" name="LMP2LT"> F  </i>
   <i type="logical" name="LSMP2LT"> F  </i>
   <i type="logical" name="LGWLF"> F  </i>
   <i name="ENCUTGW">     -1.60000002</i>
   <i name="ENCUTGWSOFT">     -1.60000002</i>
   <i name="ENCUTLF">     -1.00000000</i>
   <i type="logical" name="LESF_SPLINES"> F  </i>
   <i type="int" name="LMAXMP2">    -1</i>
   <i name="SCISSOR">      0.00000000</i>
   <i type="int" name="NOMEGA">     0</i>
   <i type="int" name="NOMEGAR">     0</i>
   <i type="int" name="NBANDSGW">    -1</i>
   <i type="int" name="NBANDSO">    -1</i>
   <i type="int" name="NBANDSV">    -1</i>
   <i type="int" name="NELMGW">     1</i>
   <i type="int" name="NELMHF">     1</i>
   <i type="int" name="DIM">     3</i>
   <i type="int" name="IESPILON">     4</i>
   <i type="int" name="ANTIRES">     0</i>
   <i name="OMEGAMAX">    -30.00000000</i>
   <i name="OMEGAMIN">    -30.00000000</i>
   <i name="OMEGATL">   -200.00000000</i>
   <i type="int" name="OMEGAGRID">     0</i>
   <i name="CSHIFT">      0.00001000</i>
   <i type="logical" name="LSELFENERGY"> F  </i>
   <i type="logical" name="LSPECTRAL"> F  </i>
   <i type="logical" name="LSPECTRALGW"> F  </i>
   <i type="logical" name="LSINGLES"> F  </i>
   <i type="logical" name="LFERMIGW"> F  </i>
   <i type="logical" name="ODDONLYGW"> F  </i>
   <i type="logical" name="EVENONLYGW"> F  </i>
   <i type="int" name="NKREDLFX">     1</i>
   <i type="int" name="NKREDLFY">     1</i>
   <i type="int" name="NKREDLFZ">     1</i>
   <i type="int" name="MAXMEM">  2800</i>
   <i type="int" name="TELESCOPE">     0</i>
   <i type="int" name="NTAUPAR">    -1</i>
   <i type="int" name="NOMEGAPAR">    -1</i>
   <i name="DAMP_NEWTON">      0.80000001</i>
   <i name="LAMBDA">      1.00000000</i>
  </separator>
  <separator name="External order field" >
   <i name="OFIELD_KAPPA">      0.00000000</i>
   <v name="OFIELD_K">      0.00000000      0.00000000      0.00000000</v>
   <i name="OFIELD_Q6_NEAR">      0.00000000</i>
   <i name="OFIELD_Q6_FAR">      0.00000000</i>
   <i name="OFIELD_A">      0.00000000</i>
  </separator>
  <separator name="optional k-points parameters" >
   <i type="int" name="KPOINTS_OPT_MODE">     1</i>
   <i type="logical" name="LKPOINTS_OPT"> F  </i>
  </separator>
 </parameters>
 <atominfo>
  <atoms>       2 </atoms>
  <types>       1 </types>
  <array name="atoms" >
   <dimension dim="1">ion</dimension>
   <field type="string">element</field>
   <field type="int">atomtype</field>
   <set>
    <rc><c>Si</c><c>   1</c></rc>
    <rc><c>Si</c><c>   1</c></rc>
   </set>
  </array>
  <array name="atomtypes" >
   <dimension dim="1">type</dimension>
   <field type="int">atomspertype</field>
   <field type="string">element</field>
   <field>mass</field>
   <field>valence</field>
   <field type="string">pseudopotential</field>
   <set>
    <rc><c>   2</c><c>Si</c><c>     28.08500000</c><c>      4.00000000</c><c>  PAW_PBE Si 05Jan2001                  </c></rc>
   </set>
  </array>
 </atominfo>
 <structure name="initialpos" >
  <crystal>
   <varray name="basis" >
    <v>       3.33357300       0.00000000       1.92463900 </v>
    <v>       1.11119100       3.14292400       1.92463900 </v>
    <v>       0.00000000       0.00000000       3.84927800 </v>
   </varray>
   <i name="volume">     40.32952680 </i>
   <varray name="rec_basis" >
    <v>       0.29997843      -0.10605835       0.00000000 </v>
    <v>       0.00000000       0.31817505       0.00000000 </v>
    <v>      -0.14998922      -0.10605835       0.25978898 </v>
   </varray>
  </crystal>
  <varray name="positions" >
   <v>       0.87500000       0.87500000       0.87500000 </v>
   <v>       0.12500000       0.12500000       0.12500000 </v>
  </varray>
 </structure>
 <calculation>
  <scstep>
   <time name="dav">    0.17    0.18</time>
   <time name="total">    0.24    0.24</time>
   <energy>
    <i name="alphaZ">      3.33880742 </i>
    <i name="ewald">   -227.98820653 </i>
    <i name="hartreedc">    -11.11484529 </i>
    <i name="XCdc">    -18.63153738 </i>
    <i name="pawpsdc">    176.24759923 </i>
    <i name="pawaedc">   -391.65626926 </i>
    <i name="eentropy">      0.00000000 </i>
    <i name="bandstr">     16.62057290 </i>
    <i name="atom">    203.99906502 </i>
    <i name="e_fr_energy">   -249.18481390 </i>
    <i name="e_wo_entrp">   -249.18481390 </i>
    <i name="e_0_energy">   -249.18481390 </i>
   </energy>
  </scstep>
  <scstep>
   <time name="dav">    0.17    0.18</time>
   <time name="total">    0.18    0.18</time>
   <energy>
    <i name="e_fr_energy">   -267.12581090 </i>
    <i name="e_wo_entrp">   -267.12581090 </i>
    <i name="e_0_energy">   -267.12581090 </i>
   </energy>
  </scstep>
  <scstep>
   <time name="dav">    0.14    0.16</time>
   <time name="total">    0.14    0.16</time>
   <energy>
    <i name="e_fr_energy">   -267.48025296 </i>
    <i name="e_wo_entrp">   -267.48025296 </i>
    <i name="e_0_energy">   -267.48025296 </i>
   </energy>
  </scstep>
  <scstep>
   <time name="dav">    0.15    0.17</time>
   <time name="total">    0.15    0.17</time>
   <energy>
    <i name="e_fr_energy">   -267.48142713 </i>
    <i name="e_wo_entrp">   -267.48142713 </i>
    <i name="e_0_energy">   -267.48142713 </i>
   </energy>
  </scstep>
  <scstep>
   <time name="dav">   13.05   13.08</time>
   <time name="total">   13.22   13.27</time>
   <energy>
    <i name="e_fr_energy">    -12.94153427 </i>
    <i name="e_wo_entrp">    -12.94153427 </i>
    <i name="e_0_energy">    -12.94153427 </i>
   </energy>
  </scstep>
  <scstep>
   <time name="dav">   13.84   13.87</time>
   <time name="total">   14.00   14.05</time>
   <energy>
    <i name="e_fr_energy">    -12.68702157 </i>
    <i name="e_wo_entrp">    -12.68702157 </i>
    <i name="e_0_energy">    -12.68702157 </i>
   </energy>
  </scstep>
  <scstep>
   <time name="dav">   13.03   13.06</time>
   <time name="total">   13.19   13.24</time>
   <energy>
    <i name="e_fr_energy">    -12.60688807 </i>
    <i name="e_wo_entrp">    -12.60688807 </i>
    <i name="e_0_energy">    -12.60688807 </i>
   </energy>
  </scstep>
  <scstep>
   <time name="dav">   13.01   13.05</time>
   <time name="total">   13.18   13.23</time>
   <energy>
    <i name="e_fr_energy">    -12.58615499 </i>
    <i name="e_wo_entrp">    -12.58615499 </i>
    <i name="e_0_energy">    -12.58615499 </i>
   </energy>
  </scstep>
  <scstep>
   <time name="dav">   13.92   13.95</time>
   <time name="total">   14.09   14.14</time>
   <energy>
    <i name="e_fr_energy">    -12.58091747 </i>
    <i name="e_wo_entrp">    -12.58091747 </i>
    <i name="e_0_energy">    -12.58091747 </i>
   </energy>
  </scstep>
  <scstep>
   <time name="dav">   13.02   13.05</time>
   <time name="total">   13.19   13.24</time>
   <energy>
    <i name="e_fr_energy">    -12.57961315 </i>
    <i name="e_wo_entrp">    -12.57961315 </i>
    <i name="e_0_energy">    -12.57961315 </i>
   </energy>
  </scstep>
  <scstep>
   <time name="dav">   13.00   13.04</time>
   <time name="total">   13.17   13.22</time>
   <energy>
    <i name="e_fr_energy">    -12.57932253 </i>
    <i name="e_wo_entrp">    -12.57932253 </i>
    <i name="e_0_energy">    -12.57932253 </i>
   </energy>
  </scstep>
  <scstep>
   <time name="dav">   13.90   13.93</time>
   <time name="total">   14.06   14.12</time>
   <energy>
    <i name="e_fr_energy">    -12.57927999 </i>
    <i name="e_wo_entrp">    -12.57927999 </i>
    <i name="e_0_energy">    -12.57927999 </i>
   </energy>
  </scstep>
  <scstep>
   <time name="dav">   13.01   13.04</time>
   <time name="total">   13.14   13.19</time>
   <energy>
    <i name="alphaZ">      3.33880742 </i>
    <i name="ewald">   -227.98820653 </i>
    <i name="hartreedc">    -15.02790123 </i>
    <i name="XCdc">    -14.40415957 </i>
    <i name="pawpsdc">   1647.11955957 </i>
    <i name="pawaedc">  -1619.48031857 </i>
    <i name="eentropy">      0.00000000 </i>
    <i name="bandstr">     -1.41142728 </i>
    <i name="atom">    203.99906502 </i>
    <i name="e_fr_energy">    -12.57928938 </i>
    <i name="e_wo_entrp">    -12.57928938 </i>
    <i name="e_0_energy">    -12.57928938 </i>
   </energy>
  </scstep>
  <structure>
   <crystal>
    <varray name="basis" >
     <v>       3.33357300       0.00000000       1.92463900 </v>
     <v>       1.11119100       3.14292400       1.92463900 </v>
     <v>       0.00000000       0.00000000       3.84927800 </v>
    </varray>
    <i name="volume">     40.32952680 </i>
    <varray name="rec_basis" >
     <v>       0.29997843      -0.10605835       0.00000000 </v>
     <v>       0.00000000       0.31817505       0.00000000 </v>
     <v>      -0.14998922      -0.10605835       0.25978898 </v>
    </varray>
   </crystal>
   <varray name="positions" >
    <v>       0.87500000       0.87500000       0.87500000 </v>
    <v>       0.12500000       0.12500000       0.12500000 </v>
   </varray>
  </structure>
  <varray name="forces" >
   <v>       0.00000000      -0.00000000       0.00000000 </v>
   <v>      -0.00000000       0.00000000      -0.00000000 </v>
  </varray>
  <energy>
   <i name="e_fr_energy">    -12.57928938 </i>
   <i name="e_wo_entrp">    -12.57928938 </i>
   <i name="e_0_energy">    -12.57928938 </i>
  </energy>
  <time name="totalsc">  126.01  126.56</time>
  <eigenvalues>
   <array>
    <dimension dim="1">band</dimension>
    <dimension dim="2">kpoint</dimension>
    <dimension dim="3">spin</dimension>
    <field>eigene</field>
    <field>occ</field>
    <set>
     <set comment="spin 1">
      <set comment="kpoint 1">
       <r>   -7.8579    1.0000 </r>
       <r>    5.3871    1.0000 </r>
       <r>    5.3871    1.0000 </r>
       <r>    5.3871    1.0000 </r>
       <r>    8.7286    0.0000 </r>
       <r>    8.7286    0.0000 </r>
       <r>    8.7286    0.0000 </r>
       <r>    9.6375    0.0000 </r>
       <r>   14.1582    0.0000 </r>
       <r>   14.1902    0.0000 </r>
       <r>   14.1902    0.0000 </r>
       <r>   17.7114    0.0000 </r>
       <r>   17.7114    0.0000 </r>
       <r>   17.7114    0.0000 </r>
       <r>   21.6189    0.0000 </r>
       <r>   30.0715    0.0000 </r>
       <r>   30.0715    0.0000 </r>
       <r>   30.0715    0.0000 </r>
       <r>   31.3633    0.0000 </r>
       <r>   31.3633    0.0000 </r>
       <r>   32.8724    0.0000 </r>
       <r>   32.8724    0.0000 </r>
       <r>   32.8724    0.0000 </r>
       <r>   36.0997    0.0000 </r>
      </set>
      <set comment="kpoint 2">
       <r>   -7.5646    1.0000 </r>
       <r>    3.3296    1.0000 </r>
       <r>    5.0167    1.0000 </r>
       <r>    5.0167    1.0000 </r>
       <r>    8.5868    0.0000 </r>
       <r>    9.2776    0.0000 </r>
       <r>    9.2776    0.0000 </r>
       <r>   11.3419    0.0000 </r>
       <r>   13.5722    0.0000 </r>
       <r>   13.5722    0.0000 </r>
       <r>   15.1930    0.0000 </r>
       <r>   17.0228    0.0000 </r>
       <r>   19.2678    0.0000 </r>
       <r>   19.2678    0.0000 </r>
       <r>   23.2738    0.0000 </r>
       <r>   27.5018    0.0000 </r>
       <r>   27.5018    0.0000 </r>
       <r>   27.9458    0.0000 </r>
       <r>   30.9660    0.0000 </r>
       <r>   30.9661    0.0000 </r>
       <r>   33.4629    0.0000 </r>
       <r>   33.4629    0.0000 </r>
       <r>   34.5711    0.0000 </r>
       <r>   36.3484    0.0000 </r>
      </set>
      <set comment="kpoint 3">
       <r>   -6.7181    1.0000 </r>
       <r>    0.4066    1.0000 </r>
       <r>    4.4511    1.0000 </r>
       <r>    4.4511    1.0000 </r>
       <r>    8.0092    0.0000 </r>
       <r>    9.7618    0.0000 </r>
       <r>    9.7618    0.0000 </r>
       <r>   13.8884    0.0000 </r>
       <r>   13.8884    0.0000 </r>
       <r>   13.8925    0.0000 </r>
       <r>   15.2122    0.0000 </r>
       <r>   19.1199    0.0000 </r>
       <r>   21.8250    0.0000 </r>
       <r>   21.8250    0.0000 </r>
       <r>   23.9984    0.0000 </r>
       <r>   23.9984    0.0000 </r>
       <r>   24.3498    0.0000 </r>
       <r>   27.1363    0.0000 </r>
       <r>   31.1800    0.0000 </r>
       <r>   31.1801    0.0000 </r>
       <r>   33.8367    0.0000 </r>
       <r>   33.8644    0.0000 </r>
       <r>   33.8644    0.0000 </r>
       <r>   36.5791    0.0000 </r>
      </set>
      <set comment="kpoint 4">
       <r>   -5.5664    1.0000 </r>
       <r>   -1.8714    1.0000 </r>
       <r>    4.1243    1.0000 </r>
       <r>    4.1243    1.0000 </r>
       <r>    7.6616    0.0000 </r>
       <r>    9.5922    0.0000 </r>
       <r>    9.5922    0.0000 </r>
       <r>   14.0789    0.0000 </r>
       <r>   16.0481    0.0000 </r>
       <r>   16.0481    0.0000 </r>
       <r>   17.0916    0.0000 </r>
       <r>   19.2819    0.0000 </r>
       <r>   19.2819    0.0000 </r>
       <r>   20.4365    0.0000 </r>
       <r>   24.3309    0.0000 </r>
       <r>   26.6224    0.0000 </r>
       <r>   26.6224    0.0000 </r>
       <r>   28.8129    0.0000 </r>
       <r>   30.2624    0.0000 </r>
       <r>   30.2624    0.0000 </r>
       <r>   31.0331    0.0000 </r>
       <r>   33.5617    0.0000 </r>
       <r>   33.5617    0.0000 </r>
       <r>   34.7144    0.0000 </r>
      </set>
      <set comment="kpoint 5">
       <r>   -7.4653    1.0000 </r>
       <r>    3.6519    1.0000 </r>
       <r>    4.3648    1.0000 </r>
       <r>    4.3648    1.0000 </r>
       <r>    7.9718    0.0000 </r>
       <r>   10.2116    0.0000 </r>
       <r>   10.2116    0.0000 </r>
       <r>   10.7170    0.0000 </r>
       <r>   12.8248    0.0000 </r>
       <r>   14.6094    0.0000 </r>
       <r>   15.6314    0.0000 </r>
       <r>   18.3585    0.0000 </r>
       <r>   18.3585    0.0000 </r>
       <r>   18.8674    0.0000 </r>
       <r>   24.1256    0.0000 </r>
       <r>   26.9958    0.0000 </r>
       <r>   26.9958    0.0000 </r>
       <r>   28.3183    0.0000 </r>
       <r>   29.3931    0.0000 </r>
       <r>   30.5237    0.0000 </r>
       <r>   33.7636    0.0000 </r>
       <r>   34.1014    0.0000 </r>
       <r>   34.1015    0.0000 </r>
       <r>   38.7206    0.0000 </r>
      </set>
      <set comment="kpoint 6">
       <r>   -6.7949    1.0000 </r>
       <r>    1.2901    1.0000 </r>
       <r>    3.7498    1.0000 </r>
       <r>    3.7624    1.0000 </r>
       <r>    8.1522    0.0000 </r>
       <r>   10.1911    0.0000 </r>
       <r>   10.7734    0.0000 </r>
       <r>   11.0588    0.0000 </r>
       <r>   14.6823    0.0000 </r>
       <r>   15.0092    0.0000 </r>
       <r>   16.6027    0.0000 </r>
       <r>   18.5463    0.0000 </r>
       <r>   20.1760    0.0000 </r>
       <r>   21.6274    0.0000 </r>
       <r>   23.4671    0.0000 </r>
       <r>   24.1441    0.0000 </r>
       <r>   26.4943    0.0000 </r>
       <r>   28.1169    0.0000 </r>
       <r>   28.3481    0.0000 </r>
       <r>   29.9216    0.0000 </r>
       <r>   33.2109    0.0000 </r>
       <r>   34.5125    0.0000 </r>
       <r>   34.6119    0.0000 </r>
       <r>   36.8622    0.0000 </r>
      </set>
      <set comment="kpoint 7">
       <r>   -5.6780    1.0000 </r>
       <r>   -1.1571    1.0000 </r>
       <r>    2.9940    1.0000 </r>
       <r>    3.5435    1.0000 </r>
       <r>    8.2356    0.0000 </r>
       <r>   10.0458    0.0000 </r>
       <r>   10.8186    0.0000 </r>
       <r>   12.1268    0.0000 </r>
       <r>   15.8617    0.0000 </r>
       <r>   16.8534    0.0000 </r>
       <r>   17.5603    0.0000 </r>
       <r>   18.9609    0.0000 </r>
       <r>   19.7218    0.0000 </r>
       <r>   22.3894    0.0000 </r>
       <r>   24.2482    0.0000 </r>
       <r>   24.4415    0.0000 </r>
       <r>   26.0191    0.0000 </r>
       <r>   28.5347    0.0000 </r>
       <r>   29.1390    0.0000 </r>
       <r>   30.5367    0.0000 </r>
       <r>   31.2942    0.0000 </r>
       <r>   31.6172    0.0000 </r>
       <r>   34.5592    0.0000 </r>
       <r>   35.1356    0.0000 </r>
      </set>
      <set comment="kpoint 8">
       <r>   -5.0583    1.0000 </r>
       <r>   -2.1246    1.0000 </r>
       <r>    2.5335    1.0000 </r>
       <r>    3.7547    1.0000 </r>
       <r>    8.3588    0.0000 </r>
       <r>    9.9215    0.0000 </r>
       <r>   10.4008    0.0000 </r>
       <r>   14.6509    0.0000 </r>
       <r>   15.1655    0.0000 </r>
       <r>   15.5900    0.0000 </r>
       <r>   17.4671    0.0000 </r>
       <r>   19.9108    0.0000 </r>
       <r>   20.4025    0.0000 </r>
       <r>   21.1061    0.0000 </r>
       <r>   24.8638    0.0000 </r>
       <r>   26.7551    0.0000 </r>
       <r>   27.3692    0.0000 </r>
       <r>   27.7476    0.0000 </r>
       <r>   28.5675    0.0000 </r>
       <r>   29.0116    0.0000 </r>
       <r>   31.6395    0.0000 </r>
       <r>   32.5193    0.0000 </r>
       <r>   33.1425    0.0000 </r>
       <r>   34.4823    0.0000 </r>
      </set>
      <set comment="kpoint 9">
       <r>   -6.0863    1.0000 </r>
       <r>   -0.3952    1.0000 </r>
       <r>    2.5422    1.0000 </r>
       <r>    4.3170    1.0000 </r>
       <r>    8.8091    0.0000 </r>
       <r>   10.1152    0.0000 </r>
       <r>   10.1718    0.0000 </r>
       <r>   13.0537    0.0000 </r>
       <r>   13.1303    0.0000 </r>
       <r>   16.2709    0.0000 </r>
       <r>   17.8729    0.0000 </r>
       <r>   18.8515    0.0000 </r>
       <r>   20.7255    0.0000 </r>
       <r>   22.5566    0.0000 </r>
       <r>   23.1305    0.0000 </r>
       <r>   24.4249    0.0000 </r>
       <r>   26.0141    0.0000 </r>
       <r>   28.7121    0.0000 </r>
       <r>   29.1667    0.0000 </r>
       <r>   29.9622    0.0000 </r>
       <r>   31.7320    0.0000 </r>
       <r>   33.0086    0.0000 </r>
       <r>   34.3784    0.0000 </r>
       <r>   35.4828    0.0000 </r>
      </set>
      <set comment="kpoint 10">
       <r>   -7.0830    1.0000 </r>
       <r>    1.9799    1.0000 </r>
       <r>    3.3107    1.0000 </r>
       <r>    4.9599    1.0000 </r>
       <r>    9.2812    0.0000 </r>
       <r>    9.5313    0.0000 </r>
       <r>    9.6871    0.0000 </r>
       <r>   11.9750    0.0000 </r>
       <r>   12.5397    0.0000 </r>
       <r>   15.0485    0.0000 </r>
       <r>   16.4751    0.0000 </r>
       <r>   17.7406    0.0000 </r>
       <r>   19.2982    0.0000 </r>
       <r>   21.8569    0.0000 </r>
       <r>   23.5176    0.0000 </r>
       <r>   25.1550    0.0000 </r>
       <r>   27.5822    0.0000 </r>
       <r>   27.6472    0.0000 </r>
       <r>   28.2966    0.0000 </r>
       <r>   29.8885    0.0000 </r>
       <r>   33.6909    0.0000 </r>
       <r>   33.9549    0.0000 </r>
       <r>   36.4398    0.0000 </r>
       <r>   36.4624    0.0000 </r>
      </set>
      <set comment="kpoint 11">
       <r>   -6.3037    1.0000 </r>
       <r>    0.8315    1.0000 </r>
       <r>    3.0717    1.0000 </r>
       <r>    3.0717    1.0000 </r>
       <r>    6.9387    0.0000 </r>
       <r>    8.7367    0.0000 </r>
       <r>   12.8292    0.0000 </r>
       <r>   12.8292    0.0000 </r>
       <r>   15.3609    0.0000 </r>
       <r>   15.8577    0.0000 </r>
       <r>   18.6277    0.0000 </r>
       <r>   20.0400    0.0000 </r>
       <r>   20.0400    0.0000 </r>
       <r>   20.7470    0.0000 </r>
       <r>   23.4050    0.0000 </r>
       <r>   23.4050    0.0000 </r>
       <r>   24.2565    0.0000 </r>
       <r>   26.6895    0.0000 </r>
       <r>   28.7594    0.0000 </r>
       <r>   32.4443    0.0000 </r>
       <r>   32.7070    0.0000 </r>
       <r>   33.8652    0.0000 </r>
       <r>   33.8652    0.0000 </r>
       <r>   35.7994    0.0000 </r>
      </set>
      <set comment="kpoint 12">
       <r>   -5.3030    1.0000 </r>
       <r>   -0.8563    1.0000 </r>
       <r>    2.0241    1.0000 </r>
       <r>    2.7780    1.0000 </r>
       <r>    7.2371    0.0000 </r>
       <r>    8.8188    0.0000 </r>
       <r>   13.0604    0.0000 </r>
       <r>   13.2342    0.0000 </r>
       <r>   17.5464    0.0000 </r>
       <r>   17.9962    0.0000 </r>
       <r>   18.2673    0.0000 </r>
       <r>   18.9549    0.0000 </r>
       <r>   20.6500    0.0000 </r>
       <r>   21.7199    0.0000 </r>
       <r>   22.9880    0.0000 </r>
       <r>   24.6105    0.0000 </r>
       <r>   24.6340    0.0000 </r>
       <r>   26.4766    0.0000 </r>
       <r>   28.8666    0.0000 </r>
       <r>   29.4313    0.0000 </r>
       <r>   31.8526    0.0000 </r>
       <r>   32.0995    0.0000 </r>
       <r>   32.5861    0.0000 </r>
       <r>   34.1182    0.0000 </r>
      </set>
      <set comment="kpoint 13">
       <r>   -4.2830    1.0000 </r>
       <r>   -2.1745    1.0000 </r>
       <r>    0.9736    1.0000 </r>
       <r>    2.9624    1.0000 </r>
       <r>    7.5035    0.0000 </r>
       <r>   11.1976    0.0000 </r>
       <r>   12.7023    0.0000 </r>
       <r>   12.7886    0.0000 </r>
       <r>   15.5994    0.0000 </r>
       <r>   15.6308    0.0000 </r>
       <r>   19.8599    0.0000 </r>
       <r>   20.5547    0.0000 </r>
       <r>   21.0919    0.0000 </r>
       <r>   24.2259    0.0000 </r>
       <r>   24.3460    0.0000 </r>
       <r>   24.7905    0.0000 </r>
       <r>   25.1781    0.0000 </r>
       <r>   26.8321    0.0000 </r>
       <r>   27.1188    0.0000 </r>
       <r>   29.4502    0.0000 </r>
       <r>   30.7271    0.0000 </r>
       <r>   31.0589    0.0000 </r>
       <r>   31.2867    0.0000 </r>
       <r>   34.7931    0.0000 </r>
      </set>
      <set comment="kpoint 14">
       <r>   -5.0058    1.0000 </r>
       <r>   -1.3342    1.0000 </r>
       <r>    0.8931    1.0000 </r>
       <r>    3.5687    1.0000 </r>
       <r>    8.1634    0.0000 </r>
       <r>   11.8689    0.0000 </r>
       <r>   12.0640    0.0000 </r>
       <r>   13.0657    0.0000 </r>
       <r>   13.2437    0.0000 </r>
       <r>   14.6967    0.0000 </r>
       <r>   19.8522    0.0000 </r>
       <r>   20.4006    0.0000 </r>
       <r>   21.7699    0.0000 </r>
       <r>   23.4752    0.0000 </r>
       <r>   23.7128    0.0000 </r>
       <r>   24.6940    0.0000 </r>
       <r>   24.7737    0.0000 </r>
       <r>   27.5692    0.0000 </r>
       <r>   29.4873    0.0000 </r>
       <r>   29.8657    0.0000 </r>
       <r>   30.9507    0.0000 </r>
       <r>   32.1707    0.0000 </r>
       <r>   32.3329    0.0000 </r>
       <r>   33.3746    0.0000 </r>
      </set>
      <set comment="kpoint 15">
       <r>   -4.4311    1.0000 </r>
       <r>   -1.9756    1.0000 </r>
       <r>    2.3622    1.0000 </r>
       <r>    2.3622    1.0000 </r>
       <r>    6.5566    0.0000 </r>
       <r>    7.1115    0.0000 </r>
       <r>   15.6710    0.0000 </r>
       <r>   15.6710    0.0000 </r>
       <r>   17.9103    0.0000 </r>
       <r>   18.4778    0.0000 </r>
       <r>   18.7968    0.0000 </r>
       <r>   18.7968    0.0000 </r>
       <r>   20.4441    0.0000 </r>
       <r>   20.7299    0.0000 </r>
       <r>   23.7560    0.0000 </r>
       <r>   24.5329    0.0000 </r>
       <r>   24.5329    0.0000 </r>
       <r>   25.8245    0.0000 </r>
       <r>   28.5532    0.0000 </r>
       <r>   28.9988    0.0000 </r>
       <r>   28.9988    0.0000 </r>
       <r>   30.1293    0.0000 </r>
       <r>   31.6714    0.0000 </r>
       <r>   33.6386    0.0000 </r>
      </set>
      <set comment="kpoint 16">
       <r>   -3.3726    1.0000 </r>
       <r>   -3.0483    1.0000 </r>
       <r>    1.4145    1.0000 </r>
       <r>    2.4299    1.0000 </r>
       <r>    6.8817    0.0000 </r>
       <r>    8.2097    0.0000 </r>
       <r>   15.4555    0.0000 </r>
       <r>   15.9296    0.0000 </r>
       <r>   16.0077    0.0000 </r>
       <r>   16.2748    0.0000 </r>
       <r>   20.5228    0.0000 </r>
       <r>   20.5864    0.0000 </r>
       <r>   20.7206    0.0000 </r>
       <r>   21.6349    0.0000 </r>
       <r>   23.7788    0.0000 </r>
       <r>   24.0942    0.0000 </r>
       <r>   26.4455    0.0000 </r>
       <r>   26.9392    0.0000 </r>
       <r>   27.3478    0.0000 </r>
       <r>   28.3910    0.0000 </r>
       <r>   28.5756    0.0000 </r>
       <r>   29.7244    0.0000 </r>
       <r>   30.8552    0.0000 </r>
       <r>   32.1496    0.0000 </r>
      </set>
      <set comment="kpoint 17">
       <r>   -5.9617    1.0000 </r>
       <r>    0.0048    1.0000 </r>
       <r>    2.0363    1.0000 </r>
       <r>    3.4728    1.0000 </r>
       <r>    8.6951    0.0000 </r>
       <r>   10.0372    0.0000 </r>
       <r>   10.3929    0.0000 </r>
       <r>   12.5484    0.0000 </r>
       <r>   14.7454    0.0000 </r>
       <r>   17.5658    0.0000 </r>
       <r>   18.1165    0.0000 </r>
       <r>   19.0411    0.0000 </r>
       <r>   20.3203    0.0000 </r>
       <r>   22.0499    0.0000 </r>
       <r>   22.5196    0.0000 </r>
       <r>   25.3282    0.0000 </r>
       <r>   25.4956    0.0000 </r>
       <r>   27.5686    0.0000 </r>
       <r>   28.4202    0.0000 </r>
       <r>   31.2109    0.0000 </r>
       <r>   31.3971    0.0000 </r>
       <r>   31.9884    0.0000 </r>
       <r>   33.2554    0.0000 </r>
       <r>   35.5577    0.0000 </r>
      </set>
      <set comment="kpoint 18">
       <r>   -4.8051    1.0000 </r>
       <r>   -1.7098    1.0000 </r>
       <r>    1.3993    1.0000 </r>
       <r>    2.8860    1.0000 </r>
       <r>    9.2136    0.0000 </r>
       <r>    9.6667    0.0000 </r>
       <r>   11.8066    0.0000 </r>
       <r>   13.0223    0.0000 </r>
       <r>   14.8630    0.0000 </r>
       <r>   16.5897    0.0000 </r>
       <r>   18.7095    0.0000 </r>
       <r>   20.1139    0.0000 </r>
       <r>   21.4496    0.0000 </r>
       <r>   22.6373    0.0000 </r>
       <r>   24.4244    0.0000 </r>
       <r>   25.0942    0.0000 </r>
       <r>   25.9523    0.0000 </r>
       <r>   27.2483    0.0000 </r>
       <r>   28.4018    0.0000 </r>
       <r>   29.3309    0.0000 </r>
       <r>   30.4648    0.0000 </r>
       <r>   31.2424    0.0000 </r>
       <r>   33.1340    0.0000 </r>
       <r>   34.3601    0.0000 </r>
      </set>
      <set comment="kpoint 19">
       <r>   -4.2029    1.0000 </r>
       <r>   -2.0722    1.0000 </r>
       <r>    1.4920    1.0000 </r>
       <r>    1.9413    1.0000 </r>
       <r>    8.2898    0.0000 </r>
       <r>    8.6829    0.0000 </r>
       <r>   12.5533    0.0000 </r>
       <r>   15.2583    0.0000 </r>
       <r>   15.7156    0.0000 </r>
       <r>   17.7391    0.0000 </r>
       <r>   19.2212    0.0000 </r>
       <r>   20.7464    0.0000 </r>
       <r>   21.3922    0.0000 </r>
       <r>   22.0466    0.0000 </r>
       <r>   23.4620    0.0000 </r>
       <r>   24.3569    0.0000 </r>
       <r>   26.0587    0.0000 </r>
       <r>   27.3250    0.0000 </r>
       <r>   27.7699    0.0000 </r>
       <r>   28.0912    0.0000 </r>
       <r>   29.6222    0.0000 </r>
       <r>   30.4924    0.0000 </r>
       <r>   31.6514    0.0000 </r>
       <r>   32.9336    0.0000 </r>
      </set>
      <set comment="kpoint 20">
       <r>   -3.7163    1.0000 </r>
       <r>   -2.5156    1.0000 </r>
       <r>    0.7894    1.0000 </r>
       <r>    2.0462    1.0000 </r>
       <r>    8.8522    0.0000 </r>
       <r>   11.0683    0.0000 </r>
       <r>   12.0575    0.0000 </r>
       <r>   12.1519    0.0000 </r>
       <r>   15.6769    0.0000 </r>
       <r>   16.8836    0.0000 </r>
       <r>   19.9656    0.0000 </r>
       <r>   21.2427    0.0000 </r>
       <r>   21.8582    0.0000 </r>
       <r>   23.0200    0.0000 </r>
       <r>   24.6217    0.0000 </r>
       <r>   25.1888    0.0000 </r>
       <r>   25.7605    0.0000 </r>
       <r>   25.9585    0.0000 </r>
       <r>   27.0400    0.0000 </r>
       <r>   28.5192    0.0000 </r>
       <r>   29.5342    0.0000 </r>
       <r>   31.3310    0.0000 </r>
       <r>   33.1224    0.0000 </r>
       <r>   33.4199    0.0000 </r>
      </set>
     </set>
    </set>
   </array>
  </eigenvalues>
  <separator name="orbital magnetization" >
   <v name="MAGDIPOLOUT">      0.00000000      0.00000000      0.00000000</v>
  </separator>
  <dielectricfunction comment="density-density">
   <imag>
    <array>
     <dimension dim="1">gridpoints</dimension>
     <field>energy</field>
     <field>xx</field>
     <field>yy</field>
     <field>zz</field>
     <field>xy</field>
     <field>yz</field>
     <field>zx</field>
     <set>
      <r>     0.0000     0.0000     0.0000     0.0000     0.0000     0.0000     0.0000 </r>
      <r>     0.0384     0.0000     0.0000     0.0000     0.0000     0.0000     0.0000 </r>
      <r>     0.0769     0.0000     0.0000     0.0000     0.0000     0.0000     0.0000 </r>
      <r>     0.1153     0.0000     0.0000     0.0000     0.0000     0.0000     0.0000 </r>
      <r>     0.1538     0.0000     0.0000     0.0000     0.0000     0.0000     0.0000 </r>
      <r>     0.1922     0.0000     0.0000     0.0000     0.0000     0.0000     0.0000 </r>
      <r>     0.2306     0.0000     0.0000     0.0000     0.0000     0.0000     0.0000 </r>
      <r>     0.2691     0.0000     0.0000     0.0000     0.0000     0.0000     0.0000 </r>
      <r>     0.3075     0.0000     0.0000     0.0000     0.0000     0.0000     0.0000 </r>
      <r>     0.3460     0.0000     0.0000     0.0000     0.0000     0.0000     0.0000 </r>
      <r>     0.3844     0.0000     0.0000     0.0000     0.0000     0.0000     0.0000 </r>
      <r>     0.4229     0.0000     0.0000     0.0000     0.0000     0.0000     0.0000 </r>
      <r>     0.4613     0.0000     0.0000     0.0000     0.0000     0.0000     0.0000 </r>
      <r>     0.4997     0.0000     0.0000     0.0000     0.0000     0.0000     0.0000 </r>
      <r>     0.5382     0.0000     0.0000     0.0000     0.0000     0.0000     0.0000 </r>
      <r>     0.5766     0.0000     0.0000     0.0000     0.0000     0.0000     0.0000 </r>
      <r>     0.6151     0.0000     0.0000     0.0000     0.0000     0.0000     0.0000 </r>
      <r>     0.6535     0.0000     0.0000     0.0000     0.0000     0.0000     0.0000 </r>
      <r>     0.6919     0.0000     0.0000     0.0000     0.0000     0.0000     0.0000 </r>
      <r>     0.7304     0.0000     0.0000     0.0000     0.0000     0.0000     0.0000 </r>
      <r>     0.7688     0.0000     0.0000     0.0000     0.0000     0.0000     0.0000 </r>
      <r>     0.8073     0.0000     0.0000     0.0000     0.0000     0.0000     0.0000 </r>
      <r>     0.8457     0.0000     0.0000     0.0000     0.0000     0.0000     0.0000 </r>
      <r>     0.8842     0.0000     0.0000     0.0000     0.0000     0.0000     0.0000 </r>
      <r>     0.9226     0.0000     0.0000     0.0000     0.0000     0.0000     0.0000 </r>
      <r>     0.9610     0.0000     0.0000     0.0000     0.0000     0.0000     0.0000 </r>
      <r>     0.9995     0.0000     0.0000     0.0000     0.0000     0.0000     0.0000 </r>
      <r>     1.0379     0.0000     0.0000     0.0000     0.0000     0.0000     0.0000 </r>
      <r>     1.0764     0.0000     0.0000     0.0000     0.0000     0.0000     0.0000 </r>
      <r>     1.1148     0.0000     0.0000     0.0000     0.0000     0.0000     0.0000 </r>
      <r>     1.1532     0.0000     0.0000     0.0000     0.0000     0.0000     0.0000 </r>
      <r>     1.1917     0.0000     0.0000     0.0000     0.0000     0.0000     0.0000 </r>
      <r>     1.2301     0.0000     0.0000     0.0000     0.0000     0.0000     0.0000 </r>
      <r>     1.2686     0.0000     0.0000     0.0000     0.0000     0.0000     0.0000 </r>
      <r>     1.3070     0.0000     0.0000     0.0000     0.0000     0.0000     0.0000 </r>
      <r>     1.3455     0.0000     0.0000     0.0000     0.0000     0.0000     0.0000 </r>
      <r>     1.3839     0.0000     0.0000     0.0000     0.0000     0.0000     0.0000 </r>
      <r>     1.4223     0.0000     0.0000     0.0000     0.0000     0.0000     0.0000 </r>
      <r>     1.4608     0.0000     0.0000     0.0000     0.0000     0.0000     0.0000 </r>
      <r>     1.4992     0.0000     0.0000     0.0000     0.0000     0.0000     0.0000 </r>
      <r>     1.5377     0.0000     0.0000     0.0000     0.0000     0.0000     0.0000 </r>
      <r>     1.5761     0.0000     0.0000     0.0000     0.0000     0.0000     0.0000 </r>
      <r>     1.6145     0.0000     0.0000     0.0000     0.0000     0.0000     0.0000 </r>
      <r>     1.6530     0.0000     0.0000     0.0000     0.0000     0.0000     0.0000 </r>
      <r>     1.6914     0.0000     0.0000     0.0000     0.0000     0.0000     0.0000 </r>
      <r>     1.7299     0.0000     0.0000     0.0000     0.0000     0.0000     0.0000 </r>
      <r>     1.7683     0.0000     0.0000     0.0000     0.0000     0.0000     0.0000 </r>
      <r>     1.8068     0.0000     0.0000     0.0000     0.0000     0.0000     0.0000 </r>
      <r>     1.8452     0.0000     0.0000     0.0000     0.0000     0.0000     0.0000 </r>
      <r>     1.8836     0.0000     0.0000     0.0000     0.0000     0.0000     0.0000 </r>
      <r>     1.9221     0.0000     0.0000     0.0000     0.0000     0.0000     0.0000 </r>
      <r>     1.9605     0.0000     0.0000     0.0000     0.0000     0.0000     0.0000 </r>
      <r>     1.9990     0.0000     0.0000     0.0000     0.0000     0.0000     0.0000 </r>
      <r>     2.0374     0.0000     0.0000     0.0000     0.0000     0.0000     0.0000 </r>
      <r>     2.0758     0.0000     0.0000     0.0000     0.0000     0.0000     0.0000 </r>
      <r>     2.1143     0.0000     0.0000     0.0000     0.0000     0.0000     0.0000 </r>
      <r>     2.1527     0.0000     0.0000     0.0000     0.0000     0.0000     0.0000 </r>
      <r>     2.1912     0.0000     0.0000     0.0000     0.0000     0.0000     0.0000 </r>
      <r>     2.2296     0.0000     0.0000     0.0000     0.0000     0.0000     0.0000 </r>
      <r>     2.2681     0.0000     0.0000     0.0000     0.0000     0.0000     0.0000 </r>
      <r>     2.3065     0.0000     0.0000     0.0000     0.0000     0.0000     0.0000 </r>
      <r>     2.3449     0.0000     0.0000     0.0000     0.0000     0.0000     0.0000 </r>
      <r>     2.3834     0.0000     0.0000     0.0000     0.0000     0.0000     0.0000 </r>
      <r>     2.4218     0.0000     0.0000     0.0000     0.0000     0.0000     0.0000 </r>
      <r>     2.4603     0.0000     0.0000     0.0000     0.0000     0.0000     0.0000 </r>
      <r>     2.4987     0.0000     0.0000     0.0000     0.0000     0.0000     0.0000 </r>
      <r>     2.5371     0.0000     0.0000     0.0000     0.0000     0.0000     0.0000 </r>
      <r>     2.5756     0.0000     0.0000     0.0000     0.0000     0.0000     0.0000 </r>
      <r>     2.6140     0.0000     0.0000     0.0000     0.0000     0.0000     0.0000 </r>
      <r>     2.6525     0.0000     0.0000     0.0000     0.0000     0.0000     0.0000 </r>
      <r>     2.6909     0.0000     0.0000     0.0000     0.0000     0.0000     0.0000 </r>
      <r>     2.7294     0.0000     0.0000     0.0000     0.0000     0.0000     0.0000 </r>
      <r>     2.7678     0.0000     0.0000     0.0000     0.0000     0.0000     0.0000 </r>
      <r>     2.8062     0.0000     0.0000     0.0000     0.0000     0.0000     0.0000 </r>
      <r>     2.8447     0.0000     0.0000     0.0000     0.0000     0.0000     0.0000 </r>
      <r>     2.8831     0.0000     0.0000     0.0000     0.0000     0.0000     0.0000 </r>
      <r>     2.9216     0.0000     0.0000     0.0000     0.0000     0.0000     0.0000 </r>
      <r>     2.9600     0.0000     0.0000     0.0000     0.0000     0.0000     0.0000 </r>
      <r>     2.9984     0.0000     0.0000     0.0000     0.0000     0.0000     0.0000 </r>
      <r>     3.0369     0.0000     0.0000     0.0000     0.0000     0.0000     0.0000 </r>
      <r>     3.0753     0.0000     0.0000     0.0000     0.0000     0.0000     0.0000 </r>
      <r>     3.1138     0.0000     0.0000     0.0000     0.0000     0.0000     0.0000 </r>
      <r>     3.1522     0.0000     0.0000     0.0000     0.0000     0.0000     0.0000 </r>
      <r>     3.1907     0.0000     0.0000     0.0000     0.0000     0.0000     0.0000 </r>
      <r>     3.2291     0.0000     0.0000     0.0000     0.0000     0.0000     0.0000 </r>
      <r>     3.2675     0.0000     0.0000     0.0000     0.0000     0.0000     0.0000 </r>
      <r>     3.3060     0.0000     0.0000     0.0000     0.0000     0.0000     0.0000 </r>
      <r>     3.3444     0.0021     0.0021     0.0021     0.0000    -0.0000    -0.0000 </r>
      <r>     3.3829     0.4381     0.4381     0.4381     0.0000    -0.0000    -0.0000 </r>
      <r>     3.4213     1.6324     1.6324     1.6324     0.0000    -0.0000    -0.0000 </r>
      <r>     3.4597     3.5849     3.5849     3.5849     0.0000    -0.0000    -0.0000 </r>
      <r>     3.4982     6.2956     6.2956     6.2956     0.0000    -0.0000    -0.0000 </r>
      <r>     3.5366     9.7647     9.7647     9.7647     0.0000    -0.0000    -0.0000 </r>
      <r>     3.5751    11.4667    11.4667    11.4667     0.0000    -0.0000    -0.0000 </r>
      <r>     3.6135     5.2501     5.2501     5.2501     0.0000    -0.0000    -0.0000 </r>
      <r>     3.6520     6.6246     6.6246     6.6246     0.0000    -0.0000    -0.0000 </r>
      <r>     3.6904     7.9881     7.9881     7.9881     0.0000    -0.0000    -0.0000 </r>
      <r>     3.7288     9.3406     9.3406     9.3406     0.0000    -0.0000    -0.0000 </r>
      <r>     3.7673    10.6820    10.6820    10.6820     0.0000    -0.0000    -0.0000 </r>
      <r>     3.8057    12.0125    12.0125    12.0125     0.0000    -0.0000    -0.0000 </r>
      <r>     3.8442    13.3319    13.3319    13.3319     0.0000    -0.0000    -0.0000 </r>
      <r>     3.8826    14.6394    14.6394    14.6394     0.0000    -0.0000    -0.0000 </r>
      <r>     3.9210    15.9265    15.9265    15.9265     0.0000    -0.0000    -0.0000 </r>
      <r>     3.9595    17.1912    17.1913    17.1912     0.0000    -0.0000    -0.0000 </r>
      <r>     3.9979    18.4336    18.4336    18.4336     0.0000    -0.0000    -0.0000 </r>
      <r>     4.0364    19.6535    19.6535    19.6535     0.0000    -0.0000    -0.0000 </r>
      <r>     4.0748    20.8511    20.8511    20.8511     0.0000    -0.0000    -0.0000 </r>
      <r>     4.1133    22.0263    22.0263    22.0263     0.0000    -0.0000    -0.0000 </r>
      <r>     4.1517    23.1790    23.1791    23.1790     0.0000    -0.0000    -0.0000 </r>
      <r>     4.1901    24.3094    24.3095    24.3094     0.0000    -0.0000    -0.0000 </r>
      <r>     4.2286    26.2135    26.2135    26.2135     0.0000    -0.0000    -0.0000 </r>
      <r>     4.2670    27.7888    27.7888    27.7888     0.0000    -0.0000    -0.0000 </r>
      <r>     4.3055    28.9122    28.9122    28.9122     0.0000    -0.0000    -0.0000 </r>
      <r>     4.3439    29.5315    29.5315    29.5315     0.0000    -0.0000    -0.0000 </r>
      <r>     4.3823    29.4688    29.4689    29.4688     0.0000    -0.0000    -0.0000 </r>
      <r>     4.4208    29.5136    29.5137    29.5136     0.0000    -0.0000    -0.0000 </r>
      <r>     4.4592    29.9970    29.9970    29.9970     0.0000    -0.0000    -0.0000 </r>
      <r>     4.4977    32.6423    32.6424    32.6423     0.0000    -0.0000    -0.0000 </r>
      <r>     4.5361    35.2102    35.2102    35.2101     0.0000    -0.0000    -0.0000 </r>
      <r>     4.5746    37.8255    37.8255    37.8255     0.0000    -0.0000    -0.0000 </r>
      <r>     4.6130    39.3053    39.3054    39.3053     0.0000    -0.0000    -0.0000 </r>
      <r>     4.6514    37.2731    37.2731    37.2731     0.0000    -0.0000    -0.0000 </r>
      <r>     4.6899    35.4514    35.4515    35.4514     0.0000    -0.0000    -0.0000 </r>
      <r>     4.7283    33.7836    33.7837    33.7836     0.0000    -0.0000    -0.0000 </r>
      <r>     4.7668    32.2113    32.2113    32.2113     0.0000    -0.0000    -0.0000 </r>
      <r>     4.8052    30.7386    30.7386    30.7386     0.0000    -0.0000    -0.0000 </r>
      <r>     4.8436    29.3528    29.3528    29.3528     0.0000    -0.0000    -0.0000 </r>
      <r>     4.8821    28.0538    28.0538    28.0538     0.0000    -0.0000    -0.0000 </r>
      <r>     4.9205    26.8416    26.8416    26.8416     0.0000    -0.0000    -0.0000 </r>
      <r>     4.9590    25.7162    25.7162    25.7162     0.0000    -0.0000    -0.0000 </r>
      <r>     4.9974    24.6777    24.6777    24.6777     0.0000    -0.0000    -0.0000 </r>
      <r>     5.0359    23.7259    23.7260    23.7259     0.0000    -0.0000    -0.0000 </r>
      <r>     5.0743    22.8610    22.8611    22.8610     0.0000    -0.0000    -0.0000 </r>
      <r>     5.1127    22.0830    22.0830    22.0830     0.0000    -0.0000    -0.0000 </r>
      <r>     5.1512    21.3917    21.3917    21.3917     0.0000    -0.0000    -0.0000 </r>
      <r>     5.1896    20.7873    20.7873    20.7873     0.0000    -0.0000    -0.0000 </r>
      <r>     5.2281    20.2713    20.2713    20.2713     0.0000    -0.0000    -0.0000 </r>
      <r>     5.2665    19.7906    19.7906    19.7906     0.0000    -0.0000    -0.0000 </r>
      <r>     5.3049    19.3173    19.3173    19.3172     0.0000    -0.0000    -0.0000 </r>
      <r>     5.3434    18.8606    18.8606    18.8606     0.0000    -0.0000    -0.0000 </r>
      <r>     5.3818    18.4458    18.4458    18.4458     0.0000    -0.0000    -0.0000 </r>
      <r>     5.4203    18.0735    18.0735    18.0735     0.0000    -0.0000    -0.0000 </r>
      <r>     5.4587    17.7436    17.7436    17.7436     0.0000    -0.0000    -0.0000 </r>
      <r>     5.4972    17.5085    17.5085    17.5085     0.0000    -0.0000    -0.0000 </r>
      <r>     5.5356    17.2819    17.2819    17.2819     0.0000    -0.0000    -0.0000 </r>
      <r>     5.5740    17.0405    17.0405    17.0405     0.0000    -0.0000    -0.0000 </r>
      <r>     5.6125    16.7844    16.7844    16.7844     0.0000    -0.0000    -0.0000 </r>
      <r>     5.6509    16.5135    16.5135    16.5135     0.0000    -0.0000    -0.0000 </r>
      <r>     5.6894    16.2322    16.2322    16.2322     0.0000    -0.0000    -0.0000 </r>
      <r>     5.7278    15.9557    15.9557    15.9557     0.0000    -0.0000    -0.0000 </r>
      <r>     5.7662    15.6855    15.6855    15.6855     0.0000    -0.0000    -0.0000 </r>
      <r>     5.8047    15.4171    15.4171    15.4170     0.0000    -0.0000    -0.0000 </r>
      <r>     5.8431    15.1837    15.1837    15.1837     0.0000    -0.0000    -0.0000 </r>
      <r>     5.8816    15.0006    15.0006    15.0006     0.0000    -0.0000    -0.0000 </r>
      <r>     5.9200    14.8144    14.8144    14.8144     0.0000    -0.0000    -0.0000 </r>
      <r>     5.9585    14.6205    14.6205    14.6205     0.0000    -0.0000    -0.0000 </r>
      <r>     5.9969    14.4069    14.4069    14.4069     0.0000    -0.0000    -0.0000 </r>
      <r>     6.0353    14.1974    14.1974    14.1974     0.0000    -0.0000    -0.0000 </r>
      <r>     6.0738    13.9728    13.9728    13.9728     0.0000    -0.0000    -0.0000 </r>
      <r>     6.1122    13.7586    13.7587    13.7586     0.0000    -0.0000    -0.0000 </r>
      <r>     6.1507    13.5590    13.5590    13.5590     0.0000    -0.0000    -0.0000 </r>
      <r>     6.1891    13.4120    13.4120    13.4120     0.0000    -0.0000    -0.0000 </r>
      <r>     6.2275    13.3041    13.3041    13.3041     0.0000    -0.0000    -0.0000 </r>
      <r>     6.2660    13.1913    13.1913    13.1913     0.0000    -0.0000    -0.0000 </r>
      <r>     6.3044    13.0386    13.0386    13.0386     0.0000    -0.0000    -0.0000 </r>
      <r>     6.3429    13.1304    13.1304    13.1304     0.0000    -0.0000    -0.0000 </r>
      <r>     6.3813    13.0393    13.0393    13.0393     0.0000    -0.0000    -0.0000 </r>
      <r>     6.4198    12.8935    12.8935    12.8935     0.0000    -0.0000    -0.0000 </r>
      <r>     6.4582    12.5437    12.5437    12.5436     0.0000    -0.0000    -0.0000 </r>
      <r>     6.4966    12.0563    12.0563    12.0563     0.0000    -0.0000    -0.0000 </r>
      <r>     6.5351    11.5126    11.5126    11.5126     0.0000    -0.0000    -0.0000 </r>
      <r>     6.5735    11.1034    11.1034    11.1034     0.0000    -0.0000    -0.0000 </r>
      <r>     6.6120    10.8014    10.8014    10.8014     0.0000    -0.0000    -0.0000 </r>
      <r>     6.6504    10.5918    10.5919    10.5918     0.0000    -0.0000    -0.0000 </r>
      <r>     6.6888    10.4596    10.4596    10.4596     0.0000    -0.0000    -0.0000 </r>
      <r>     6.7273    10.4243    10.4243    10.4243     0.0000    -0.0000    -0.0000 </r>
      <r>     6.7657     9.8743     9.8743     9.8743     0.0000    -0.0000    -0.0000 </r>
      <r>     6.8042     8.7510     8.7510     8.7510     0.0000    -0.0000    -0.0000 </r>
      <r>     6.8426     8.7937     8.7937     8.7937     0.0000    -0.0000    -0.0000 </r>
      <r>     6.8811     7.8733     7.8733     7.8733     0.0000    -0.0000    -0.0000 </r>
      <r>     6.9195     7.8310     7.8310     7.8310     0.0000    -0.0000    -0.0000 </r>
      <r>     6.9579     7.7577     7.7577     7.7577     0.0000    -0.0000    -0.0000 </r>
      <r>     6.9964     7.6340     7.6340     7.6340     0.0000    -0.0000    -0.0000 </r>
      <r>     7.0348     7.4752     7.4752     7.4752     0.0000    -0.0000    -0.0000 </r>
      <r>     7.0733     7.3124     7.3124     7.3124     0.0000    -0.0000    -0.0000 </r>
      <r>     7.1117     7.1481     7.1481     7.1481     0.0000    -0.0000    -0.0000 </r>
      <r>     7.1501     6.9827     6.9827     6.9827     0.0000    -0.0000    -0.0000 </r>
      <r>     7.1886     6.8162     6.8162     6.8162     0.0000    -0.0000    -0.0000 </r>
      <r>     7.2270     6.7085     6.7086     6.7085     0.0000    -0.0000    -0.0000 </r>
      <r>     7.2655     6.6077     6.6077     6.6077     0.0000    -0.0000    -0.0000 </r>
      <r>     7.3039     6.5143     6.5143     6.5142     0.0000    -0.0000    -0.0000 </r>
      <r>     7.3424     6.4319     6.4319     6.4319     0.0000    -0.0000    -0.0000 </r>
      <r>     7.3808     6.3441     6.3442     6.3441     0.0000    -0.0000    -0.0000 </r>
      <r>     7.4192     6.2445     6.2445     6.2445     0.0000    -0.0000    -0.0000 </r>
      <r>     7.4577     6.1366     6.1366     6.1366     0.0000    -0.0000    -0.0000 </r>
      <r>     7.4961     6.0220     6.0220     6.0220     0.0000    -0.0000    -0.0000 </r>
      <r>     7.5346     5.9008     5.9008     5.9008     0.0000    -0.0000    -0.0000 </r>
      <r>     7.5730     5.7731     5.7731     5.7730     0.0000    -0.0000    -0.0000 </r>
      <r>     7.6114     5.6242     5.6242     5.6242     0.0000    -0.0000    -0.0000 </r>
      <r>     7.6499     5.4716     5.4716     5.4716     0.0000    -0.0000    -0.0000 </r>
      <r>     7.6883     5.3088     5.3088     5.3088     0.0000    -0.0000    -0.0000 </r>
      <r>     7.7268     5.1384     5.1384     5.1384     0.0000    -0.0000    -0.0000 </r>
      <r>     7.7652     4.9603     4.9603     4.9603     0.0000    -0.0000    -0.0000 </r>
      <r>     7.8037     4.7745     4.7745     4.7745     0.0000    -0.0000    -0.0000 </r>
      <r>     7.8421     4.5605     4.5605     4.5605     0.0000    -0.0000    -0.0000 </r>
      <r>     7.8805     4.2714     4.2714     4.2714     0.0000    -0.0000    -0.0000 </r>
      <r>     7.9190     4.0863     4.0863     4.0863     0.0000    -0.0000    -0.0000 </r>
      <r>     7.9574     3.8865     3.8865     3.8865     0.0000    -0.0000    -0.0000 </r>
      <r>     7.9959     3.6721     3.6721     3.6721     0.0000    -0.0000    -0.0000 </r>
      <r>     8.0343     3.4487     3.4487     3.4487     0.0000    -0.0000    -0.0000 </r>
      <r>     8.0727     3.2563     3.2563     3.2563     0.0000    -0.0000    -0.0000 </r>
      <r>     8.1112     3.0980     3.0980     3.0980     0.0000    -0.0000    -0.0000 </r>
      <r>     8.1496     3.0080     3.0080     3.0080     0.0000    -0.0000    -0.0000 </r>
      <r>     8.1881     2.9270     2.9270     2.9270     0.0000    -0.0000    -0.0000 </r>
      <r>     8.2265     2.8551     2.8551     2.8551     0.0000    -0.0000    -0.0000 </r>
      <r>     8.2650     2.8131     2.8131     2.8131     0.0000    -0.0000    -0.0000 </r>
      <r>     8.3034     2.7821     2.7821     2.7821     0.0000    -0.0000    -0.0000 </r>
      <r>     8.3418     2.7436     2.7436     2.7436     0.0000    -0.0000    -0.0000 </r>
      <r>     8.3803     2.7093     2.7093     2.7093     0.0000    -0.0000    -0.0000 </r>
      <r>     8.4187     2.6780     2.6780     2.6780     0.0000    -0.0000    -0.0000 </r>
      <r>     8.4572     2.6497     2.6497     2.6497     0.0000    -0.0000    -0.0000 </r>
      <r>     8.4956     2.6650     2.6650     2.6650     0.0000    -0.0000    -0.0000 </r>
      <r>     8.5340     2.7775     2.7775     2.7775     0.0000    -0.0000    -0.0000 </r>
      <r>     8.5725     2.8247     2.8247     2.8247     0.0000    -0.0000    -0.0000 </r>
      <r>     8.6109     2.7058     2.7058     2.7058     0.0000    -0.0000    -0.0000 </r>
      <r>     8.6494     2.6033     2.6033     2.6033     0.0000    -0.0000    -0.0000 </r>
      <r>     8.6878     2.5170     2.5170     2.5170     0.0000    -0.0000    -0.0000 </r>
      <r>     8.7263     2.4466     2.4466     2.4466     0.0000    -0.0000    -0.0000 </r>
      <r>     8.7647     2.3943     2.3943     2.3943     0.0000    -0.0000    -0.0000 </r>
      <r>     8.8031     2.3536     2.3536     2.3536     0.0000    -0.0000    -0.0000 </r>
      <r>     8.8416     2.3124     2.3124     2.3124     0.0000    -0.0000    -0.0000 </r>
      <r>     8.8800     2.2736     2.2736     2.2736     0.0000    -0.0000    -0.0000 </r>
      <r>     8.9185     2.2372     2.2372     2.2372     0.0000    -0.0000    -0.0000 </r>
      <r>     8.9569     2.2114     2.2114     2.2114     0.0000    -0.0000    -0.0000 </r>
      <r>     8.9953     2.1885     2.1885     2.1885     0.0000    -0.0000    -0.0000 </r>
      <r>     9.0338     2.1905     2.1905     2.1905     0.0000    -0.0000    -0.0000 </r>
      <r>     9.0722     2.1254     2.1254     2.1254     0.0000    -0.0000    -0.0000 </r>
      <r>     9.1107     2.1154     2.1154     2.1154     0.0000    -0.0000    -0.0000 </r>
      <r>     9.1491     2.1059     2.1059     2.1059     0.0000    -0.0000    -0.0000 </r>
      <r>     9.1876     2.0970     2.0970     2.0970     0.0000    -0.0000    -0.0000 </r>
      <r>     9.2260     2.0869     2.0869     2.0869     0.0000    -0.0000    -0.0000 </r>
      <r>     9.2644     2.0755     2.0755     2.0755     0.0000    -0.0000    -0.0000 </r>
      <r>     9.3029     2.0635     2.0635     2.0635     0.0000    -0.0000    -0.0000 </r>
      <r>     9.3413     2.0507     2.0507     2.0507     0.0000    -0.0000    -0.0000 </r>
      <r>     9.3798     2.0373     2.0373     2.0373     0.0000    -0.0000    -0.0000 </r>
      <r>     9.4182     2.0228     2.0228     2.0228     0.0000    -0.0000    -0.0000 </r>
      <r>     9.4566     2.0076     2.0076     2.0076     0.0000    -0.0000    -0.0000 </r>
      <r>     9.4951     1.9916     1.9916     1.9916     0.0000    -0.0000    -0.0000 </r>
      <r>     9.5335     1.9757     1.9757     1.9757     0.0000    -0.0000    -0.0000 </r>
      <r>     9.5720     1.9615     1.9615     1.9615     0.0000    -0.0000    -0.0000 </r>
      <r>     9.6104     1.9489     1.9489     1.9489     0.0000    -0.0000    -0.0000 </r>
      <r>     9.6489     1.9378     1.9378     1.9378     0.0000    -0.0000    -0.0000 </r>
      <r>     9.6873     1.9283     1.9283     1.9283     0.0000    -0.0000    -0.0000 </r>
      <r>     9.7257     1.9203     1.9203     1.9203     0.0000    -0.0000    -0.0000 </r>
      <r>     9.7642     1.9111     1.9111     1.9111     0.0000    -0.0000    -0.0000 </r>
      <r>     9.8026     1.9025     1.9025     1.9025     0.0000    -0.0000    -0.0000 </r>
      <r>     9.8411     1.8899     1.8899     1.8899     0.0000    -0.0000    -0.0000 </r>
      <r>     9.8795     1.8697     1.8697     1.8697     0.0000    -0.0000    -0.0000 </r>
      <r>     9.9179     1.8514     1.8514     1.8514     0.0000    -0.0000    -0.0000 </r>
      <r>     9.9564     1.8350     1.8350     1.8350     0.0000    -0.0000    -0.0000 </r>
      <r>     9.9948     1.8210     1.8210     1.8210     0.0000    -0.0000    -0.0000 </r>
      <r>    10.0333     1.8921     1.8921     1.8921     0.0000    -0.0000    -0.0000 </r>
      <r>    10.0717     1.8369     1.8370     1.8369     0.0000    -0.0000    -0.0000 </r>
      <r>    10.1102     2.2098     2.2098     2.2098     0.0000    -0.0000    -0.0000 </r>
      <r>    10.1486     1.6833     1.6833     1.6833     0.0000    -0.0000    -0.0000 </r>
      <r>    10.1870     1.6467     1.6467     1.6467     0.0000    -0.0000    -0.0000 </r>
      <r>    10.2255     1.6089     1.6089     1.6089     0.0000    -0.0000    -0.0000 </r>
      <r>    10.2639     1.5719     1.5719     1.5719     0.0000    -0.0000    -0.0000 </r>
      <r>    10.3024     1.5686     1.5686     1.5686     0.0000    -0.0000    -0.0000 </r>
      <r>    10.3408     1.4348     1.4348     1.4348     0.0000    -0.0000    -0.0000 </r>
      <r>    10.3792     1.3846     1.3846     1.3846     0.0000    -0.0000    -0.0000 </r>
      <r>    10.4177     1.3430     1.3430     1.3430     0.0000    -0.0000    -0.0000 </r>
      <r>    10.4561     1.3155     1.3155     1.3155     0.0000    -0.0000    -0.0000 </r>
      <r>    10.4946     1.2930     1.2930     1.2930     0.0000    -0.0000    -0.0000 </r>
      <r>    10.5330     1.2534     1.2534     1.2534     0.0000    -0.0000    -0.0000 </r>
      <r>    10.5715     1.2391     1.2391     1.2391     0.0000    -0.0000    -0.0000 </r>
      <r>    10.6099     1.2295     1.2295     1.2295     0.0000    -0.0000    -0.0000 </r>
      <r>    10.6483     1.2235     1.2235     1.2235     0.0000    -0.0000    -0.0000 </r>
      <r>    10.6868     1.2177     1.2177     1.2177     0.0000    -0.0000    -0.0000 </r>
      <r>    10.7252     1.2119     1.2119     1.2119     0.0000    -0.0000    -0.0000 </r>
      <r>    10.7637     1.2072     1.2072     1.2072     0.0000    -0.0000    -0.0000 </r>
      <r>    10.8021     1.2061     1.2061     1.2061     0.0000    -0.0000    -0.0000 </r>
      <r>    10.8405     1.2042     1.2042     1.2042     0.0000    -0.0000    -0.0000 </r>
      <r>    10.8790     1.2014     1.2014     1.2014     0.0000    -0.0000    -0.0000 </r>
      <r>    10.9174     1.1985     1.1985     1.1985     0.0000    -0.0000    -0.0000 </r>
      <r>    10.9559     1.1931     1.1931     1.1931     0.0000    -0.0000    -0.0000 </r>
      <r>    10.9943     1.1873     1.1873     1.1873     0.0000    -0.0000    -0.0000 </r>
      <r>    11.0328     1.1826     1.1826     1.1826     0.0000    -0.0000    -0.0000 </r>
      <r>    11.0712     1.1814     1.1814     1.1814     0.0000    -0.0000    -0.0000 </r>
      <r>    11.1096     1.1942     1.1942     1.1942     0.0000    -0.0000    -0.0000 </r>
      <r>    11.1481     1.2016     1.2016     1.2016     0.0000    -0.0000    -0.0000 </r>
      <r>    11.1865     1.2037     1.2037     1.2037     0.0000    -0.0000    -0.0000 </r>
      <r>    11.2250     1.2008     1.2008     1.2008     0.0000    -0.0000    -0.0000 </r>
      <r>    11.2634     1.1942     1.1942     1.1942     0.0000    -0.0000    -0.0000 </r>
      <r>    11.3018     1.0900     1.0900     1.0900     0.0000    -0.0000    -0.0000 </r>
      <r>    11.3403     0.9509     0.9509     0.9509     0.0000    -0.0000    -0.0000 </r>
      <r>    11.3787     1.0101     1.0101     1.0101     0.0000    -0.0000    -0.0000 </r>
      <r>    11.4172     0.9867     0.9867     0.9867     0.0000    -0.0000    -0.0000 </r>
      <r>    11.4556     1.0214     1.0214     1.0214     0.0000    -0.0000    -0.0000 </r>
      <r>    11.4941     1.0577     1.0577     1.0577     0.0000    -0.0000    -0.0000 </r>
      <r>    11.5325     1.0952     1.0952     1.0952     0.0000    -0.0000    -0.0000 </r>
      <r>    11.5709     1.1344     1.1344     1.1344     0.0000    -0.0000    -0.0000 </r>
      <r>    11.6094     1.1745     1.1745     1.1745     0.0000    -0.0000    -0.0000 </r>
      <r>    11.6478     1.1884     1.1884     1.1884     0.0000    -0.0000    -0.0000 </r>
      <r>    11.6863     1.1815     1.1815     1.1815     0.0000    -0.0000    -0.0000 </r>
      <r>    11.7247     1.1676     1.1676     1.1676     0.0000    -0.0000    -0.0000 </r>
      <r>    11.7631     1.1526     1.1526     1.1526     0.0000    -0.0000    -0.0000 </r>
      <r>    11.8016     1.1305     1.1305     1.1305     0.0000    -0.0000    -0.0000 </r>
      <r>    11.8400     1.1109     1.1109     1.1109     0.0000    -0.0000    -0.0000 </r>
      <r>    11.8785     1.1530     1.1530     1.1530     0.0000    -0.0000    -0.0000 </r>
      <r>    11.9169     1.0398     1.0398     1.0398     0.0000    -0.0000    -0.0000 </r>
      <r>    11.9554     0.9617     0.9617     0.9617     0.0000    -0.0000    -0.0000 </r>
      <r>    11.9938     0.9042     0.9043     0.9042     0.0000    -0.0000    -0.0000 </r>
      <r>    12.0322     0.8456     0.8456     0.8456     0.0000    -0.0000    -0.0000 </r>
      <r>    12.0707     0.7865     0.7865     0.7865     0.0000    -0.0000    -0.0000 </r>
      <r>    12.1091     0.7265     0.7265     0.7265     0.0000    -0.0000    -0.0000 </r>
      <r>    12.1476     0.6843     0.6843     0.6843     0.0000    -0.0000    -0.0000 </r>
      <r>    12.1860     0.6698     0.6698     0.6698     0.0000    -0.0000    -0.0000 </r>
      <r>    12.2244     0.6614     0.6614     0.6614     0.0000    -0.0000    -0.0000 </r>
      <r>    12.2629     0.6535     0.6535     0.6535     0.0000    -0.0000    -0.0000 </r>
      <r>    12.3013     0.6463     0.6463     0.6463     0.0000    -0.0000    -0.0000 </r>
      <r>    12.3398     0.6395     0.6395     0.6395     0.0000    -0.0000    -0.0000 </r>
      <r>    12.3782     0.6330     0.6330     0.6330     0.0000    -0.0000    -0.0000 </r>
      <r>    12.4167     0.6265     0.6265     0.6265     0.0000    -0.0000    -0.0000 </r>
      <r>    12.4551     0.6203     0.6203     0.6203     0.0000    -0.0000    -0.0000 </r>
      <r>    12.4935     0.6159     0.6159     0.6159     0.0000    -0.0000    -0.0000 </r>
      <r>    12.5320     0.6902     0.6902     0.6902     0.0000    -0.0000    -0.0000 </r>
      <r>    12.5704     0.6278     0.6278     0.6278     0.0000    -0.0000    -0.0000 </r>
      <r>    12.6089     0.5977     0.5977     0.5977     0.0000    -0.0000    -0.0000 </r>
      <r>    12.6473     0.5939     0.5939     0.5939     0.0000    -0.0000    -0.0000 </r>
      <r>    12.6857     0.5918     0.5918     0.5918     0.0000    -0.0000    -0.0000 </r>
      <r>    12.7242     0.5893     0.5893     0.5893     0.0000    -0.0000    -0.0000 </r>
      <r>    12.7626     0.5863     0.5863     0.5863     0.0000    -0.0000    -0.0000 </r>
      <r>    12.8011     0.5827     0.5827     0.5827     0.0000    -0.0000    -0.0000 </r>
      <r>    12.8395     0.5786     0.5786     0.5786     0.0000    -0.0000    -0.0000 </r>
      <r>    12.8780     0.5739     0.5739     0.5739     0.0000    -0.0000    -0.0000 </r>
      <r>    12.9164     0.5689     0.5689     0.5689     0.0000    -0.0000    -0.0000 </r>
      <r>    12.9548     0.5639     0.5639     0.5639     0.0000    -0.0000    -0.0000 </r>
      <r>    12.9933     0.5593     0.5593     0.5593     0.0000    -0.0000    -0.0000 </r>
      <r>    13.0317     0.5553     0.5553     0.5553     0.0000    -0.0000    -0.0000 </r>
      <r>    13.0702     0.5533     0.5533     0.5533     0.0000    -0.0000    -0.0000 </r>
      <r>    13.1086     0.5501     0.5501     0.5501     0.0000    -0.0000    -0.0000 </r>
[...]
       </set>
       <set comment="band 12">
        <r>  0.0113  0.0010  0.0018  0.0009  0.0000  0.0000  0.0000  0.0000  0.0000 </r>
        <r>  0.0113  0.0010  0.0018  0.0009  0.0000  0.0000  0.0000  0.0000  0.0000 </r>
       </set>
       <set comment="band 13">
        <r>  0.0337  0.0118  0.0048  0.0012  0.0000  0.0000  0.0000  0.0000  0.0000 </r>
        <r>  0.0337  0.0118  0.0048  0.0012  0.0000  0.0000  0.0000  0.0000  0.0000 </r>
       </set>
       <set comment="band 14">
        <r>  0.0001  0.0023  0.0148  0.0520  0.0000  0.0000  0.0000  0.0000  0.0000 </r>
        <r>  0.0001  0.0023  0.0148  0.0520  0.0000  0.0000  0.0000  0.0000  0.0000 </r>
       </set>
       <set comment="band 15">
        <r>  0.0000  0.0270  0.0389  0.0120  0.0000  0.0000  0.0000  0.0000  0.0000 </r>
        <r>  0.0000  0.0270  0.0389  0.0120  0.0000  0.0000  0.0000  0.0000  0.0000 </r>
       </set>
       <set comment="band 16">
        <r>  0.0019  0.0217  0.0263  0.0119  0.0000  0.0000  0.0000  0.0000  0.0000 </r>
        <r>  0.0019  0.0217  0.0263  0.0119  0.0000  0.0000  0.0000  0.0000  0.0000 </r>
       </set>
       <set comment="band 17">
        <r>  0.0243  0.0232  0.0031  0.0200  0.0000  0.0000  0.0000  0.0000  0.0000 </r>
        <r>  0.0243  0.0232  0.0031  0.0200  0.0000  0.0000  0.0000  0.0000  0.0000 </r>
       </set>
       <set comment="band 18">
        <r>  0.0001  0.0078  0.0119  0.0258  0.0000  0.0000  0.0000  0.0000  0.0000 </r>
        <r>  0.0001  0.0078  0.0119  0.0258  0.0000  0.0000  0.0000  0.0000  0.0000 </r>
       </set>
       <set comment="band 19">
        <r>  0.0003  0.0702  0.0403  0.0027  0.0000  0.0000  0.0000  0.0000  0.0000 </r>
        <r>  0.0003  0.0702  0.0403  0.0027  0.0000  0.0000  0.0000  0.0000  0.0000 </r>
       </set>
       <set comment="band 20">
        <r>  0.0061  0.0087  0.0105  0.0096  0.0000  0.0000  0.0000  0.0000  0.0000 </r>
        <r>  0.0061  0.0087  0.0105  0.0096  0.0000  0.0000  0.0000  0.0000  0.0000 </r>
       </set>
       <set comment="band 21">
        <r>  0.0063  0.0083  0.0125  0.0042  0.0000  0.0000  0.0000  0.0000  0.0000 </r>
        <r>  0.0063  0.0083  0.0125  0.0042  0.0000  0.0000  0.0000  0.0000  0.0000 </r>
       </set>
       <set comment="band 22">
        <r>  0.0436  0.0075  0.0111  0.0209  0.0000  0.0000  0.0000  0.0000  0.0000 </r>
        <r>  0.0436  0.0075  0.0111  0.0209  0.0000  0.0000  0.0000  0.0000  0.0000 </r>
       </set>
       <set comment="band 23">
        <r>  0.0126  0.0018  0.0048  0.0300  0.0000  0.0000  0.0000  0.0000  0.0000 </r>
        <r>  0.0126  0.0018  0.0048  0.0300  0.0000  0.0000  0.0000  0.0000  0.0000 </r>
       </set>
       <set comment="band 24">
        <r>  0.0123  0.0087  0.0141  0.0051  0.0000  0.0000  0.0000  0.0000  0.0000 </r>
        <r>  0.0123  0.0091  0.0146  0.0052  0.0000  0.0000  0.0000  0.0000  0.0000 </r>
       </set>
      </set>
      <set comment="kpoint 18">
       <set comment="band 1">
        <r>  0.2168  0.0037  0.0023  0.0186  0.0000  0.0000  0.0000  0.0000  0.0000 </r>
        <r>  0.2168  0.0037  0.0023  0.0186  0.0000  0.0000  0.0000  0.0000  0.0000 </r>
       </set>
       <set comment="band 2">
        <r>  0.1545  0.0113  0.0036  0.0625  0.0000  0.0000  0.0000  0.0000  0.0000 </r>
        <r>  0.1545  0.0113  0.0036  0.0625  0.0000  0.0000  0.0000  0.0000  0.0000 </r>
       </set>
       <set comment="band 3">
        <r>  0.0263  0.0642  0.0540  0.0363  0.0000  0.0000  0.0000  0.0000  0.0000 </r>
        <r>  0.0263  0.0642  0.0540  0.0363  0.0000  0.0000  0.0000  0.0000  0.0000 </r>
       </set>
       <set comment="band 4">
        <r>  0.0021  0.0731  0.1065  0.0102  0.0000  0.0000  0.0000  0.0000  0.0000 </r>
        <r>  0.0021  0.0731  0.1065  0.0102  0.0000  0.0000  0.0000  0.0000  0.0000 </r>
       </set>
       <set comment="band 5">
        <r>  0.0323  0.0281  0.0409  0.0107  0.0000  0.0000  0.0000  0.0000  0.0000 </r>
        <r>  0.0323  0.0281  0.0409  0.0107  0.0000  0.0000  0.0000  0.0000  0.0000 </r>
       </set>
       <set comment="band 6">
        <r>  0.0466  0.0405  0.0384  0.0036  0.0000  0.0000  0.0000  0.0000  0.0000 </r>
        <r>  0.0466  0.0405  0.0384  0.0036  0.0000  0.0000  0.0000  0.0000  0.0000 </r>
       </set>
       <set comment="band 7">
        <r>  0.0332  0.0522  0.0003  0.0358  0.0000  0.0000  0.0000  0.0000  0.0000 </r>
        <r>  0.0332  0.0522  0.0003  0.0358  0.0000  0.0000  0.0000  0.0000  0.0000 </r>
       </set>
       <set comment="band 8">
        <r>  0.0189  0.0641  0.0539  0.0023  0.0000  0.0000  0.0000  0.0000  0.0000 </r>
        <r>  0.0189  0.0641  0.0539  0.0023  0.0000  0.0000  0.0000  0.0000  0.0000 </r>
       </set>
       <set comment="band 9">
        <r>  0.0153  0.0118  0.0359  0.0721  0.0000  0.0000  0.0000  0.0000  0.0000 </r>
        <r>  0.0153  0.0118  0.0359  0.0721  0.0000  0.0000  0.0000  0.0000  0.0000 </r>
       </set>
       <set comment="band 10">
        <r>  0.0169  0.0010  0.0193  0.0658  0.0000  0.0000  0.0000  0.0000  0.0000 </r>
        <r>  0.0169  0.0010  0.0193  0.0658  0.0000  0.0000  0.0000  0.0000  0.0000 </r>
       </set>
       <set comment="band 11">
        <r>  0.0228  0.0096  0.0089  0.0156  0.0000  0.0000  0.0000  0.0000  0.0000 </r>
        <r>  0.0228  0.0096  0.0089  0.0156  0.0000  0.0000  0.0000  0.0000  0.0000 </r>
       </set>
       <set comment="band 12">
        <r>  0.0177  0.0097  0.0358  0.0603  0.0000  0.0000  0.0000  0.0000  0.0000 </r>
        <r>  0.0177  0.0097  0.0358  0.0603  0.0000  0.0000  0.0000  0.0000  0.0000 </r>
       </set>
       <set comment="band 13">
        <r>  0.0200  0.0115  0.0309  0.0898  0.0000  0.0000  0.0000  0.0000  0.0000 </r>
        <r>  0.0200  0.0115  0.0309  0.0898  0.0000  0.0000  0.0000  0.0000  0.0000 </r>
       </set>
       <set comment="band 14">
        <r>  0.0161  0.0017  0.0049  0.0351  0.0000  0.0000  0.0000  0.0000  0.0000 </r>
        <r>  0.0161  0.0017  0.0049  0.0351  0.0000  0.0000  0.0000  0.0000  0.0000 </r>
       </set>
       <set comment="band 15">
        <r>  0.0035  0.1023  0.0073  0.0120  0.0000  0.0000  0.0000  0.0000  0.0000 </r>
        <r>  0.0035  0.1023  0.0073  0.0120  0.0000  0.0000  0.0000  0.0000  0.0000 </r>
       </set>
       <set comment="band 16">
        <r>  0.0158  0.0041  0.0055  0.0381  0.0000  0.0000  0.0000  0.0000  0.0000 </r>
        <r>  0.0158  0.0041  0.0055  0.0381  0.0000  0.0000  0.0000  0.0000  0.0000 </r>
       </set>
       <set comment="band 17">
        <r>  0.0185  0.0065  0.0168  0.0081  0.0000  0.0000  0.0000  0.0000  0.0000 </r>
        <r>  0.0185  0.0065  0.0168  0.0081  0.0000  0.0000  0.0000  0.0000  0.0000 </r>
       </set>
       <set comment="band 18">
        <r>  0.0091  0.0036  0.0019  0.0217  0.0000  0.0000  0.0000  0.0000  0.0000 </r>
        <r>  0.0091  0.0036  0.0019  0.0217  0.0000  0.0000  0.0000  0.0000  0.0000 </r>
       </set>
       <set comment="band 19">
        <r>  0.0006  0.0291  0.0624  0.0040  0.0000  0.0000  0.0000  0.0000  0.0000 </r>
        <r>  0.0006  0.0291  0.0624  0.0040  0.0000  0.0000  0.0000  0.0000  0.0000 </r>
       </set>
       <set comment="band 20">
        <r>  0.0015  0.0124  0.0096  0.0017  0.0000  0.0000  0.0000  0.0000  0.0000 </r>
        <r>  0.0015  0.0124  0.0096  0.0017  0.0000  0.0000  0.0000  0.0000  0.0000 </r>
       </set>
       <set comment="band 21">
        <r>  0.0097  0.0375  0.0060  0.0009  0.0000  0.0000  0.0000  0.0000  0.0000 </r>
        <r>  0.0097  0.0375  0.0060  0.0009  0.0000  0.0000  0.0000  0.0000  0.0000 </r>
       </set>
       <set comment="band 22">
        <r>  0.0183  0.0090  0.0025  0.0086  0.0000  0.0000  0.0000  0.0000  0.0000 </r>
        <r>  0.0183  0.0090  0.0025  0.0086  0.0000  0.0000  0.0000  0.0000  0.0000 </r>
       </set>
       <set comment="band 23">
        <r>  0.0303  0.0107  0.0208  0.0107  0.0000  0.0000  0.0000  0.0000  0.0000 </r>
        <r>  0.0303  0.0107  0.0208  0.0107  0.0000  0.0000  0.0000  0.0000  0.0000 </r>
       </set>
       <set comment="band 24">
        <r>  0.0003  0.0069  0.0112  0.0010  0.0000  0.0000  0.0000  0.0000  0.0000 </r>
        <r>  0.0003  0.0069  0.0112  0.0010  0.0000  0.0000  0.0000  0.0000  0.0000 </r>
       </set>
      </set>
      <set comment="kpoint 19">
       <set comment="band 1">
        <r>  0.2072  0.0081  0.0021  0.0239  0.0000  0.0000  0.0000  0.0000  0.0000 </r>
        <r>  0.2072  0.0081  0.0021  0.0239  0.0000  0.0000  0.0000  0.0000  0.0000 </r>
       </set>
       <set comment="band 2">
        <r>  0.1943  0.0155  0.0064  0.0359  0.0000  0.0000  0.0000  0.0000  0.0000 </r>
        <r>  0.1943  0.0155  0.0064  0.0359  0.0000  0.0000  0.0000  0.0000  0.0000 </r>
       </set>
       <set comment="band 3">
        <r>  0.0060  0.0331  0.0756  0.0598  0.0000  0.0000  0.0000  0.0000  0.0000 </r>
        <r>  0.0060  0.0331  0.0756  0.0598  0.0000  0.0000  0.0000  0.0000  0.0000 </r>
       </set>
       <set comment="band 4">
        <r>  0.0000  0.0917  0.0756  0.0105  0.0000  0.0000  0.0000  0.0000  0.0000 </r>
        <r>  0.0000  0.0917  0.0756  0.0105  0.0000  0.0000  0.0000  0.0000  0.0000 </r>
       </set>
       <set comment="band 5">
        <r>  0.0376  0.0442  0.0237  0.0081  0.0000  0.0000  0.0000  0.0000  0.0000 </r>
        <r>  0.0376  0.0442  0.0237  0.0081  0.0000  0.0000  0.0000  0.0000  0.0000 </r>
       </set>
       <set comment="band 6">
        <r>  0.0363  0.0043  0.0200  0.0341  0.0000  0.0000  0.0000  0.0000  0.0000 </r>
        <r>  0.0363  0.0043  0.0200  0.0341  0.0000  0.0000  0.0000  0.0000  0.0000 </r>
       </set>
       <set comment="band 7">
        <r>  0.0342  0.0605  0.0424  0.0073  0.0000  0.0000  0.0000  0.0000  0.0000 </r>
        <r>  0.0342  0.0605  0.0424  0.0073  0.0000  0.0000  0.0000  0.0000  0.0000 </r>
       </set>
       <set comment="band 8">
        <r>  0.0177  0.0161  0.0535  0.0694  0.0000  0.0000  0.0000  0.0000  0.0000 </r>
        <r>  0.0177  0.0161  0.0535  0.0694  0.0000  0.0000  0.0000  0.0000  0.0000 </r>
       </set>
       <set comment="band 9">
        <r>  0.0001  0.0562  0.0477  0.0146  0.0000  0.0000  0.0000  0.0000  0.0000 </r>
        <r>  0.0001  0.0562  0.0477  0.0146  0.0000  0.0000  0.0000  0.0000  0.0000 </r>
       </set>
       <set comment="band 10">
        <r>  0.0304  0.0104  0.0058  0.0731  0.0000  0.0000  0.0000  0.0000  0.0000 </r>
        <r>  0.0304  0.0104  0.0058  0.0731  0.0000  0.0000  0.0000  0.0000  0.0000 </r>
       </set>
       <set comment="band 11">
        <r>  0.0074  0.0401  0.0546  0.0155  0.0000  0.0000  0.0000  0.0000  0.0000 </r>
        <r>  0.0074  0.0401  0.0546  0.0155  0.0000  0.0000  0.0000  0.0000  0.0000 </r>
       </set>
       <set comment="band 12">
        <r>  0.0047  0.0490  0.0051  0.0685  0.0000  0.0000  0.0000  0.0000  0.0000 </r>
        <r>  0.0047  0.0490  0.0051  0.0685  0.0000  0.0000  0.0000  0.0000  0.0000 </r>
       </set>
       <set comment="band 13">
        <r>  0.0292  0.0095  0.0251  0.0832  0.0000  0.0000  0.0000  0.0000  0.0000 </r>
        <r>  0.0292  0.0095  0.0251  0.0832  0.0000  0.0000  0.0000  0.0000  0.0000 </r>
       </set>
       <set comment="band 14">
        <r>  0.0014  0.0050  0.0077  0.0156  0.0000  0.0000  0.0000  0.0000  0.0000 </r>
        <r>  0.0014  0.0050  0.0077  0.0156  0.0000  0.0000  0.0000  0.0000  0.0000 </r>
       </set>
       <set comment="band 15">
        <r>  0.0283  0.0125  0.0068  0.0009  0.0000  0.0000  0.0000  0.0000  0.0000 </r>
        <r>  0.0283  0.0125  0.0068  0.0009  0.0000  0.0000  0.0000  0.0000  0.0000 </r>
       </set>
       <set comment="band 16">
        <r>  0.0179  0.0228  0.0069  0.0299  0.0000  0.0000  0.0000  0.0000  0.0000 </r>
        <r>  0.0179  0.0228  0.0069  0.0299  0.0000  0.0000  0.0000  0.0000  0.0000 </r>
       </set>
       <set comment="band 17">
        <r>  0.0014  0.0259  0.0127  0.0045  0.0000  0.0000  0.0000  0.0000  0.0000 </r>
        <r>  0.0014  0.0259  0.0127  0.0045  0.0000  0.0000  0.0000  0.0000  0.0000 </r>
       </set>
       <set comment="band 18">
        <r>  0.0104  0.0067  0.0120  0.0076  0.0000  0.0000  0.0000  0.0000  0.0000 </r>
        <r>  0.0104  0.0067  0.0120  0.0076  0.0000  0.0000  0.0000  0.0000  0.0000 </r>
       </set>
       <set comment="band 19">
        <r>  0.0176  0.0296  0.0425  0.0129  0.0000  0.0000  0.0000  0.0000  0.0000 </r>
        <r>  0.0176  0.0296  0.0425  0.0129  0.0000  0.0000  0.0000  0.0000  0.0000 </r>
       </set>
       <set comment="band 20">
        <r>  0.0208  0.0097  0.0164  0.0279  0.0000  0.0000  0.0000  0.0000  0.0000 </r>
        <r>  0.0208  0.0097  0.0164  0.0279  0.0000  0.0000  0.0000  0.0000  0.0000 </r>
       </set>
       <set comment="band 21">
        <r>  0.0001  0.0038  0.0064  0.0028  0.0000  0.0000  0.0000  0.0000  0.0000 </r>
        <r>  0.0001  0.0038  0.0064  0.0028  0.0000  0.0000  0.0000  0.0000  0.0000 </r>
       </set>
       <set comment="band 22">
        <r>  0.0297  0.0125  0.0163  0.0072  0.0000  0.0000  0.0000  0.0000  0.0000 </r>
        <r>  0.0297  0.0125  0.0163  0.0072  0.0000  0.0000  0.0000  0.0000  0.0000 </r>
       </set>
       <set comment="band 23">
        <r>  0.0094  0.0420  0.0267  0.0001  0.0000  0.0000  0.0000  0.0000  0.0000 </r>
        <r>  0.0094  0.0420  0.0267  0.0001  0.0000  0.0000  0.0000  0.0000  0.0000 </r>
       </set>
       <set comment="band 24">
        <r>  0.0000  0.0005  0.0029  0.0045  0.0000  0.0000  0.0000  0.0000  0.0000 </r>
        <r>  0.0000  0.0005  0.0029  0.0045  0.0000  0.0000  0.0000  0.0000  0.0000 </r>
       </set>
      </set>
      <set comment="kpoint 20">
       <set comment="band 1">
        <r>  0.2154  0.0148  0.0034  0.0163  0.0000  0.0000  0.0000  0.0000  0.0000 </r>
        <r>  0.2154  0.0148  0.0034  0.0163  0.0000  0.0000  0.0000  0.0000  0.0000 </r>
       </set>
       <set comment="band 2">
        <r>  0.1930  0.0223  0.0030  0.0293  0.0000  0.0000  0.0000  0.0000  0.0000 </r>
        <r>  0.1930  0.0223  0.0030  0.0293  0.0000  0.0000  0.0000  0.0000  0.0000 </r>
       </set>
       <set comment="band 3">
        <r>  0.0008  0.0878  0.0006  0.0700  0.0000  0.0000  0.0000  0.0000  0.0000 </r>
        <r>  0.0008  0.0878  0.0006  0.0700  0.0000  0.0000  0.0000  0.0000  0.0000 </r>
       </set>
       <set comment="band 4">
        <r>  0.0025  0.0072  0.1553  0.0142  0.0000  0.0000  0.0000  0.0000  0.0000 </r>
        <r>  0.0025  0.0072  0.1553  0.0142  0.0000  0.0000  0.0000  0.0000  0.0000 </r>
       </set>
       <set comment="band 5">
        <r>  0.0352  0.0107  0.0434  0.0174  0.0000  0.0000  0.0000  0.0000  0.0000 </r>
        <r>  0.0352  0.0107  0.0434  0.0174  0.0000  0.0000  0.0000  0.0000  0.0000 </r>
       </set>
       <set comment="band 6">
        <r>  0.0025  0.0394  0.0228  0.0198  0.0000  0.0000  0.0000  0.0000  0.0000 </r>
        <r>  0.0025  0.0394  0.0228  0.0198  0.0000  0.0000  0.0000  0.0000  0.0000 </r>
       </set>
       <set comment="band 7">
        <r>  0.0483  0.0272  0.0522  0.0387  0.0000  0.0000  0.0000  0.0000  0.0000 </r>
        <r>  0.0483  0.0272  0.0522  0.0387  0.0000  0.0000  0.0000  0.0000  0.0000 </r>
       </set>
       <set comment="band 8">
        <r>  0.0405  0.0493  0.0009  0.0399  0.0000  0.0000  0.0000  0.0000  0.0000 </r>
        <r>  0.0405  0.0493  0.0009  0.0399  0.0000  0.0000  0.0000  0.0000  0.0000 </r>
       </set>
       <set comment="band 9">
        <r>  0.0071  0.0229  0.0718  0.0456  0.0000  0.0000  0.0000  0.0000  0.0000 </r>
        <r>  0.0071  0.0229  0.0718  0.0456  0.0000  0.0000  0.0000  0.0000  0.0000 </r>
       </set>
       <set comment="band 10">
        <r>  0.0206  0.0578  0.0110  0.0301  0.0000  0.0000  0.0000  0.0000  0.0000 </r>
        <r>  0.0206  0.0578  0.0110  0.0301  0.0000  0.0000  0.0000  0.0000  0.0000 </r>
       </set>
       <set comment="band 11">
        <r>  0.0109  0.0446  0.0059  0.0750  0.0000  0.0000  0.0000  0.0000  0.0000 </r>
        <r>  0.0109  0.0446  0.0059  0.0750  0.0000  0.0000  0.0000  0.0000  0.0000 </r>
       </set>
       <set comment="band 12">
        <r>  0.0066  0.0316  0.0594  0.0327  0.0000  0.0000  0.0000  0.0000  0.0000 </r>
        <r>  0.0066  0.0316  0.0594  0.0327  0.0000  0.0000  0.0000  0.0000  0.0000 </r>
       </set>
       <set comment="band 13">
        <r>  0.0082  0.0146  0.0011  0.0118  0.0000  0.0000  0.0000  0.0000  0.0000 </r>
        <r>  0.0082  0.0146  0.0011  0.0118  0.0000  0.0000  0.0000  0.0000  0.0000 </r>
       </set>
       <set comment="band 14">
        <r>  0.0293  0.0023  0.0015  0.0012  0.0000  0.0000  0.0000  0.0000  0.0000 </r>
        <r>  0.0293  0.0023  0.0015  0.0012  0.0000  0.0000  0.0000  0.0000  0.0000 </r>
       </set>
       <set comment="band 15">
        <r>  0.0034  0.0643  0.0000  0.0670  0.0000  0.0000  0.0000  0.0000  0.0000 </r>
        <r>  0.0034  0.0643  0.0000  0.0670  0.0000  0.0000  0.0000  0.0000  0.0000 </r>
       </set>
       <set comment="band 16">
        <r>  0.0005  0.0217  0.0206  0.0419  0.0000  0.0000  0.0000  0.0000  0.0000 </r>
        <r>  0.0005  0.0217  0.0206  0.0419  0.0000  0.0000  0.0000  0.0000  0.0000 </r>
       </set>
       <set comment="band 17">
        <r>  0.0131  0.0376  0.0017  0.0193  0.0000  0.0000  0.0000  0.0000  0.0000 </r>
        <r>  0.0131  0.0376  0.0017  0.0193  0.0000  0.0000  0.0000  0.0000  0.0000 </r>
       </set>
       <set comment="band 18">
        <r>  0.0314  0.0132  0.0218  0.0143  0.0000  0.0000  0.0000  0.0000  0.0000 </r>
        <r>  0.0314  0.0132  0.0218  0.0143  0.0000  0.0000  0.0000  0.0000  0.0000 </r>
       </set>
       <set comment="band 19">
        <r>  0.0296  0.0032  0.0126  0.0044  0.0000  0.0000  0.0000  0.0000  0.0000 </r>
        <r>  0.0296  0.0032  0.0126  0.0044  0.0000  0.0000  0.0000  0.0000  0.0000 </r>
       </set>
       <set comment="band 20">
        <r>  0.0003  0.0173  0.0255  0.0104  0.0000  0.0000  0.0000  0.0000  0.0000 </r>
        <r>  0.0003  0.0173  0.0255  0.0104  0.0000  0.0000  0.0000  0.0000  0.0000 </r>
       </set>
       <set comment="band 21">
        <r>  0.0005  0.0123  0.0338  0.0080  0.0000  0.0000  0.0000  0.0000  0.0000 </r>
        <r>  0.0005  0.0123  0.0338  0.0080  0.0000  0.0000  0.0000  0.0000  0.0000 </r>
       </set>
       <set comment="band 22">
        <r>  0.0159  0.0158  0.0322  0.0102  0.0000  0.0000  0.0000  0.0000  0.0000 </r>
        <r>  0.0159  0.0158  0.0322  0.0102  0.0000  0.0000  0.0000  0.0000  0.0000 </r>
       </set>
       <set comment="band 23">
        <r>  0.0003  0.0006  0.0005  0.0010  0.0000  0.0000  0.0000  0.0000  0.0000 </r>
        <r>  0.0003  0.0006  0.0005  0.0010  0.0000  0.0000  0.0000  0.0000  0.0000 </r>
       </set>
       <set comment="band 24">
        <r>  0.0012  0.0150  0.0062  0.0085  0.0000  0.0000  0.0000  0.0000  0.0000 </r>
        <r>  0.0012  0.0150  0.0062  0.0085  0.0000  0.0000  0.0000  0.0000  0.0000 </r>
       </set>
      </set>
     </set>
    </set>
   </array>
  </projected>
 </calculation>
 <structure name="finalpos" >
  <crystal>
   <varray name="basis" >
    <v>       3.33357300       0.00000000       1.92463900 </v>
    <v>       1.11119100       3.14292400       1.92463900 </v>
    <v>       0.00000000       0.00000000       3.84927800 </v>
   </varray>
   <i name="volume">     40.32952680 </i>
   <varray name="rec_basis" >
    <v>       0.29997843      -0.10605835       0.00000000 </v>
    <v>       0.00000000       0.31817505       0.00000000 </v>
    <v>      -0.14998922      -0.10605835       0.25978898 </v>
   </varray>
  </crystal>
  <varray name="positions" >
   <v>       0.87500000       0.87500000       0.87500000 </v>
   <v>       0.12500000       0.12500000       0.12500000 </v>
  </varray>
 </structure>
</modeling>
