 vasp.6.4.2 20Jul23 (build Mar 15 2024 16:31:38) complex                        
  
 executed on             LinuxIFC date 2025.03.19  14:53:51
 running  120 mpi-ranks, on    3 nodes
 distrk:  each k-point on  120 cores,    1 groups
 distr:  one band on NCORE=  10 cores,   12 groups


--------------------------------------------------------------------------------------------------------


 INCAR:
   ALGO = Fast
   EDIFF = 1e-05
   ENAUG = 1360
   ENCUT = 680
   GGA = Ps
   ICHARG = 11
   ISMEAR = -5
   ISPIN = 1
   ISYM = 2
   LAECHG = True
   LASPH = True
   LCHARG = False
   LELF = False
   LMAXMIX = 4
   LMIXTAU = True
   LORBIT = 11
   LREAL = False
   LVTOT = True
   LWAVE = True
   NBANDS = 58
   NCORE = 10
   NEDOS = 1134
   NELM = 200
   NSW = 0
   PREC = Accurate
   SIGMA = 0.05

 POTCAR:    PAW_PBE In_d 06Sep2000                
 POTCAR:    PAW_PBE Cu 22Jun2005                  
 POTCAR:    PAW_PBE Se 06Sep2000                  
 WARNING: For LVTOT=.TRUE., VASP.5.x writes the TOTAL local potential to the
     file LOCPOT. If you want only the Hartree contributions, use LVHAR=.TRUE.
     instead. 

 POTCAR:    PAW_PBE In_d 06Sep2000                
   VRHFIN =In: s2p1                                                                                 
   LEXCH  = PE                                                                                      
   EATOM  =  1576.8302 eV,  115.8937 Ry                                                             
                                                                                                    
   TITEL  = PAW_PBE In_d 06Sep2000                                                                  
   LULTRA =        F    use ultrasoft PP ?                                                          
   IUNSCR =        1    unscreen: 0-lin 1-nonlin 2-no                                               
   RPACOR =    2.200    partial core radius                                                         
   POMASS =  114.820; ZVAL   =   13.000    mass and valenz                                          
   RCORE  =    2.500    outmost cutoff radius                                                       
   RWIGS  =    3.170; RWIGS  =    1.677    wigner-seitz radius (au A)                               
   ENMAX  =  239.211; ENMIN  =  179.409 eV                                                          
   ICORE  =        3    local potential                                                             
   LCOR   =        T    correct aug charges                                                         
   LPAW   =        T    paw PP                                                                      
   EAUG   =  449.704                                                                                
   DEXC   =    0.000                                                                                
   RMAX   =    2.552    core radius for proj-oper                                                   
   RAUG   =    1.300    factor for augmentation sphere                                              
   RDEP   =    2.630    radius for radial grids                                                     
   RDEPT  =    2.033    core radius for aug-charge                                                  
                                                                                                    
   Atomic configuration                                                                             
   12 entries                                                                                       
     n  l   j            E        occ.                                                              
     1  0  0.50    -27747.9169   2.0000                                                             
     2  0  0.50     -4154.4438   2.0000                                                             
     2  1  1.50     -3728.4305   6.0000                                                             
     3  0  0.50      -788.3680   2.0000                                                             
     3  1  1.50      -648.9215   6.0000                                                             
     3  2  2.50      -432.5893  10.0000                                                             
     4  0  0.50      -119.6363   2.0000                                                             
     4  1  1.50       -78.1086   6.0000                                                             
     4  2  2.50       -18.6227  10.0000                                                             
     5  0  0.50        -8.2107   2.0000                                                             
     5  1  0.50        -2.5185   1.0000                                                             
     4  3  2.50        -2.7212   0.0000                                                             
   Description                                                                                      
     l       E           TYP  RCUT    TYP  RCUT                                                     
     2    -18.6226981     23  2.500                                                                 
     2     -1.3605826     23  2.500                                                                 
     0     -8.2107305     23  2.500                                                                 
     0     -6.1485975     23  2.500                                                                 
     1     -2.5184867     23  2.500                                                                 
     1      3.2427302     23  2.500                                                                 
     3     -1.3605826      7  2.500                                                                 
  local pseudopotential read in
  partial core-charges read in
  partial kinetic energy density read in
  atomic valenz-charges read in
  non local Contribution for L=           2  read in
    real space projection operators read in
  non local Contribution for L=           2  read in
    real space projection operators read in
  non local Contribution for L=           0  read in
    real space projection operators read in
  non local Contribution for L=           0  read in
    real space projection operators read in
  non local Contribution for L=           1  read in
    real space projection operators read in
  non local Contribution for L=           1  read in
    real space projection operators read in
    PAW grid and wavefunctions read in
 
   number of l-projection  operators is LMAX  =           6
   number of lm-projection operators is LMMAX =          18
 
 POTCAR:    PAW_PBE Cu 22Jun2005                  
   VRHFIN =Cu: d10 p1                                                                               
   LEXCH  = PE                                                                                      
   EATOM  =  1390.9808 eV,  102.2342 Ry                                                             
                                                                                                    
   TITEL  = PAW_PBE Cu 22Jun2005                                                                    
   LULTRA =        F    use ultrasoft PP ?                                                          
   IUNSCR =        1    unscreen: 0-lin 1-nonlin 2-no                                               
   RPACOR =    2.000    partial core radius                                                         
   POMASS =   63.546; ZVAL   =   11.000    mass and valenz                                          
   RCORE  =    2.300    outmost cutoff radius                                                       
   RWIGS  =    2.200; RWIGS  =    1.164    wigner-seitz radius (au A)                               
   ENMAX  =  295.446; ENMIN  =  221.585 eV                                                          
   ICORE  =        3    local potential                                                             
   LCOR   =        T    correct aug charges                                                         
   LPAW   =        T    paw PP                                                                      
   EAUG   =  586.980                                                                                
   DEXC   =    0.000                                                                                
   RMAX   =    2.344    core radius for proj-oper                                                   
   RAUG   =    1.300    factor for augmentation sphere                                              
   RDEP   =    2.302    radius for radial grids                                                     
   RDEPT  =    1.771    core radius for aug-charge                                                  
                                                                                                    
   Atomic configuration                                                                             
    9 entries                                                                                       
     n  l   j            E        occ.                                                              
     1  0  0.50     -8850.2468   2.0000                                                             
     2  0  0.50     -1062.3498   2.0000                                                             
     2  1  1.50      -916.8226   6.0000                                                             
     3  0  0.50      -114.6929   2.0000                                                             
     3  1  1.50       -72.1325   6.0000                                                             
     3  2  2.50        -5.0394  10.0000                                                             
     4  0  0.50        -4.6097   1.0000                                                             
     4  1  0.50        -4.0817   0.0000                                                             
     4  3  2.50        -1.3606   0.0000                                                             
   Description                                                                                      
     l       E           TYP  RCUT    TYP  RCUT                                                     
     2     -5.0393973     23  2.200                                                                 
     2     10.8846608     23  2.200                                                                 
     0     -4.6097109     23  2.200                                                                 
     0      8.2520465     23  2.200                                                                 
     1     -2.7211652     23  2.200                                                                 
     1     21.7055443     23  2.200                                                                 
     3      2.7211652     23  2.300                                                                 
  local pseudopotential read in
  partial core-charges read in
  partial kinetic energy density read in
  atomic valenz-charges read in
  non local Contribution for L=           2  read in
    real space projection operators read in
  non local Contribution for L=           2  read in
    real space projection operators read in
  non local Contribution for L=           0  read in
    real space projection operators read in
  non local Contribution for L=           0  read in
    real space projection operators read in
  non local Contribution for L=           1  read in
    real space projection operators read in
  non local Contribution for L=           1  read in
    real space projection operators read in
    PAW grid and wavefunctions read in
 
   number of l-projection  operators is LMAX  =           6
   number of lm-projection operators is LMMAX =          18
 
 POTCAR:    PAW_PBE Se 06Sep2000                  
   VRHFIN =Se: s2p4                                                                                 
   LEXCH  = PE                                                                                      
   EATOM  =   257.1286 eV,   18.8984 Ry                                                             
                                                                                                    
   TITEL  = PAW_PBE Se 06Sep2000                                                                    
   LULTRA =        F    use ultrasoft PP ?                                                          
   IUNSCR =        1    unscreen: 0-lin 1-nonlin 2-no                                               
   RPACOR =    1.900    partial core radius                                                         
   POMASS =   78.960; ZVAL   =    6.000    mass and valenz                                          
   RCORE  =    2.100    outmost cutoff radius                                                       
   RWIGS  =    2.200; RWIGS  =    1.164    wigner-seitz radius (au A)                               
   ENMAX  =  211.555; ENMIN  =  158.666 eV                                                          
   ICORE  =        3    local potential                                                             
   LCOR   =        T    correct aug charges                                                         
   LPAW   =        T    paw PP                                                                      
   EAUG   =  446.842                                                                                
   DEXC   =    0.000                                                                                
   RMAX   =    2.147    core radius for proj-oper                                                   
   RAUG   =    1.300    factor for augmentation sphere                                              
   RDEP   =    2.177    radius for radial grids                                                     
   RDEPT  =    1.928    core radius for aug-charge                                                  
                                                                                                    
   Atomic configuration                                                                             
   10 entries                                                                                       
     n  l   j            E        occ.                                                              
     1  0  0.50    -12503.4787   2.0000                                                             
     2  0  0.50     -1606.9547   2.0000                                                             
     2  1  1.50     -1413.3140   6.0000                                                             
     3  0  0.50      -213.4885   2.0000                                                             
     3  1  1.50      -152.9538   6.0000                                                             
     3  2  2.50       -53.1221  10.0000                                                             
     4  0  0.50       -17.2865   2.0000                                                             
     4  1  0.50        -6.5110   4.0000                                                             
     4  2  2.50        -6.8029   0.0000                                                             
     4  3  2.50        -6.8029   0.0000                                                             
   Description                                                                                      
     l       E           TYP  RCUT    TYP  RCUT                                                     
     0    -17.2865377     23  2.100                                                                 
     0    -15.3094411     23  2.100                                                                 
     1     -6.5110275     23  2.100                                                                 
     1     -0.0695192     23  2.100                                                                 
     2     -6.8029130     23  2.100                                                                 
     3     -1.3605826      7  2.100                                                                 
  local pseudopotential read in
  partial core-charges read in
  partial kinetic energy density read in
  atomic valenz-charges read in
  non local Contribution for L=           0  read in
    real space projection operators read in
  non local Contribution for L=           0  read in
    real space projection operators read in
  non local Contribution for L=           1  read in
    real space projection operators read in
  non local Contribution for L=           1  read in
    real space projection operators read in
  non local Contribution for L=           2  read in
    real space projection operators read in
    PAW grid and wavefunctions read in
 
   number of l-projection  operators is LMAX  =           5
   number of lm-projection operators is LMMAX =          13
 
 -----------------------------------------------------------------------------
|                                                                             |
|               ----> ADVICE to this user running VASP <----                  |
|                                                                             |
|     You enforced a specific xc type in the INCAR file but a different       |
|     type was found in the POTCAR file.                                      |
|     I HOPE YOU KNOW WHAT YOU ARE DOING!                                     |
|                                                                             |
 -----------------------------------------------------------------------------

  PAW_PBE In_d 06Sep2000                :
 energy of atom  1       EATOM=-1576.8302
 kinetic energy error for atom=    0.0009 (will be added to EATOM!!)
  PAW_PBE Cu 22Jun2005                  :
 energy of atom  2       EATOM=-1390.9808
 kinetic energy error for atom=    0.0018 (will be added to EATOM!!)
  PAW_PBE Se 06Sep2000                  :
 energy of atom  3       EATOM= -257.1286
 kinetic energy error for atom=    0.0004 (will be added to EATOM!!)
 
 
 POSCAR: In2 Cu2 Se4
  positions in direct lattice
  No initial velocities read in
 exchange correlation table for  LEXCH =       14
   RHO(1)=    0.500       N(1)  =     2000
   RHO(2)=  100.500       N(2)  =     4000
 


--------------------------------------------------------------------------------------------------------


 ion  position               nearest neighbor table
   1  0.500  0.500  0.000-   5 2.62   8 2.62   6 2.62   7 2.62
   2  0.750  0.250  0.500-   8 2.62   6 2.62   7 2.62   5 2.62
   3  0.000  0.000  0.000-   6 2.42   7 2.42   5 2.42   8 2.42
   4  0.250  0.750  0.500-   7 2.42   5 2.42   8 2.42   6 2.42
   5  0.345  0.375  0.250-   4 2.42   3 2.42   1 2.62   2 2.62
   6  0.905  0.875  0.250-   3 2.42   4 2.42   2 2.62   1 2.62
   7  0.125  0.655  0.750-   4 2.42   3 2.42   2 2.62   1 2.62
   8  0.625  0.095  0.750-   4 2.42   3 2.42   2 2.62   1 2.62
 
  LATTYP: Found a body centered tetragonal cell.
 ALAT       =     5.8059957800
 C/A-ratio  =     2.0079361830
  
  Lattice vectors:
  
 A1 = (   1.0538795677,  -5.1971421792,  -4.7656568808)
 A2 = (  -5.3029191999,   0.0000000000,  -4.7656572101)
 A3 = (   4.2490396322,   5.1971421792,   2.4016274909)


Analysis of symmetry for initial positions (statically):
=====================================================================
 Subroutine PRICEL returns:
 Original cell was already a primitive cell.
 

 Routine SETGRP: Setting up the symmetry group for a 
 body centered tetragonal supercell.


 Subroutine GETGRP returns: Found  8 space group operations
 (whereof  4 operations were pure point group operations)
 out of a pool of 16 trial point group operations.


The static configuration has the point symmetry S_4 .
 The point group associated with its full space group is D_2d.


Analysis of symmetry for dynamics (positions and initial velocities):
=====================================================================
 Subroutine PRICEL returns:
 Original cell was already a primitive cell.
 

 Routine SETGRP: Setting up the symmetry group for a 
 body centered tetragonal supercell.


 Subroutine GETGRP returns: Found  8 space group operations
 (whereof  4 operations were pure point group operations)
 out of a pool of 16 trial point group operations.


The dynamic configuration has the point symmetry S_4 .
 The point group associated with its full space group is D_2d.


 Subroutine INISYM returns: Found  8 space group operations
 (whereof  4 operations are pure point group operations),
 and found     1 'primitive' translations


----------------------------------------------------------------------------------------

                                     Primitive cell                                     

  volume of cell :     196.4943

  direct lattice vectors                    reciprocal lattice vectors
     5.302919200  0.000000000 -2.364029390     0.188575379  0.038239427  0.000000000
    -1.053879568  5.197142179 -2.364029719     0.000000000  0.192413439  0.000000000
     0.000000000  0.000000000  7.129686600     0.062526975  0.076478848  0.140258620

  length of vectors
     5.805995780  5.805995650  7.129686600     0.192413429  0.192413439  0.171554998

  position of ions in fractional coordinates (direct lattice)
     0.500000000  0.500000000  1.000000000
     0.750000000  0.250000000  0.500000000
     0.000000000  0.000000000  0.000000000
     0.250000000  0.750000000  0.500000000
     0.345161030  0.375000000  0.250000000
     0.904838970  0.875000000  0.250000000
     0.125000000  0.654838970  0.750000000
     0.625000000  0.095161030  0.750000000

  ion indices of the primitive-cell ions
   primitive index   ion index
                 1           1
                 2           2
                 3           3
                 4           4
                 5           5
                 6           6
                 7           7
                 8           8

----------------------------------------------------------------------------------------

 
 
 KPOINTS: pymatgen with grid density = 1010 / numb

Automatic generation of k-mesh.
 Grid dimensions read from file:
 generate k-points for:    5    5    4

 Generating k-lattice:

  Cartesian coordinates                     Fractional coordinates (reciprocal lattice)
     0.037715076  0.007647885  0.000000000     0.200000000 -0.000000000  0.000000000
     0.000000000  0.038482688  0.000000000     0.000000000  0.200000000  0.000000000
     0.015631744  0.019119712  0.035064655    -0.000000000 -0.000000000  0.250000000

  Length of vectors
     0.038482686  0.038482688  0.042888749

  Shift w.r.t. Gamma in fractional coordinates (k-lattice)
     0.000000000  0.000000000  0.000000000

 -----------------------------------------------------------------------------
|                                                                             |
|           W    W    AA    RRRRR   N    N  II  N    N   GGGG   !!!           |
|           W    W   A  A   R    R  NN   N  II  NN   N  G    G  !!!           |
|           W    W  A    A  R    R  N N  N  II  N N  N  G       !!!           |
|           W WW W  AAAAAA  RRRRR   N  N N  II  N  N N  G  GGG   !            |
|           WW  WW  A    A  R   R   N   NN  II  N   NN  G    G                |
|           W    W  A    A  R    R  N    N  II  N    N   GGGG   !!!           |
|                                                                             |
|     Your reciprocal lattice and k-lattice belong to different lattice       |
|     classes:                                                                |
|                                                                             |
|        The reciprocal lattice is body-centered tetragonal,                  |
|        whereas your k-lattice is base-centered monoclinic.                  |
|                                                                             |
|     Results are often still useful ...                                      |
|                                                                             |
 -----------------------------------------------------------------------------

 WARNING: IBZKPT: internal override: KBLOWUP is changed to .FALSE.
      ... skipping the blow-up phase ...

 TETIRR: Found    150 inequivalent tetrahedra from      600
 
 Subroutine IBZKPT returns following result:
 ===========================================
 
 Found     33 irreducible k-points:
 
 Following reciprocal coordinates:
            Coordinates               Weight
  0.000000  0.000000  0.000000      1.000000
  0.200000  0.000000  0.000000      4.000000
  0.400000 -0.000000  0.000000      4.000000
  0.200000  0.200000  0.000000      2.000000
  0.400000  0.200000  0.000000      4.000000
 -0.400000  0.200000  0.000000      4.000000
 -0.200000  0.200000  0.000000      2.000000
  0.400000  0.400000  0.000000      2.000000
 -0.400000  0.400000  0.000000      2.000000
 -0.000000 -0.000000  0.250000      2.000000
  0.200000  0.000000  0.250000      4.000000
  0.400000 -0.000000  0.250000      4.000000
 -0.400000  0.000000  0.250000      4.000000
 -0.200000 -0.000000  0.250000      4.000000
  0.200000  0.200000  0.250000      2.000000
  0.400000  0.200000  0.250000      4.000000
 -0.400000  0.200000  0.250000      4.000000
 -0.200000  0.200000  0.250000      4.000000
  0.400000  0.400000  0.250000      2.000000
 -0.400000  0.400000  0.250000      4.000000
 -0.200000  0.400000  0.250000      4.000000
 -0.400000 -0.400000  0.250000      2.000000
 -0.200000 -0.400000  0.250000      4.000000
 -0.200000 -0.200000  0.250000      2.000000
 -0.000000 -0.000000  0.500000      1.000000
  0.200000 -0.000000  0.500000      4.000000
  0.400000 -0.000000  0.500000      4.000000
  0.200000  0.200000  0.500000      2.000000
  0.400000  0.200000  0.500000      4.000000
 -0.400000  0.200000  0.500000      4.000000
 -0.200000  0.200000  0.500000      2.000000
  0.400000  0.400000  0.500000      2.000000
 -0.400000  0.400000  0.500000      2.000000
 
 Following cartesian coordinates:
            Coordinates               Weight
  0.000000  0.000000  0.000000      1.000000
  0.037715  0.007648  0.000000      4.000000
  0.075430  0.015296  0.000000      4.000000
  0.037715  0.046131  0.000000      2.000000
  0.075430  0.053778  0.000000      4.000000
 -0.075430  0.023187  0.000000      4.000000
 -0.037715  0.030835  0.000000      2.000000
  0.075430  0.092261  0.000000      2.000000
 -0.075430  0.061670  0.000000      2.000000
  0.015632  0.019120  0.035065      2.000000
  0.053347  0.026768  0.035065      4.000000
  0.091062  0.034415  0.035065      4.000000
 -0.059798  0.003824  0.035065      4.000000
 -0.022083  0.011472  0.035065      4.000000
  0.053347  0.065250  0.035065      2.000000
  0.091062  0.072898  0.035065      4.000000
 -0.059798  0.042307  0.035065      4.000000
 -0.022083  0.049955  0.035065      4.000000
  0.091062  0.111381  0.035065      2.000000
 -0.059798  0.080789  0.035065      4.000000
 -0.022083  0.088437  0.035065      4.000000
 -0.059798 -0.073141  0.035065      2.000000
 -0.022083 -0.065494  0.035065      4.000000
 -0.022083 -0.027011  0.035065      2.000000
  0.031263  0.038239  0.070129      1.000000
  0.068979  0.045887  0.070129      4.000000
  0.106694  0.053535  0.070129      4.000000
  0.068979  0.084370  0.070129      2.000000
  0.106694  0.092018  0.070129      4.000000
 -0.044167  0.061426  0.070129      4.000000
 -0.006452  0.069074  0.070129      2.000000
  0.106694  0.130501  0.070129      2.000000
 -0.044167  0.099909  0.070129      2.000000
 
 -----------------------------------------------------------------------------
|                                                                             |
|           W    W    AA    RRRRR   N    N  II  N    N   GGGG   !!!           |
|           W    W   A  A   R    R  NN   N  II  NN   N  G    G  !!!           |
|           W    W  A    A  R    R  N N  N  II  N N  N  G       !!!           |
|           W WW W  AAAAAA  RRRRR   N  N N  II  N  N N  G  GGG   !            |
|           WW  WW  A    A  R   R   N   NN  II  N   NN  G    G                |
|           W    W  A    A  R    R  N    N  II  N    N   GGGG   !!!           |
|                                                                             |
|     The number of bands has been changed from the values supplied in        |
|     the INCAR file. This is a result of running the parallel version.       |
|     The orbitals not found in the WAVECAR file will be initialized with     |
|     random numbers, which is usually adequate. For correlated               |
|     calculations, however, you should redo the groundstate calculation.     |
|     I found NBANDS = 58. Now, NBANDS = 60.                                  |
|                                                                             |
 -----------------------------------------------------------------------------



--------------------------------------------------------------------------------------------------------




 Dimension of arrays:
   k-points           NKPTS =     33   k-points in BZ     NKDIM =     33   number of bands    NBANDS=     60
   number of dos      NEDOS =   1134   number of ions     NIONS =      8
   non local maximal  LDIM  =      6   non local SUM 2l+1 LMDIM =     18
   total plane-waves  NPLWV = 160000
   max r-space proj   IRMAX =      1   max aug-charges    IRDMAX=  35706
   dimension x,y,z NGX =    50 NGY =   50 NGZ =   64
   dimension x,y,z NGXF=   100 NGYF=  100 NGZF=  128
   support grid    NGXF=   100 NGYF=  100 NGZF=  128
   ions per type =               2   2   4
   NGX,Y,Z   is equivalent  to a cutoff of  14.32, 14.32, 14.92 a.u.
   NGXF,Y,Z  is equivalent  to a cutoff of  28.63, 28.63, 29.85 a.u.

 SYSTEM =  unknown system                          
 POSCAR =  In2 Cu2 Se4                             

 Startparameter for this run:
   NWRITE =      2    write-flag & timer
   PREC   = accura    normal or accurate (medium, high low for compatibility)
   ISTART =      0    job   : 0-new  1-cont  2-samecut
   ICHARG =     11    charge: 1-file 2-atom 10-const
   ISPIN  =      1    spin polarized calculation?
   LNONCOLLINEAR =      F non collinear calculations
   LSORBIT =      F    spin-orbit coupling
   INIWAV =      1    electr: 0-lowe 1-rand  2-diag
   LASPH  =      T    aspherical Exc in radial PAW
 Electronic Relaxation 1
   ENCUT  =  680.0 eV  49.98 Ry    7.07 a.u.  12.34 12.34 15.16*2*pi/ulx,y,z
   ENINI  =  680.0     initial cutoff
   ENAUG  = 1360.0 eV  augmentation charge cutoff
   NELM   =    200;   NELMIN=  2; NELMDL= -5     # of ELM steps 
   EDIFF  = 0.1E-04   stopping-criterion for ELM
   LREAL  =      F    real-space projection
   NLSPLINE    = F    spline interpolate recip. space projectors
   LCOMPAT=      F    compatible to vasp.4.4
   GGA_COMPAT  = T    GGA compatible to vasp.4.4-vasp.4.6
   LMAXPAW     = -100 max onsite density
   LMAXMIX     =    4 max onsite mixed and CHGCAR
   VOSKOWN=      0    Vosko Wilk Nusair interpolation
   ROPT   =    0.00000   0.00000   0.00000
 Ionic relaxation
   EDIFFG = 0.1E-03   stopping-criterion for IOM
   NSW    =      0    number of steps for IOM
   NBLOCK =      1;   KBLOCK =      1    inner block; outer block 
   IBRION =     -1    ionic relax: 0-MD 1-quasi-New 2-CG
   NFREE  =      0    steps in history (QN), initial steepest desc. (CG)
   ISIF   =      2    stress and relaxation
   IWAVPR =     10    prediction:  0-non 1-charg 2-wave 3-comb
   ISYM   =      2    0-nonsym 1-usesym 2-fastsym
   LCORR  =      T    Harris-Foulkes like correction to forces

   POTIM  = 0.5000    time-step for ionic-motion
   TEIN   =    0.0    initial temperature
   TEBEG  =    0.0;   TEEND  =   0.0 temperature during run
   SMASS  =  -3.00    Nose mass-parameter (am)
   estimated Nose-frequenzy (Omega)   =  0.10E-29 period in steps = 0.13E+47 mass=  -0.770E-27a.u.
   SCALEE = 1.0000    scale energy and forces
   NPACO  =    256;   APACO  = 10.0  distance and # of slots for P.C.
   PSTRESS=    0.0 pullay stress

  Mass of Ions in am
   POMASS = 114.82 63.55 78.96
  Ionic Valenz
   ZVAL   =  13.00 11.00  6.00
  Atomic Wigner-Seitz radii
   RWIGS  =  -1.00 -1.00 -1.00
  virtual crystal weights 
   VCA    =   1.00  1.00  1.00
   NELECT =      72.0000    total number of electrons
   NUPDOWN=      -1.0000    fix difference up-down

 DOS related values:
   EMIN   =  10.00;   EMAX   =-10.00  energy-range for DOS
   EFERMI =   0.00;   METHOD = LEGACY      
   ISMEAR =    -5;   SIGMA  =   0.05  broadening in eV -4-tet -1-fermi 0-gaus

 Electronic relaxation 2 (details)
   IALGO  =     68    algorithm
   LDIAG  =      T    sub-space diagonalisation (order eigenvalues)
   LSUBROT=      F    optimize rotation matrix (better conditioning)
   TURBO    =      0    0=normal 1=particle mesh
   IRESTART =      0    0=no restart 2=restart with 2 vectors
   NREBOOT  =      0    no. of reboots
   NMIN     =      0    reboot dimension
   EREF     =   0.00    reference energy to select bands
   IMIX   =      4    mixing-type and parameters
     AMIX     =   0.40;   BMIX     =  1.00
     AMIX_MAG =   1.60;   BMIX_MAG =  1.00
     AMIN     =   0.10
     WC   =   100.;   INIMIX=   1;  MIXPRE=   1;  MAXMIX= -45

 Intra band minimization:
   WEIMIN = 0.0000     energy-eigenvalue tresh-hold
   EBREAK =  0.42E-07  absolut break condition
   DEPER  =   0.30     relativ break condition  

   TIME   =   0.40     timestep for ELM

  volume/ion in A,a.u.               =      24.56       165.75
  Fermi-wavevector in a.u.,A,eV,Ry     =   1.171482  2.213780 18.672231  1.372370
  Thomas-Fermi vector in A             =   2.307925
 
 Write flags
   LWAVE        =      T    write WAVECAR
   LDOWNSAMPLE  =      F    k-point downsampling of WAVECAR
   LCHARG       =      F    write CHGCAR
   LVTOT        =      T    write LOCPOT, total local potential
   LVHAR        =      F    write LOCPOT, Hartree potential only
   LELF         =      F    write electronic localiz. function (ELF)
   LORBIT       =     11    0 simple, 1 ext, 2 COOP (PROOUT), +10 PAW based schemes


 Dipole corrections
   LMONO  =      F    monopole corrections only (constant potential shift)
   LDIPOL =      F    correct potential (dipole corrections)
   IDIPOL =      0    1-x, 2-y, 3-z, 4-all directions 
   EPSILON=  1.0000000 bulk dielectric constant

 Exchange correlation treatment:
   GGA     =    PS    GGA type
   LEXCH   =    14    internal setting for exchange type
   LIBXC   =     F    Libxc                    
   VOSKOWN =     0    Vosko Wilk Nusair interpolation
   LHFCALC =     F    Hartree Fock is set to
   LHFONE  =     F    Hartree Fock one center treatment
   AEXX    =    0.0000 exact exchange contribution

 Linear response parameters
   LEPSILON=     F    determine dielectric tensor
   LRPA    =     F    only Hartree local field effects (RPA)
   LNABLA  =     F    use nabla operator in PAW spheres
   LVEL    =     F    velocity operator in full k-point grid
   CSHIFT  =0.1000    complex shift for real part using Kramers Kronig
   OMEGAMAX=  -1.0    maximum frequency
   DEG_THRESHOLD= 0.2000000E-02 threshold for treating states as degnerate
   RTIME   =   -0.100 relaxation time in fs
  (WPLASMAI=    0.000 imaginary part of plasma frequency in eV, 0.658/RTIME)
   DFIELD  = 0.0000000 0.0000000 0.0000000 field for delta impulse in time
 
  Optional k-point grid parameters
   LKPOINTS_OPT  =     F    use optional k-point grid
   KPOINTS_OPT_MODE=     1    mode for optional k-point grid
 
 Orbital magnetization related:
   ORBITALMAG=     F  switch on orbital magnetization
   LCHIMAG   =     F  perturbation theory with respect to B field
   DQ        =  0.001000  dq finite difference perturbation B field
   LLRAUG    =     F  two centre corrections for induced B field
   LBONE     =     F  B-component reconstruction in AE one-centre
   LVGVCALC  =     T  calculate vGv susceptibility
   LVGVAPPL  =     F  apply vGv susceptibility instead of pGv for G=0

 Random number generation:
   RANDOM_GENERATOR = DEFAULT
   PCG_SEED         = not used


--------------------------------------------------------------------------------------------------------


 Static calculation
 charge density and potential remain constant during run
 non-spin polarized calculation
 RMM-DIIS sequential band-by-band and
  variant of blocked Davidson during initial phase
 perform sub-space diagonalisation
    before iterative eigenvector-optimisation
 no mixing
 using additional bands           24
 reciprocal scheme for non local part
 use partial core corrections
 calculate Harris-corrections to forces 
   (improved forces if not selfconsistent)
 use gradient corrections 
 WARNING: stress and forces are not correct
  (second derivative of E(xc) not defined)
 use of overlap-Matrix (Vanderbilt PP)
 Fermi weights with tetrahedron method with Bloechl corrections


--------------------------------------------------------------------------------------------------------


  energy-cutoff  :      680.00
  volume of cell :      196.49
      direct lattice vectors                 reciprocal lattice vectors
     5.302919200  0.000000000 -2.364029390     0.188575379  0.038239427  0.000000000
    -1.053879568  5.197142179 -2.364029719     0.000000000  0.192413439  0.000000000
     0.000000000  0.000000000  7.129686600     0.062526975  0.076478848  0.140258620

  length of vectors
     5.805995780  5.805995650  7.129686600     0.192413429  0.192413439  0.171554998


 
 k-points in units of 2pi/SCALE and weight: pymatgen with grid density = 1010 / numb
   0.00000000  0.00000000  0.00000000       0.010
   0.03771508  0.00764789  0.00000000       0.040
   0.07543015  0.01529577  0.00000000       0.040
   0.03771508  0.04613057  0.00000000       0.020
   0.07543015  0.05377846  0.00000000       0.040
  -0.07543015  0.02318692  0.00000000       0.040
  -0.03771508  0.03083480  0.00000000       0.020
   0.07543015  0.09226115  0.00000000       0.020
  -0.07543015  0.06166960  0.00000000       0.020
   0.01563174  0.01911971  0.03506465       0.020
   0.05334682  0.02676760  0.03506465       0.040
   0.09106190  0.03441548  0.03506465       0.040
  -0.05979841  0.00382394  0.03506465       0.040
  -0.02208333  0.01147183  0.03506465       0.040
   0.05334682  0.06525029  0.03506465       0.020
   0.09106190  0.07289817  0.03506465       0.040
  -0.05979841  0.04230663  0.03506465       0.040
  -0.02208333  0.04995451  0.03506465       0.040
   0.09106190  0.11138086  0.03506465       0.020
  -0.05979841  0.08078932  0.03506465       0.040
  -0.02208333  0.08843720  0.03506465       0.040
  -0.05979841 -0.07314143  0.03506465       0.020
  -0.02208333 -0.06549355  0.03506465       0.040
  -0.02208333 -0.02701086  0.03506465       0.020
   0.03126349  0.03823942  0.07012931       0.010
   0.06897856  0.04588731  0.07012931       0.040
   0.10669364  0.05353519  0.07012931       0.040
   0.06897856  0.08437000  0.07012931       0.020
   0.10669364  0.09201788  0.07012931       0.040
  -0.04416666  0.06142634  0.07012931       0.040
  -0.00645159  0.06907423  0.07012931       0.020
   0.10669364  0.13050057  0.07012931       0.020
  -0.04416666  0.09990903  0.07012931       0.020
 
 k-points in reciprocal lattice and weights: pymatgen with grid density = 1010 / numb
   0.00000000  0.00000000  0.00000000       0.010
   0.20000000  0.00000000  0.00000000       0.040
   0.40000000 -0.00000000  0.00000000       0.040
   0.20000000  0.20000000  0.00000000       0.020
   0.40000000  0.20000000  0.00000000       0.040
  -0.40000000  0.20000000  0.00000000       0.040
  -0.20000000  0.20000000  0.00000000       0.020
   0.40000000  0.40000000  0.00000000       0.020
  -0.40000000  0.40000000  0.00000000       0.020
  -0.00000000 -0.00000000  0.25000000       0.020
   0.20000000  0.00000000  0.25000000       0.040
   0.40000000 -0.00000000  0.25000000       0.040
  -0.40000000  0.00000000  0.25000000       0.040
  -0.20000000 -0.00000000  0.25000000       0.040
   0.20000000  0.20000000  0.25000000       0.020
   0.40000000  0.20000000  0.25000000       0.040
  -0.40000000  0.20000000  0.25000000       0.040
  -0.20000000  0.20000000  0.25000000       0.040
   0.40000000  0.40000000  0.25000000       0.020
  -0.40000000  0.40000000  0.25000000       0.040
  -0.20000000  0.40000000  0.25000000       0.040
  -0.40000000 -0.40000000  0.25000000       0.020
  -0.20000000 -0.40000000  0.25000000       0.040
  -0.20000000 -0.20000000  0.25000000       0.020
  -0.00000000 -0.00000000  0.50000000       0.010
   0.20000000 -0.00000000  0.50000000       0.040
   0.40000000 -0.00000000  0.50000000       0.040
   0.20000000  0.20000000  0.50000000       0.020
   0.40000000  0.20000000  0.50000000       0.040
  -0.40000000  0.20000000  0.50000000       0.040
  -0.20000000  0.20000000  0.50000000       0.020
   0.40000000  0.40000000  0.50000000       0.020
  -0.40000000  0.40000000  0.50000000       0.020
 
 position of ions in fractional coordinates (direct lattice) 
   0.50000000  0.50000000  0.00000000
   0.75000000  0.25000000  0.50000000
   0.00000000  0.00000000  0.00000000
   0.25000000  0.75000000  0.50000000
   0.34516103  0.37500000  0.25000000
   0.90483897  0.87500000  0.25000000
   0.12500000  0.65483897  0.75000000
   0.62500000  0.09516103  0.75000000
 
 position of ions in cartesian coordinates  (Angst):
   2.12451982  2.59857109 -2.36402955
   3.71371951  1.29928554  1.20081383
   0.00000000  0.00000000  0.00000000
   0.53532012  3.89785663  1.20081366
   1.43515622  1.94892832  0.07993969
   3.87614333  4.54749941 -2.42517027
  -0.02725651  3.40329123  3.50370249
   3.21403623  0.49456540  3.64478308
 


--------------------------------------------------------------------------------------------------------


 k-point   1 :   0.0000 0.0000 0.0000  plane waves:    7897
 k-point   2 :   0.2000 0.0000 0.0000  plane waves:    7920
 k-point   3 :   0.4000-0.0000 0.0000  plane waves:    7925
 k-point   4 :   0.2000 0.2000 0.0000  plane waves:    7921
 k-point   5 :   0.4000 0.2000 0.0000  plane waves:    7901
 k-point   6 :  -0.4000 0.2000 0.0000  plane waves:    7901
 k-point   7 :  -0.2000 0.2000 0.0000  plane waves:    7903
 k-point   8 :   0.4000 0.4000 0.0000  plane waves:    7901
 k-point   9 :  -0.4000 0.4000 0.0000  plane waves:    7920
 k-point  10 :  -0.0000-0.0000 0.2500  plane waves:    7937
 k-point  11 :   0.2000 0.0000 0.2500  plane waves:    7916
 k-point  12 :   0.4000-0.0000 0.2500  plane waves:    7905
 k-point  13 :  -0.4000 0.0000 0.2500  plane waves:    7897
 k-point  14 :  -0.2000-0.0000 0.2500  plane waves:    7924
 k-point  15 :   0.2000 0.2000 0.2500  plane waves:    7925
 k-point  16 :   0.4000 0.2000 0.2500  plane waves:    7918
 k-point  17 :  -0.4000 0.2000 0.2500  plane waves:    7906
 k-point  18 :  -0.2000 0.2000 0.2500  plane waves:    7911
 k-point  19 :   0.4000 0.4000 0.2500  plane waves:    7898
 k-point  20 :  -0.4000 0.4000 0.2500  plane waves:    7911
 k-point  21 :  -0.2000 0.4000 0.2500  plane waves:    7914
 k-point  22 :  -0.4000-0.4000 0.2500  plane waves:    7904
 k-point  23 :  -0.2000-0.4000 0.2500  plane waves:    7900
 k-point  24 :  -0.2000-0.2000 0.2500  plane waves:    7918
 k-point  25 :  -0.0000-0.0000 0.5000  plane waves:    7944
 k-point  26 :   0.2000-0.0000 0.5000  plane waves:    7921
 k-point  27 :   0.4000-0.0000 0.5000  plane waves:    7914
 k-point  28 :   0.2000 0.2000 0.5000  plane waves:    7913
 k-point  29 :   0.4000 0.2000 0.5000  plane waves:    7911
 k-point  30 :  -0.4000 0.2000 0.5000  plane waves:    7919
 k-point  31 :  -0.2000 0.2000 0.5000  plane waves:    7926
 k-point  32 :   0.4000 0.4000 0.5000  plane waves:    7916
 k-point  33 :  -0.4000 0.4000 0.5000  plane waves:    7906

 maximum and minimum number of plane-waves per node :       810      771

 maximum number of plane-waves:      7944
 maximum index in each direction: 
   IXMAX=   12   IYMAX=   12   IZMAX=   15
   IXMIN=  -12   IYMIN=  -12   IZMIN=  -15


 parallel 3D FFT for wavefunctions:
    minimum data exchange during FFTs selected (reduces bandwidth)
 parallel 3D FFT for charge:
    minimum data exchange during FFTs selected (reduces bandwidth)


 total amount of memory used by VASP MPI-rank0    46168. kBytes
=======================================================================

   base      :      30000. kBytes
   nonl-proj :      11564. kBytes
   fftplans  :        932. kBytes
   grid      :       1472. kBytes
   one-center:         15. kBytes
   wavefun   :       2185. kBytes
 
     INWAV:  cpu time      0.0000: real time      0.0001
 initial charge density was supplied:
 number of electron      71.9999998 magnetization 
 keeping initial charge density in first step


--------------------------------------------------------------------------------------------------------


 Maximum index for augmentation-charges          985 (set IRDMAX)


--------------------------------------------------------------------------------------------------------


 First call to EWALD:  gamma=   0.305
 Maximum number of real-space cells 3x 3x 3
 Maximum number of reciprocal cells 3x 3x 3

    FEWALD:  cpu time      0.0027: real time      0.0028


--------------------------------------- Ionic step        1  -------------------------------------------




--------------------------------------- Iteration      1(   1)  ---------------------------------------


    POTLOK:  cpu time      0.0211: real time      0.0237
    SETDIJ:  cpu time      0.1312: real time      0.1319
     EDDAV:  cpu time      0.9276: real time      0.9347
 BZINTS: Fermi energy:   18.375119;   72.000000 electrons
         Band energy: 0.540294E+03;  BLOECHL correction:   -0.175151
       DOS:  cpu time      0.0190: real time      0.0193
    --------------------------------------------
      LOOP:  cpu time      1.0989: real time      1.1097

 eigenvalue-minimisations  :  3996
 total energy-change (2. order) : 0.7381032E+03  (-0.3574902E+04)
 number of electron      71.9999998 magnetization 
 augmentation part       71.9999998 magnetization 

 Free energy of the ion-electron system (eV)
  ---------------------------------------------------
  alpha Z        PSCENC =       185.64929911
  Ewald energy   TEWEN  =     -4678.36476469
  -Hartree energ DENC   =     -2303.77795081
  -exchange      EXHF   =         0.00000000
  -V(xc)+E(xc)   XCENC  =       176.06828523
  PAW double counting   =      8090.08272835    -8232.82562561
  entropy T*S    EENTRO =         0.00000000
  eigenvalues    EBANDS =       540.29358772
  atomic energy  EATOM  =      6960.97766694
  Solvation  Ediel_sol  =         0.00000000
  ---------------------------------------------------
  free energy    TOTEN  =       738.10322626 eV

  energy without entropy =      738.10322626  energy(sigma->0) =      738.10322626


--------------------------------------------------------------------------------------------------------




--------------------------------------- Iteration      1(   2)  ---------------------------------------


     EDDAV:  cpu time      0.8542: real time      0.8713
 BZINTS: Fermi energy:    7.244001;   72.000000 electrons
         Band energy:-0.116165E+03;  BLOECHL correction:   -0.002434
       DOS:  cpu time      0.0178: real time      0.0181
    --------------------------------------------
      LOOP:  cpu time      0.8720: real time      0.8895

 eigenvalue-minimisations  :  3960
 total energy-change (2. order) :-0.6564582E+03  (-0.6098848E+03)
 number of electron      71.9999998 magnetization 
 augmentation part       71.9999998 magnetization 

 Free energy of the ion-electron system (eV)
  ---------------------------------------------------
  alpha Z        PSCENC =       185.64929911
  Ewald energy   TEWEN  =     -4678.36476469
  -Hartree energ DENC   =     -2303.77795081
  -exchange      EXHF   =         0.00000000
  -V(xc)+E(xc)   XCENC  =       176.06828523
  PAW double counting   =      8090.08272835    -8232.82562561
  entropy T*S    EENTRO =         0.00000000
  eigenvalues    EBANDS =      -116.16464151
  atomic energy  EATOM  =      6960.97766694
  Solvation  Ediel_sol  =         0.00000000
  ---------------------------------------------------
  free energy    TOTEN  =        81.64499702 eV

  energy without entropy =       81.64499702  energy(sigma->0) =       81.64499702


--------------------------------------------------------------------------------------------------------




--------------------------------------- Iteration      1(   3)  ---------------------------------------


     EDDAV:  cpu time      0.9379: real time      0.9548
 BZINTS: Fermi energy:    4.293195;   72.000000 electrons
         Band energy:-0.224703E+03;  BLOECHL correction:    0.000000
       DOS:  cpu time      0.0099: real time      0.0099
    --------------------------------------------
      LOOP:  cpu time      0.9478: real time      0.9647

 eigenvalue-minimisations  :  4632
 total energy-change (2. order) :-0.1085384E+03  (-0.1039707E+03)
 number of electron      71.9999998 magnetization 
 augmentation part       71.9999998 magnetization 

 Free energy of the ion-electron system (eV)
  ---------------------------------------------------
  alpha Z        PSCENC =       185.64929911
  Ewald energy   TEWEN  =     -4678.36476469
  -Hartree energ DENC   =     -2303.77795081
  -exchange      EXHF   =         0.00000000
  -V(xc)+E(xc)   XCENC  =       176.06828523
  PAW double counting   =      8090.08272835    -8232.82562561
  entropy T*S    EENTRO =         0.00000000
  eigenvalues    EBANDS =      -224.70308748
  atomic energy  EATOM  =      6960.97766694
  Solvation  Ediel_sol  =         0.00000000
  ---------------------------------------------------
  free energy    TOTEN  =       -26.89344895 eV

  energy without entropy =      -26.89344895  energy(sigma->0) =      -26.89344895


--------------------------------------------------------------------------------------------------------




--------------------------------------- Iteration      1(   4)  ---------------------------------------


     EDDAV:  cpu time      0.9918: real time      1.0068
 BZINTS: Fermi energy:    4.131020;   72.000000 electrons
         Band energy:-0.230840E+03;  BLOECHL correction:    0.000000
       DOS:  cpu time      0.0094: real time      0.0094
    --------------------------------------------
      LOOP:  cpu time      1.0012: real time      1.0162

 eigenvalue-minimisations  :  4908
 total energy-change (2. order) :-0.6137280E+01  (-0.6092069E+01)
 number of electron      71.9999998 magnetization 
 augmentation part       71.9999998 magnetization 

 Free energy of the ion-electron system (eV)
  ---------------------------------------------------
  alpha Z        PSCENC =       185.64929911
  Ewald energy   TEWEN  =     -4678.36476469
  -Hartree energ DENC   =     -2303.77795081
  -exchange      EXHF   =         0.00000000
  -V(xc)+E(xc)   XCENC  =       176.06828523
  PAW double counting   =      8090.08272835    -8232.82562561
  entropy T*S    EENTRO =         0.00000000
  eigenvalues    EBANDS =      -230.84036738
  atomic energy  EATOM  =      6960.97766694
  Solvation  Ediel_sol  =         0.00000000
  ---------------------------------------------------
  free energy    TOTEN  =       -33.03072885 eV

  energy without entropy =      -33.03072885  energy(sigma->0) =      -33.03072885


--------------------------------------------------------------------------------------------------------




--------------------------------------- Iteration      1(   5)  ---------------------------------------


     EDDAV:  cpu time      1.0715: real time      1.0873
 BZINTS: Fermi energy:    4.129597;   72.000000 electrons
         Band energy:-0.231063E+03;  BLOECHL correction:    0.000000
       DOS:  cpu time      0.0105: real time      0.0106
    --------------------------------------------
      LOOP:  cpu time      1.0821: real time      1.0978

 eigenvalue-minimisations  :  5508
 total energy-change (2. order) :-0.2228398E+00  (-0.2227672E+00)
 number of electron      71.9999998 magnetization 
 augmentation part       71.9999998 magnetization 

 Free energy of the ion-electron system (eV)
  ---------------------------------------------------
  alpha Z        PSCENC =       185.64929911
  Ewald energy   TEWEN  =     -4678.36476469
  -Hartree energ DENC   =     -2303.77795081
  -exchange      EXHF   =         0.00000000
  -V(xc)+E(xc)   XCENC  =       176.06828523
  PAW double counting   =      8090.08272835    -8232.82562561
  entropy T*S    EENTRO =         0.00000000
  eigenvalues    EBANDS =      -231.06320715
  atomic energy  EATOM  =      6960.97766694
  Solvation  Ediel_sol  =         0.00000000
  ---------------------------------------------------
  free energy    TOTEN  =       -33.25356862 eV

  energy without entropy =      -33.25356862  energy(sigma->0) =      -33.25356862


--------------------------------------------------------------------------------------------------------




--------------------------------------- Iteration      1(   6)  ---------------------------------------


    EDDIAG:  cpu time      0.2812: real time      0.2968
  RMM-DIIS:  cpu time      0.4456: real time      0.4470
    ORTHCH:  cpu time      0.0342: real time      0.0343
 BZINTS: Fermi energy:    4.134143;   72.000000 electrons
         Band energy:-0.231071E+03;  BLOECHL correction:    0.000000
       DOS:  cpu time      0.0099: real time      0.0100
    --------------------------------------------
      LOOP:  cpu time      0.7710: real time      0.7882

 eigenvalue-minimisations  :  6584
 total energy-change (2. order) :-0.7481962E-02  (-0.7481962E-02)
 number of electron      71.9999998 magnetization 
 augmentation part       71.9999998 magnetization 

 Free energy of the ion-electron system (eV)
  ---------------------------------------------------
  alpha Z        PSCENC =       185.64929911
  Ewald energy   TEWEN  =     -4678.36476469
  -Hartree energ DENC   =     -2303.77795081
  -exchange      EXHF   =         0.00000000
  -V(xc)+E(xc)   XCENC  =       176.06828523
  PAW double counting   =      8090.08272835    -8232.82562561
  entropy T*S    EENTRO =         0.00000000
  eigenvalues    EBANDS =      -231.07068911
  atomic energy  EATOM  =      6960.97766694
  Solvation  Ediel_sol  =         0.00000000
  ---------------------------------------------------
  free energy    TOTEN  =       -33.26105058 eV

  energy without entropy =      -33.26105058  energy(sigma->0) =      -33.26105058


--------------------------------------------------------------------------------------------------------




--------------------------------------- Iteration      1(   7)  ---------------------------------------


    EDDIAG:  cpu time      0.2778: real time      0.2945
  RMM-DIIS:  cpu time      0.4897: real time      0.4909
    ORTHCH:  cpu time      0.0345: real time      0.0346
 BZINTS: Fermi energy:    4.129721;   72.000000 electrons
         Band energy:-0.231073E+03;  BLOECHL correction:    0.000000
       DOS:  cpu time      0.0100: real time      0.0100
    --------------------------------------------
      LOOP:  cpu time      0.8120: real time      0.8301

 eigenvalue-minimisations  :  7365
 total energy-change (2. order) :-0.1947209E-02  (-0.2156623E-02)
 number of electron      71.9999998 magnetization 
 augmentation part       71.9999998 magnetization 

 Free energy of the ion-electron system (eV)
  ---------------------------------------------------
  alpha Z        PSCENC =       185.64929911
  Ewald energy   TEWEN  =     -4678.36476469
  -Hartree energ DENC   =     -2303.77795081
  -exchange      EXHF   =         0.00000000
  -V(xc)+E(xc)   XCENC  =       176.06828523
  PAW double counting   =      8090.08272835    -8232.82562561
  entropy T*S    EENTRO =         0.00000000
  eigenvalues    EBANDS =      -231.07263632
  atomic energy  EATOM  =      6960.97766694
  Solvation  Ediel_sol  =         0.00000000
  ---------------------------------------------------
  free energy    TOTEN  =       -33.26299779 eV

  energy without entropy =      -33.26299779  energy(sigma->0) =      -33.26299779


--------------------------------------------------------------------------------------------------------




--------------------------------------- Iteration      1(   8)  ---------------------------------------


    EDDIAG:  cpu time      0.2803: real time      0.2941
  RMM-DIIS:  cpu time      0.5314: real time      0.5327
    ORTHCH:  cpu time      0.0350: real time      0.0351
 BZINTS: Fermi energy:    4.136190;   72.000000 electrons
         Band energy:-0.231073E+03;  BLOECHL correction:   -0.000000
       DOS:  cpu time      0.0104: real time      0.0106
    --------------------------------------------
      LOOP:  cpu time      0.8572: real time      0.8725

 eigenvalue-minimisations  :  7621
 total energy-change (2. order) :-0.4957465E-03  (-0.5264754E-03)
 number of electron      71.9999998 magnetization 
 augmentation part       71.9999998 magnetization 

 Free energy of the ion-electron system (eV)
  ---------------------------------------------------
  alpha Z        PSCENC =       185.64929911
  Ewald energy   TEWEN  =     -4678.36476469
  -Hartree energ DENC   =     -2303.77795081
  -exchange      EXHF   =         0.00000000
  -V(xc)+E(xc)   XCENC  =       176.06828523
  PAW double counting   =      8090.08272835    -8232.82562561
  entropy T*S    EENTRO =         0.00000000
  eigenvalues    EBANDS =      -231.07313207
  atomic energy  EATOM  =      6960.97766694
  Solvation  Ediel_sol  =         0.00000000
  ---------------------------------------------------
  free energy    TOTEN  =       -33.26349354 eV

  energy without entropy =      -33.26349354  energy(sigma->0) =      -33.26349354


--------------------------------------------------------------------------------------------------------




--------------------------------------- Iteration      1(   9)  ---------------------------------------


    EDDIAG:  cpu time      0.2651: real time      0.2774
  RMM-DIIS:  cpu time      0.4723: real time      0.4735
    ORTHCH:  cpu time      0.0347: real time      0.0348
 BZINTS: Fermi energy:    4.134318;   72.000000 electrons
         Band energy:-0.231073E+03;  BLOECHL correction:    0.000000
       DOS:  cpu time      0.0095: real time      0.0095
    --------------------------------------------
      LOOP:  cpu time      0.7816: real time      0.7952

 eigenvalue-minimisations  :  7354
 total energy-change (2. order) :-0.2157414E-03  (-0.2256131E-03)
 number of electron      71.9999998 magnetization 
 augmentation part       71.9999998 magnetization 

 Free energy of the ion-electron system (eV)
  ---------------------------------------------------
  alpha Z        PSCENC =       185.64929911
  Ewald energy   TEWEN  =     -4678.36476469
  -Hartree energ DENC   =     -2303.77795081
  -exchange      EXHF   =         0.00000000
  -V(xc)+E(xc)   XCENC  =       176.06828523
  PAW double counting   =      8090.08272835    -8232.82562561
  entropy T*S    EENTRO =         0.00000000
  eigenvalues    EBANDS =      -231.07334781
  atomic energy  EATOM  =      6960.97766694
  Solvation  Ediel_sol  =         0.00000000
  ---------------------------------------------------
  free energy    TOTEN  =       -33.26370928 eV

  energy without entropy =      -33.26370928  energy(sigma->0) =      -33.26370928


--------------------------------------------------------------------------------------------------------




--------------------------------------- Iteration      1(  10)  ---------------------------------------


    EDDIAG:  cpu time      0.2542: real time      0.2713
  RMM-DIIS:  cpu time      0.4453: real time      0.4465
    ORTHCH:  cpu time      0.0362: real time      0.0364
 BZINTS: Fermi energy:    4.130400;   72.000000 electrons
         Band energy:-0.231073E+03;  BLOECHL correction:    0.000000
       DOS:  cpu time      0.0094: real time      0.0094
    --------------------------------------------
      LOOP:  cpu time      0.7452: real time      0.7635

 eigenvalue-minimisations  :  6467
 total energy-change (2. order) :-0.6270933E-04  (-0.7069008E-04)
 number of electron      71.9999998 magnetization 
 augmentation part       71.9999998 magnetization 

 Free energy of the ion-electron system (eV)
  ---------------------------------------------------
  alpha Z        PSCENC =       185.64929911
  Ewald energy   TEWEN  =     -4678.36476469
  -Hartree energ DENC   =     -2303.77795081
  -exchange      EXHF   =         0.00000000
  -V(xc)+E(xc)   XCENC  =       176.06828523
  PAW double counting   =      8090.08272835    -8232.82562561
  entropy T*S    EENTRO =         0.00000000
  eigenvalues    EBANDS =      -231.07341052
  atomic energy  EATOM  =      6960.97766694
  Solvation  Ediel_sol  =         0.00000000
  ---------------------------------------------------
  free energy    TOTEN  =       -33.26377199 eV

  energy without entropy =      -33.26377199  energy(sigma->0) =      -33.26377199


--------------------------------------------------------------------------------------------------------




--------------------------------------- Iteration      1(  11)  ---------------------------------------


    EDDIAG:  cpu time      0.2523: real time      0.2646
  RMM-DIIS:  cpu time      0.3911: real time      0.3922
    ORTHCH:  cpu time      0.0322: real time      0.0322
 BZINTS: Fermi energy:    4.128362;   72.000000 electrons
         Band energy:-0.231073E+03;  BLOECHL correction:    0.000000
       DOS:  cpu time      0.0095: real time      0.0095
    --------------------------------------------
      LOOP:  cpu time      0.6851: real time      0.6986

 eigenvalue-minimisations  :  5805
 total energy-change (2. order) :-0.4289818E-04  (-0.4579929E-04)
 number of electron      71.9999998 magnetization 
 augmentation part       71.9999998 magnetization 

 Free energy of the ion-electron system (eV)
  ---------------------------------------------------
  alpha Z        PSCENC =       185.64929911
  Ewald energy   TEWEN  =     -4678.36476469
  -Hartree energ DENC   =     -2303.77795081
  -exchange      EXHF   =         0.00000000
  -V(xc)+E(xc)   XCENC  =       176.06828523
  PAW double counting   =      8090.08272835    -8232.82562561
  entropy T*S    EENTRO =         0.00000000
  eigenvalues    EBANDS =      -231.07345342
  atomic energy  EATOM  =      6960.97766694
  Solvation  Ediel_sol  =         0.00000000
  ---------------------------------------------------
  free energy    TOTEN  =       -33.26381488 eV

  energy without entropy =      -33.26381488  energy(sigma->0) =      -33.26381488


--------------------------------------------------------------------------------------------------------




--------------------------------------- Iteration      1(  12)  ---------------------------------------


    EDDIAG:  cpu time      0.2419: real time      0.2585
  RMM-DIIS:  cpu time      0.3447: real time      0.3455
    ORTHCH:  cpu time      0.0335: real time      0.0335
 BZINTS: Fermi energy:    4.132180;   72.000000 electrons
         Band energy:-0.231073E+03;  BLOECHL correction:    0.000000
       DOS:  cpu time      0.0103: real time      0.0103
    --------------------------------------------
      LOOP:  cpu time      0.6304: real time      0.6479

 eigenvalue-minimisations  :  5031
 total energy-change (2. order) :-0.1473050E-04  (-0.1744676E-04)
 number of electron      71.9999998 magnetization 
 augmentation part       71.9999998 magnetization 

 Free energy of the ion-electron system (eV)
  ---------------------------------------------------
  alpha Z        PSCENC =       185.64929911
  Ewald energy   TEWEN  =     -4678.36476469
  -Hartree energ DENC   =     -2303.77795081
  -exchange      EXHF   =         0.00000000
  -V(xc)+E(xc)   XCENC  =       176.06828523
  PAW double counting   =      8090.08272835    -8232.82562561
  entropy T*S    EENTRO =         0.00000000
  eigenvalues    EBANDS =      -231.07346815
  atomic energy  EATOM  =      6960.97766694
  Solvation  Ediel_sol  =         0.00000000
  ---------------------------------------------------
  free energy    TOTEN  =       -33.26382961 eV

  energy without entropy =      -33.26382961  energy(sigma->0) =      -33.26382961


--------------------------------------------------------------------------------------------------------




--------------------------------------- Iteration      1(  13)  ---------------------------------------


    EDDIAG:  cpu time      0.2430: real time      0.2600
  RMM-DIIS:  cpu time      0.3109: real time      0.3119
    ORTHCH:  cpu time      0.0330: real time      0.0331
 BZINTS: Fermi energy:    4.136854;   72.000000 electrons
         Band energy:-0.231073E+03;  BLOECHL correction:   -0.000000
       DOS:  cpu time      0.0111: real time      0.0111
    --------------------------------------------
      LOOP:  cpu time      0.5981: real time      0.6161

 eigenvalue-minimisations  :  4398
 total energy-change (2. order) :-0.1068158E-04  (-0.1192339E-04)
 number of electron      71.9999998 magnetization 
 augmentation part       71.9999998 magnetization 

 Free energy of the ion-electron system (eV)
  ---------------------------------------------------
  alpha Z        PSCENC =       185.64929911
  Ewald energy   TEWEN  =     -4678.36476469
  -Hartree energ DENC   =     -2303.77795081
  -exchange      EXHF   =         0.00000000
  -V(xc)+E(xc)   XCENC  =       176.06828523
  PAW double counting   =      8090.08272835    -8232.82562561
  entropy T*S    EENTRO =         0.00000000
  eigenvalues    EBANDS =      -231.07347883
  atomic energy  EATOM  =      6960.97766694
  Solvation  Ediel_sol  =         0.00000000
  ---------------------------------------------------
  free energy    TOTEN  =       -33.26384030 eV

  energy without entropy =      -33.26384030  energy(sigma->0) =      -33.26384030


--------------------------------------------------------------------------------------------------------




--------------------------------------- Iteration      1(  14)  ---------------------------------------


    EDDIAG:  cpu time      0.2451: real time      0.2600
  RMM-DIIS:  cpu time      0.2687: real time      0.2693
    ORTHCH:  cpu time      0.0327: real time      0.0328
 BZINTS: Fermi energy:    4.134979;   72.000000 electrons
         Band energy:-0.231073E+03;  BLOECHL correction:    0.000000
       DOS:  cpu time      0.0100: real time      0.0100
    --------------------------------------------
      LOOP:  cpu time      0.5565: real time      0.5721

 eigenvalue-minimisations  :  3919
 total energy-change (2. order) :-0.3131610E-05  (-0.4622985E-05)
 number of electron      71.9999998 magnetization 
 augmentation part       71.9999998 magnetization 

 Free energy of the ion-electron system (eV)
  ---------------------------------------------------
  alpha Z        PSCENC =       185.64929911
  Ewald energy   TEWEN  =     -4678.36476469
  -Hartree energ DENC   =     -2303.77795081
  -exchange      EXHF   =         0.00000000
  -V(xc)+E(xc)   XCENC  =       176.06828523
  PAW double counting   =      8090.08272835    -8232.82562561
  entropy T*S    EENTRO =         0.00000000
  eigenvalues    EBANDS =      -231.07348196
  atomic energy  EATOM  =      6960.97766694
  Solvation  Ediel_sol  =         0.00000000
  ---------------------------------------------------
  free energy    TOTEN  =       -33.26384343 eV

  energy without entropy =      -33.26384343  energy(sigma->0) =      -33.26384343


--------------------------------------------------------------------------------------------------------




 average (electrostatic) potential at core
  the test charge radii are     1.0774  0.9430  1.0808
  (the norm of the test charge is              1.0000)
       1 -97.2133       2 -97.2133       3 -66.0511       4 -66.0511       5 -54.2729
       6 -54.2729       7 -54.2729       8 -54.2729
 
 
 
 E-fermi :   4.1350     XC(G=0):  -9.5004     alpha+bet : -9.4251

 Fermi energy:         4.1349788216

 k-point     1 :       0.0000    0.0000    0.0000
  band No.  band energies     occupation 
      1     -10.9710      2.00000
      2     -10.9538      2.00000
      3     -10.9538      2.00000
      4     -10.7104      2.00000
      5     -10.6902      2.00000
      6     -10.6902      2.00000
      7     -10.6284      2.00000
      8     -10.6274      2.00000
      9     -10.6104      2.00000
     10     -10.6034      2.00000
     11      -9.9311      2.00000
     12      -8.5353      2.00000
     13      -8.5207      2.00000
     14      -8.5207      2.00000
     15      -2.4254      2.00000
     16      -1.7382      2.00000
     17      -0.8455      2.00000
     18      -0.1218      2.00000
     19      -0.0439      2.00000
     20       0.4209      2.00000
     21       0.4209      2.00000
     22       0.6962      2.00000
     23       0.6962      2.00000
     24       0.9692      2.00000
     25       0.9692      2.00000
     26       1.0407      2.00000
     27       2.0303      2.00000
     28       2.0880      2.00000
     29       2.1524      2.00000
     30       2.4463      2.00000
     31       2.4614      2.00000
     32       2.4614      2.00000
     33       2.5714      2.00000
     34       3.7914      2.00000
     35       4.1264      2.00000
     36       4.1264      2.00000
     37       4.1359      0.00000
     38       5.9101      0.00000
     39       6.0406      0.00000
     40       7.9121      0.00000
     41       7.9121      0.00000
     42       8.5453      0.00000
     43       8.8940      0.00000
     44       8.8940      0.00000
     45       8.8993      0.00000
     46       9.2312      0.00000
     47      10.0102      0.00000
     48      10.0102      0.00000
     49      10.6145      0.00000
     50      10.6837      0.00000
     51      12.9258      0.00000
     52      13.3339      0.00000
     53      13.7793      0.00000
     54      13.8447      0.00000
     55      13.8517      0.00000
     56      14.3922      0.00000
     57      14.7059      0.00000
     58      15.2278      0.00000
     59      15.4646      0.00000
     60      15.5421      0.00000

 k-point     2 :       0.2000    0.0000    0.0000
  band No.  band energies     occupation 
      1     -10.9724      2.00000
      2     -10.9645      2.00000
      3     -10.9461      2.00000
      4     -10.7304      2.00000
      5     -10.7033      2.00000
      6     -10.6860      2.00000
      7     -10.6307      2.00000
      8     -10.6212      2.00000
      9     -10.6127      2.00000
     10     -10.6019      2.00000
     11      -9.7785      2.00000
     12      -8.6158      2.00000
     13      -8.5877      2.00000
     14      -8.5421      2.00000
     15      -2.3211      2.00000
     16      -1.7767      2.00000
     17      -0.8486      2.00000
     18      -0.2196      2.00000
     19      -0.0032      2.00000
     20       0.4534      2.00000
     21       0.5358      2.00000
     22       0.6026      2.00000
     23       0.6413      2.00000
     24       0.8576      2.00000
     25       0.9463      2.00000
     26       1.1477      2.00000
     27       2.1250      2.00000
     28       2.1982      2.00000
     29       2.2076      2.00000
     30       2.3178      2.00000
     31       2.4179      2.00000
     32       2.6277      2.00000
     33       2.6404      2.00000
     34       3.1046      2.00000
     35       3.8084      2.00000
     36       3.9837      2.00000
     37       5.0854      0.00000
     38       6.2633      0.00000
     39       6.4845      0.00000
     40       7.3415      0.00000
     41       7.6172      0.00000
     42       8.3952      0.00000
     43       8.8152      0.00000
     44       8.8424      0.00000
     45       8.9870      0.00000
     46       9.3732      0.00000
     47      10.0073      0.00000
     48      10.4929      0.00000
     49      11.3711      0.00000
     50      11.7215      0.00000
     51      12.2937      0.00000
     52      12.6349      0.00000
     53      13.0865      0.00000
     54      13.2765      0.00000
     55      13.4297      0.00000
     56      13.6910      0.00000
     57      13.9504      0.00000
     58      14.1710      0.00000
     59      14.9311      0.00000
     60      15.6346      0.00000

 k-point     3 :       0.4000   -0.0000    0.0000
  band No.  band energies     occupation 
      1     -10.9865      2.00000
      2     -10.9726      2.00000
      3     -10.9249      2.00000
      4     -10.7727      2.00000
      5     -10.7082      2.00000
      6     -10.6812      2.00000
      7     -10.6284      2.00000
      8     -10.6227      2.00000
      9     -10.6086      2.00000
     10     -10.6027      2.00000
     11      -9.4154      2.00000
     12      -8.9223      2.00000
     13      -8.6576      2.00000
     14      -8.5705      2.00000
     15      -2.1188      2.00000
     16      -1.7686      2.00000
     17      -0.7658      2.00000
     18      -0.3345      2.00000
     19      -0.0667      2.00000
     20       0.1296      2.00000
     21       0.4151      2.00000
     22       0.6597      2.00000
     23       0.7438      2.00000
     24       0.8892      2.00000
     25       0.9225      2.00000
     26       1.2386      2.00000
     27       2.1919      2.00000
     28       2.2133      2.00000
     29       2.2635      2.00000
     30       2.3662      2.00000
     31       2.4942      2.00000
     32       2.6825      2.00000
     33       2.8320      2.00000
     34       2.9828      2.00000
     35       3.2287      2.00000
     36       3.6686      2.00000
     37       5.8808      0.00000
     38       6.4185      0.00000
     39       7.1560      0.00000
     40       7.4825      0.00000
     41       7.8098      0.00000
     42       8.2763      0.00000
     43       8.7050      0.00000
     44       8.9120      0.00000
     45       9.3207      0.00000
     46       9.5538      0.00000
     47      10.0675      0.00000
     48      10.3197      0.00000
     49      10.9573      0.00000
     50      11.5998      0.00000
     51      11.6523      0.00000
     52      12.0141      0.00000
     53      12.1198      0.00000
     54      12.3304      0.00000
     55      12.9507      0.00000
     56      13.4278      0.00000
     57      14.1013      0.00000
     58      14.3877      0.00000
     59      15.2374      0.00000
     60      15.5851      0.00000

 k-point     4 :       0.2000    0.2000    0.0000
  band No.  band energies     occupation 
      1     -10.9761      2.00000
      2     -10.9731      2.00000
      3     -10.9317      2.00000
      4     -10.7650      2.00000
      5     -10.6989      2.00000
      6     -10.6884      2.00000
      7     -10.6308      2.00000
      8     -10.6173      2.00000
      9     -10.6142      2.00000
     10     -10.6007      2.00000
     11      -9.5907      2.00000
     12      -8.7011      2.00000
     13      -8.6446      2.00000
     14      -8.6066      2.00000
     15      -2.2569      2.00000
     16      -1.8843      2.00000
     17      -0.9138      2.00000
     18      -0.0420      2.00000
     19       0.0976      2.00000
     20       0.2427      2.00000
     21       0.2582      2.00000
     22       0.7312      2.00000
     23       0.7857      2.00000
     24       0.8973      2.00000
     25       1.0828      2.00000
     26       1.1573      2.00000
     27       2.1334      2.00000
     28       2.2252      2.00000
     29       2.3120      2.00000
     30       2.3158      2.00000
     31       2.4883      2.00000
     32       2.6206      2.00000
     33       2.6913      2.00000
     34       2.9937      2.00000
     35       3.8327      2.00000
     36       3.8532      2.00000
     37       5.1321      0.00000
     38       6.0190      0.00000
     39       6.8333      0.00000
     40       6.8948      0.00000
     41       7.4309      0.00000
     42       8.5563      0.00000
     43       8.9898      0.00000
     44       9.0180      0.00000
     45       9.2143      0.00000
     46       9.4515      0.00000
     47      10.4038      0.00000
     48      10.5664      0.00000
     49      10.9420      0.00000
     50      11.5593      0.00000
     51      11.7701      0.00000
     52      12.2775      0.00000
     53      12.9117      0.00000
     54      13.2995      0.00000
     55      13.5094      0.00000
     56      13.6833      0.00000
     57      13.7287      0.00000
     58      13.8694      0.00000
     59      15.5564      0.00000
     60      15.7787      0.00000

 k-point     5 :       0.4000    0.2000    0.0000
  band No.  band energies     occupation 
      1     -10.9910      2.00000
      2     -10.9783      2.00000
      3     -10.9057      2.00000
      4     -10.7984      2.00000
      5     -10.7043      2.00000
      6     -10.6874      2.00000
      7     -10.6256      2.00000
      8     -10.6207      2.00000
      9     -10.6083      2.00000
     10     -10.6035      2.00000
     11      -9.2560      2.00000
     12      -8.9458      2.00000
     13      -8.7385      2.00000
     14      -8.6135      2.00000
     15      -2.1821      2.00000
     16      -1.9314      2.00000
     17      -0.9681      2.00000
     18      -0.5166      2.00000
     19       0.0149      2.00000
     20       0.3142      2.00000
     21       0.5964      2.00000
     22       0.7105      2.00000
     23       0.8368      2.00000
     24       0.9299      2.00000
     25       1.0973      2.00000
     26       1.1892      2.00000
     27       2.1618      2.00000
     28       2.2063      2.00000
     29       2.2826      2.00000
     30       2.3669      2.00000
     31       2.6611      2.00000
     32       2.7118      2.00000
     33       2.8898      2.00000
     34       3.0604      2.00000
     35       3.3815      2.00000
     36       3.6044      2.00000
     37       5.5122      0.00000
     38       6.0408      0.00000
     39       6.9823      0.00000
     40       7.5209      0.00000
     41       7.9215      0.00000
     42       8.4095      0.00000
     43       8.7253      0.00000
     44       9.0436      0.00000
     45       9.3054      0.00000
     46       9.7047      0.00000
     47      10.3250      0.00000
     48      10.3765      0.00000
     49      10.5668      0.00000
     50      11.0539      0.00000
     51      11.3358      0.00000
     52      11.9320      0.00000
     53      12.6171      0.00000
     54      13.0195      0.00000
     55      13.3222      0.00000
     56      13.5712      0.00000
     57      13.8030      0.00000
     58      14.5636      0.00000
     59      15.3612      0.00000
     60      15.6098      0.00000

 k-point     6 :      -0.4000    0.2000    0.0000
  band No.  band energies     occupation 
      1     -10.9907      2.00000
      2     -10.9767      2.00000
      3     -10.9163      2.00000
      4     -10.7776      2.00000
      5     -10.7078      2.00000
      6     -10.6901      2.00000
      7     -10.6241      2.00000
      8     -10.6194      2.00000
      9     -10.6095      2.00000
     10     -10.6051      2.00000
     11      -9.3974      2.00000
     12      -8.8415      2.00000
     13      -8.7281      2.00000
     14      -8.5636      2.00000
     15      -2.2235      2.00000
     16      -1.9562      2.00000
     17      -0.9848      2.00000
     18      -0.3627      2.00000
     19      -0.1738      2.00000
     20       0.3122      2.00000
[...]
      7     -10.6252      2.00000
      8     -10.6223      2.00000
      9     -10.6066      2.00000
     10     -10.6039      2.00000
     11      -9.1629      2.00000
     12      -8.9763      2.00000
     13      -8.8192      2.00000
     14      -8.6064      2.00000
     15      -2.1411      2.00000
     16      -1.9560      2.00000
     17      -0.8995      2.00000
     18      -0.5939      2.00000
     19      -0.0044      2.00000
     20       0.4699      2.00000
     21       0.5949      2.00000
     22       0.6799      2.00000
     23       0.7748      2.00000
     24       0.9953      2.00000
     25       1.0694      2.00000
     26       1.1692      2.00000
     27       2.1751      2.00000
     28       2.1870      2.00000
     29       2.2470      2.00000
     30       2.4041      2.00000
     31       2.5817      2.00000
     32       2.7094      2.00000
     33       2.9201      2.00000
     34       3.1804      2.00000
     35       3.2887      2.00000
     36       3.5962      2.00000
     37       5.5690      0.00000
     38       5.9520      0.00000
     39       6.9700      0.00000
     40       7.6007      0.00000
     41       7.9630      0.00000
     42       8.2693      0.00000
     43       8.5966      0.00000
     44       9.0108      0.00000
     45       9.3674      0.00000
     46       9.7682      0.00000
     47      10.0525      0.00000
     48      10.3156      0.00000
     49      10.5455      0.00000
     50      10.9094      0.00000
     51      11.5457      0.00000
     52      12.1635      0.00000
     53      12.6956      0.00000
     54      13.0049      0.00000
     55      13.3079      0.00000
     56      13.6319      0.00000
     57      13.8465      0.00000
     58      14.9441      0.00000
     59      15.0701      0.00000
     60      15.4645      0.00000

 k-point    31 :      -0.2000    0.2000    0.5000
  band No.  band energies     occupation 
      1     -10.9789      2.00000
      2     -10.9789      2.00000
      3     -10.8656      2.00000
      4     -10.8656      2.00000
      5     -10.6815      2.00000
      6     -10.6815      2.00000
      7     -10.6292      2.00000
      8     -10.6292      2.00000
      9     -10.6023      2.00000
     10     -10.6023      2.00000
     11      -9.1405      2.00000
     12      -9.1405      2.00000
     13      -8.6622      2.00000
     14      -8.6622      2.00000
     15      -2.0482      2.00000
     16      -2.0482      2.00000
     17      -0.5722      2.00000
     18      -0.5722      2.00000
     19       0.4637      2.00000
     20       0.4637      2.00000
     21       0.6220      2.00000
     22       0.6220      2.00000
     23       0.8299      2.00000
     24       0.8299      2.00000
     25       1.0480      2.00000
     26       1.0480      2.00000
     27       2.1823      2.00000
     28       2.1823      2.00000
     29       2.2635      2.00000
     30       2.2635      2.00000
     31       2.5818      2.00000
     32       2.5818      2.00000
     33       3.1305      2.00000
     34       3.1305      2.00000
     35       3.2739      2.00000
     36       3.2739      2.00000
     37       5.7951      0.00000
     38       5.7951      0.00000
     39       6.5774      0.00000
     40       6.5774      0.00000
     41       7.5666      0.00000
     42       7.5666      0.00000
     43       8.5462      0.00000
     44       8.5462      0.00000
     45       9.6542      0.00000
     46       9.6542      0.00000
     47      10.3851      0.00000
     48      10.3851      0.00000
     49      11.3166      0.00000
     50      11.3166      0.00000
     51      12.5580      0.00000
     52      12.5580      0.00000
     53      13.1297      0.00000
     54      13.1298      0.00000
     55      13.6358      0.00000
     56      13.6358      0.00000
     57      14.8681      0.00000
     58      14.8697      0.00000
     59      15.0200      0.00000
     60      15.0226      0.00000

 k-point    32 :       0.4000    0.4000    0.5000
  band No.  band energies     occupation 
      1     -10.9935      2.00000
      2     -10.9881      2.00000
      3     -10.8872      2.00000
      4     -10.8109      2.00000
      5     -10.7053      2.00000
      6     -10.6997      2.00000
      7     -10.6185      2.00000
      8     -10.6138      2.00000
      9     -10.6118      2.00000
     10     -10.6086      2.00000
     11      -9.1891      2.00000
     12      -8.8778      2.00000
     13      -8.7823      2.00000
     14      -8.6493      2.00000
     15      -2.3225      2.00000
     16      -2.1983      2.00000
     17      -1.1211      2.00000
     18      -0.7779      2.00000
     19      -0.0372      2.00000
     20       0.5532      2.00000
     21       0.7741      2.00000
     22       0.8049      2.00000
     23       0.8553      2.00000
     24       1.0005      2.00000
     25       1.2126      2.00000
     26       1.2979      2.00000
     27       2.1721      2.00000
     28       2.1914      2.00000
     29       2.3413      2.00000
     30       2.3809      2.00000
     31       2.8517      2.00000
     32       2.8845      2.00000
     33       3.0639      2.00000
     34       3.0928      2.00000
     35       3.4406      2.00000
     36       3.7459      2.00000
     37       5.3779      0.00000
     38       5.4121      0.00000
     39       7.0488      0.00000
     40       7.1424      0.00000
     41       8.3217      0.00000
     42       8.5126      0.00000
     43       8.9993      0.00000
     44       9.0478      0.00000
     45       9.6087      0.00000
     46       9.6301      0.00000
     47      10.1190      0.00000
     48      10.2766      0.00000
     49      10.5987      0.00000
     50      10.9325      0.00000
     51      11.6755      0.00000
     52      11.7420      0.00000
     53      12.5741      0.00000
     54      13.0949      0.00000
     55      13.6580      0.00000
     56      13.6991      0.00000
     57      13.7158      0.00000
     58      14.4068      0.00000
     59      15.0810      0.00000
     60      15.1927      0.00000

 k-point    33 :      -0.4000    0.4000    0.5000
  band No.  band energies     occupation 
      1     -10.9919      2.00000
      2     -10.9919      2.00000
      3     -10.8524      2.00000
      4     -10.8524      2.00000
      5     -10.6996      2.00000
      6     -10.6996      2.00000
      7     -10.6181      2.00000
      8     -10.6181      2.00000
      9     -10.6082      2.00000
     10     -10.6082      2.00000
     11      -8.9936      2.00000
     12      -8.9936      2.00000
     13      -8.7643      2.00000
     14      -8.7643      2.00000
     15      -2.2398      2.00000
     16      -2.2398      2.00000
     17      -0.9576      2.00000
     18      -0.9576      2.00000
     19       0.2512      2.00000
     20       0.2512      2.00000
     21       0.7639      2.00000
     22       0.7639      2.00000
     23       1.0176      2.00000
     24       1.0176      2.00000
     25       1.1929      2.00000
     26       1.1929      2.00000
     27       2.1839      2.00000
     28       2.1839      2.00000
     29       2.3526      2.00000
     30       2.3526      2.00000
     31       2.8059      2.00000
     32       2.8059      2.00000
     33       3.2931      2.00000
     34       3.2931      2.00000
     35       3.5268      2.00000
     36       3.5268      2.00000
     37       5.1705      0.00000
     38       5.1705      0.00000
     39       7.5412      0.00000
     40       7.5412      0.00000
     41       8.1902      0.00000
     42       8.1902      0.00000
     43       8.9118      0.00000
     44       8.9118      0.00000
     45       9.5427      0.00000
     46       9.5427      0.00000
     47       9.8758      0.00000
     48       9.8758      0.00000
     49      10.9270      0.00000
     50      10.9270      0.00000
     51      11.7971      0.00000
     52      11.7971      0.00000
     53      12.7692      0.00000
     54      12.7692      0.00000
     55      13.4741      0.00000
     56      13.4742      0.00000
     57      14.7703      0.00000
     58      14.7741      0.00000
     59      14.8841      0.00000
     60      14.9148      0.00000


--------------------------------------------------------------------------------------------------------


 soft charge-density along one line, spin component           1
         0         1         2         3         4         5         6         7         8         9
 total charge-density along one line
 
 pseudopotential strength for first ion, spin component:           1
-12.899  -0.001  -0.000  -0.001  -0.001   3.179   0.001   0.000
 -0.001 -12.902  -0.002  -0.001  -0.001   0.001   3.181   0.001
 -0.000  -0.002 -12.901  -0.001  -0.000   0.000   0.001   3.180
 -0.001  -0.001  -0.001 -12.902   0.001   0.000   0.000   0.001
 -0.001  -0.001  -0.000   0.001 -12.902   0.001   0.000   0.000
  3.179   0.001   0.000   0.000   0.001   4.767  -0.000  -0.000
  0.001   3.181   0.001   0.000   0.000  -0.000   4.766  -0.000
  0.000   0.001   3.180   0.001   0.000  -0.000  -0.000   4.767
  0.000   0.000   0.001   3.181  -0.001  -0.000  -0.000  -0.000
  0.001   0.000   0.000  -0.001   3.181  -0.000  -0.000   0.000
 -0.000  -0.000  -0.000  -0.000   0.000  -0.000  -0.000  -0.000
 -0.000  -0.000  -0.000  -0.000   0.000  -0.000  -0.000  -0.000
  0.000  -0.000  -0.000   0.000   0.000  -0.000   0.000   0.000
  0.000  -0.000   0.000  -0.000  -0.000  -0.000   0.000  -0.000
  0.000   0.000  -0.000  -0.000  -0.000  -0.000  -0.000   0.000
  0.001  -0.000  -0.000   0.000   0.000  -0.000   0.000   0.000
  0.000  -0.000   0.001  -0.000  -0.000  -0.000   0.000  -0.000
  0.001   0.000  -0.000  -0.001  -0.001  -0.000  -0.000   0.000
 total augmentation occupancy for first ion, spin component:           1
  2.000   0.000   0.000   0.000  -0.000   0.000   0.000   0.000   0.000   0.000   0.000   0.000   0.000   0.000   0.000   0.000
  0.000   2.000   0.000  -0.000  -0.000   0.000   0.000   0.000   0.000   0.000   0.000   0.000   0.000   0.000   0.000   0.000
  0.000   0.000   2.000   0.000  -0.000   0.000   0.000   0.000   0.000   0.000   0.000   0.000   0.000   0.000   0.000   0.000
  0.000  -0.000   0.000   2.000   0.000   0.000   0.000   0.000   0.000   0.000   0.000   0.000   0.000   0.000   0.000   0.000
 -0.000  -0.000  -0.000   0.000   2.000   0.000   0.000   0.000   0.000   0.000   0.000   0.000   0.000   0.000   0.000   0.000
  0.000   0.000   0.000   0.000   0.000   0.000   0.000   0.000   0.000   0.000   0.000   0.000   0.000   0.000   0.000   0.000
  0.000   0.000   0.000   0.000   0.000   0.000   0.000   0.000   0.000   0.000   0.000   0.000   0.000   0.000   0.000   0.000
  0.000   0.000   0.000   0.000   0.000   0.000   0.000   0.000   0.000   0.000   0.000   0.000   0.000   0.000   0.000   0.000
  0.000   0.000   0.000   0.000   0.000   0.000   0.000   0.000   0.000   0.000   0.000   0.000   0.000   0.000   0.000   0.000
  0.000   0.000   0.000   0.000   0.000   0.000   0.000   0.000   0.000   0.000   0.000   0.000   0.000   0.000   0.000   0.000
  0.000   0.000   0.000   0.000   0.000   0.000   0.000   0.000   0.000   0.000   2.000   0.000   0.000   0.000   0.000   0.000
  0.000   0.000   0.000   0.000   0.000   0.000   0.000   0.000   0.000   0.000   0.000   0.000   0.000   0.000   0.000   0.000
  0.000   0.000   0.000   0.000   0.000   0.000   0.000   0.000   0.000   0.000   0.000   0.000   0.333   0.000  -0.000   0.000
  0.000   0.000   0.000   0.000   0.000   0.000   0.000   0.000   0.000   0.000   0.000   0.000   0.000   0.333   0.000   0.000
  0.000   0.000   0.000   0.000   0.000   0.000   0.000   0.000   0.000   0.000   0.000   0.000  -0.000   0.000   0.333   0.000
  0.000   0.000   0.000   0.000   0.000   0.000   0.000   0.000   0.000   0.000   0.000   0.000   0.000   0.000   0.000   0.000
  0.000   0.000   0.000   0.000   0.000   0.000   0.000   0.000   0.000   0.000   0.000   0.000   0.000   0.000   0.000   0.000
  0.000   0.000   0.000   0.000   0.000   0.000   0.000   0.000   0.000   0.000   0.000   0.000   0.000   0.000   0.000   0.000


------------------------ aborting loop because EDIFF is reached ----------------------------------------





 total charge

# of ion       s       p       d       tot
------------------------------------------
    1        0.839   0.650   9.908  11.397
    2        0.839   0.650   9.908  11.397
    3        0.372   0.335   9.266   9.972
    4        0.372   0.335   9.266   9.972
    5        1.453   2.347   0.042   3.843
    6        1.453   2.347   0.042   3.843
    7        1.453   2.347   0.042   3.843
    8        1.453   2.347   0.042   3.843
--------------------------------------------------
tot          8.234  11.358  38.518  58.111
 
    CHARGE:  cpu time      0.0330: real time      0.0331
    FORLOC:  cpu time      0.0011: real time      0.0011
    FORNL :  cpu time      0.0845: real time      0.0854
    STRESS:  cpu time      0.3262: real time      0.3276
    FORCOR:  cpu time      0.0108: real time      0.0111
    FORHAR:  cpu time      0.0046: real time      0.0049
    OFIELD:  cpu time      0.0005: real time      0.0005

  FORCE on cell =-STRESS in cart. coord.  units (eV):
  Direction    XX          YY          ZZ          XY          YZ          ZX
  --------------------------------------------------------------------------------------
  Alpha Z   185.64930   185.64930   185.64930
  Ewald   -1561.86292 -1561.07209 -1555.43578     1.94974     4.37352     3.57555
  Hartree   766.89145   767.28870   770.12021     0.97952     2.19721     1.79635
  E(xc)    -345.89352  -345.89617  -345.91506    -0.00654    -0.01467    -0.01199
  Local    -395.63449  -396.84609  -405.48202    -2.98749    -6.70139    -5.47878
  n-local   197.42322   197.49178   197.49884     0.00399    -0.02277     0.07967
  augment   486.91572   486.88331   486.65491    -0.07981    -0.17893    -0.14627
  Kinetic   664.08167   667.51677   666.17508    -0.22796    -0.34617     0.95693
  Fock        0.00000     0.00000     0.00000     0.00000     0.00000     0.00000
  -------------------------------------------------------------------------------------
  Total      -0.69784    -0.70387    -0.74686    -0.01487    -0.03336    -0.02727
  in kB      -5.69003    -5.73920    -6.08973    -0.12126    -0.27200    -0.22238
  external pressure =       -5.84 kB  Pullay stress =        0.00 kB


 VOLUME and BASIS-vectors are now :
 -----------------------------------------------------------------------------
  energy-cutoff  :      680.00
  volume of cell :      196.49
      direct lattice vectors                 reciprocal lattice vectors
     5.302919200  0.000000000 -2.364029390     0.188575379  0.038239427  0.000000000
    -1.053879568  5.197142179 -2.364029719     0.000000000  0.192413439  0.000000000
     0.000000000  0.000000000  7.129686600     0.062526975  0.076478848  0.140258620

  length of vectors
     5.805995780  5.805995650  7.129686600     0.192413429  0.192413439  0.171554998


 FORCES acting on ions
    electron-ion (+dipol)            ewald-force                    non-local-force                 convergence-correction
 -----------------------------------------------------------------------------------------------
   0.515E-05 -.130E-04 0.216E-04   -.721E-05 0.183E-04 -.323E-04   0.570E-18 0.990E-19 -.927E-18   -.172E-08 0.131E-07 0.141E-08
   0.677E-05 -.112E-04 0.209E-04   -.117E-04 0.185E-04 -.315E-04   -.126E-17 -.982E-19 0.302E-17   0.625E-08 -.905E-08 0.570E-08
   0.693E-05 -.105E-04 0.189E-04   -.132E-04 0.197E-04 -.336E-04   -.215E-18 0.104E-17 -.177E-18   0.782E-08 -.472E-08 -.169E-07
   0.443E-05 -.118E-04 0.196E-04   -.702E-05 0.196E-04 -.347E-04   -.159E-17 0.112E-17 -.162E-17   0.149E-08 0.149E-07 -.207E-07
   -.373E+01 0.136E-04 0.166E+01   0.229E+01 -.183E-04 -.102E+01   0.127E+01 -.998E-19 -.565E+00   0.258E-01 -.303E-08 -.115E-01
   0.373E+01 0.160E-04 -.166E+01   -.229E+01 -.197E-04 0.102E+01   -.127E+01 -.511E-19 0.565E+00   -.258E-01 -.218E-08 0.115E-01
   -.740E+00 0.365E+01 -.166E+01   0.456E+00 -.225E+01 0.102E+01   0.252E+00 -.124E+01 0.565E+00   0.513E-02 -.253E-01 0.115E-01
   0.740E+00 -.365E+01 0.166E+01   -.456E+00 0.225E+01 -.102E+01   -.252E+00 0.124E+01 -.565E+00   -.513E-02 0.253E-01 -.115E-01
 -----------------------------------------------------------------------------------------------
   -.113E-04 0.123E-04 -.236E-04   0.339E-14 -.178E-13 0.000E+00   -.167E-15 0.222E-15 0.000E+00   0.115E-07 0.426E-08 -.216E-07
 
 
 POSITION                                       TOTAL-FORCE (eV/Angst)
 -----------------------------------------------------------------------------------
      2.12452      2.59857     -2.36403         0.000000     -0.000000      0.000000
      3.71372      1.29929      1.20081         0.000000     -0.000000      0.000000
      0.00000      0.00000      0.00000         0.000000     -0.000000      0.000000
      0.53532      3.89786      1.20081         0.000000      0.000000      0.000000
      1.43516      1.94893      0.07994        -0.139316     -0.000000      0.062107
      3.87614      4.54750     -2.42517         0.139316      0.000000     -0.062107
     -0.02726      3.40329      3.50370        -0.027687      0.136537     -0.062107
      3.21404      0.49457      3.64478         0.027687     -0.136537      0.062107
 -----------------------------------------------------------------------------------
    total drift:                               -0.000011      0.000012     -0.000024


--------------------------------------------------------------------------------------------------------



  FREE ENERGIE OF THE ION-ELECTRON SYSTEM (eV)
  ---------------------------------------------------
  free  energy   TOTEN  =       -33.26384343 eV

  energy  without entropy=      -33.26384343  energy(sigma->0) =      -33.26384343
 


--------------------------------------------------------------------------------------------------------


    POTLOK:  cpu time      0.1387: real time      0.1391


--------------------------------------------------------------------------------------------------------


 writing wavefunctions
     LOOP+:  cpu time     13.0657: real time     13.3154
    4ORBIT:  cpu time      0.0000: real time      0.0000



 total charge

# of ion       s       p       d       tot
------------------------------------------
    1        0.839   0.650   9.908  11.397
    2        0.839   0.650   9.908  11.397
    3        0.372   0.335   9.266   9.972
    4        0.372   0.335   9.266   9.972
    5        1.453   2.347   0.042   3.843
    6        1.453   2.347   0.042   3.843
    7        1.453   2.347   0.042   3.843
    8        1.453   2.347   0.042   3.843
--------------------------------------------------
tot          8.234  11.358  38.518  58.111
 
 BZINTS: Fermi energy:    4.134979;   72.000000 electrons
         Band energy:-0.231073E+03;  BLOECHL correction:    0.000000

 total amount of memory used by VASP MPI-rank0    46168. kBytes
=======================================================================

   base      :      30000. kBytes
   nonl-proj :      11564. kBytes
   fftplans  :        932. kBytes
   grid      :       1472. kBytes
   one-center:         15. kBytes
   wavefun   :       2185. kBytes
 
  
  
 General timing and accounting informations for this job:
 ========================================================
  
                  Total CPU time used (sec):       26.208
                            User time (sec):       21.154
                          System time (sec):        5.054
                         Elapsed time (sec):       27.232
  
                   Maximum memory used (kb):      212532.
                   Average memory used (kb):          N/A
  
                          Minor page faults:        37517
                          Major page faults:            0
                 Voluntary context switches:         2153
