<?xml version="1.0" encoding="ISO-8859-1"?>
<modeling>
 <generator>
  <i name="program" type="string">vasp </i>
  <i name="version" type="string">6.4.2  </i>
  <i name="subversion" type="string">20Jul23 (build Mar 15 2024 16:31:38) complex                          parallel </i>
  <i name="platform" type="string">LinuxIFC </i>
  <i name="date" type="string">2025 03 19 </i>
  <i name="time" type="string">14:53:51 </i>
 </generator>
 <incar>
  <i type="string" name="PREC">Accurate</i>
  <i type="string" name="ALGO">Fast</i>
  <i type="int" name="ISPIN">     1</i>
  <i type="int" name="ICHARG">    11</i>
  <i type="int" name="NELM">   200</i>
  <i name="EDIFF">      0.00001000</i>
  <i type="int" name="NSW">     0</i>
  <i type="int" name="ISYM">     2</i>
  <i name="ENCUT">    680.00000000</i>
  <i name="ENAUG">   1360.00000000</i>
  <i type="int" name="NBANDS">    58</i>
  <i type="int" name="NEDOS">  1134</i>
  <i type="logical" name="LREAL"> F  </i>
  <i type="int" name="ISMEAR">    -5</i>
  <i name="SIGMA">      0.05000000</i>
  <i type="int" name="LMAXMIX">     4</i>
  <i type="logical" name="LWAVE"> T  </i>
  <i type="logical" name="LCHARG"> F  </i>
  <i type="logical" name="LVTOT"> T  </i>
  <i type="int" name="LORBIT">    11</i>
  <i type="logical" name="LELF"> F  </i>
  <i type="logical" name="LASPH"> T  </i>
  <i type="logical" name="LAECHG"> T  </i>
  <i type="string" name="GGA">Ps</i>
  <i type="logical" name="LMIXTAU"> T  </i>
 </incar>
 <primitive_cell>
  <structure name="primitive_cell" >
   <crystal>
    <varray name="basis" >
     <v>       5.30291920       0.00000000      -2.36402939 </v>
     <v>      -1.05387957       5.19714218      -2.36402972 </v>
     <v>       0.00000000       0.00000000       7.12968660 </v>
    </varray>
    <i name="volume">    196.49434127 </i>
    <varray name="rec_basis" >
     <v>       0.18857538       0.03823943       0.00000000 </v>
     <v>       0.00000000       0.19241344       0.00000000 </v>
     <v>       0.06252698       0.07647885       0.14025862 </v>
    </varray>
   </crystal>
   <varray name="positions" >
    <v>       0.50000000       0.50000000       1.00000000 </v>
    <v>       0.75000000       0.25000000       0.50000000 </v>
    <v>       0.00000000       0.00000000       0.00000000 </v>
    <v>       0.25000000       0.75000000       0.50000000 </v>
    <v>       0.34516103       0.37500000       0.25000000 </v>
    <v>       0.90483897       0.87500000       0.25000000 </v>
    <v>       0.12500000       0.65483897       0.75000000 </v>
    <v>       0.62500000       0.09516103       0.75000000 </v>
   </varray>
  </structure>
  <varray name="primitive_index" >
   <v type="int" >        1 </v>
   <v type="int" >        2 </v>
   <v type="int" >        3 </v>
   <v type="int" >        4 </v>
   <v type="int" >        5 </v>
   <v type="int" >        6 </v>
   <v type="int" >        7 </v>
   <v type="int" >        8 </v>
  </varray>
 </primitive_cell>
 <kpoints>
  <generation param="Gamma">
   <v type="int" name="divisions">       5        5        4 </v>
   <v name="usershift">      0.00000000       0.00000000       0.00000000 </v>
   <v name="genvec1">      0.20000000      -0.00000000       0.00000000 </v>
   <v name="genvec2">      0.00000000       0.20000000       0.00000000 </v>
   <v name="genvec3">     -0.00000000      -0.00000000       0.25000000 </v>
   <v name="shift">      0.00000000       0.00000000       0.00000000 </v>
  </generation>
  <varray name="kpointlist" >
   <v>       0.00000000       0.00000000       0.00000000 </v>
   <v>       0.20000000       0.00000000       0.00000000 </v>
   <v>       0.40000000      -0.00000000       0.00000000 </v>
   <v>       0.20000000       0.20000000       0.00000000 </v>
   <v>       0.40000000       0.20000000       0.00000000 </v>
   <v>      -0.40000000       0.20000000       0.00000000 </v>
   <v>      -0.20000000       0.20000000       0.00000000 </v>
   <v>       0.40000000       0.40000000       0.00000000 </v>
   <v>      -0.40000000       0.40000000       0.00000000 </v>
   <v>      -0.00000000      -0.00000000       0.25000000 </v>
   <v>       0.20000000       0.00000000       0.25000000 </v>
   <v>       0.40000000      -0.00000000       0.25000000 </v>
   <v>      -0.40000000       0.00000000       0.25000000 </v>
   <v>      -0.20000000      -0.00000000       0.25000000 </v>
   <v>       0.20000000       0.20000000       0.25000000 </v>
   <v>       0.40000000       0.20000000       0.25000000 </v>
   <v>      -0.40000000       0.20000000       0.25000000 </v>
   <v>      -0.20000000       0.20000000       0.25000000 </v>
   <v>       0.40000000       0.40000000       0.25000000 </v>
   <v>      -0.40000000       0.40000000       0.25000000 </v>
   <v>      -0.20000000       0.40000000       0.25000000 </v>
   <v>      -0.40000000      -0.40000000       0.25000000 </v>
   <v>      -0.20000000      -0.40000000       0.25000000 </v>
   <v>      -0.20000000      -0.20000000       0.25000000 </v>
   <v>      -0.00000000      -0.00000000       0.50000000 </v>
   <v>       0.20000000      -0.00000000       0.50000000 </v>
   <v>       0.40000000      -0.00000000       0.50000000 </v>
   <v>       0.20000000       0.20000000       0.50000000 </v>
   <v>       0.40000000       0.20000000       0.50000000 </v>
   <v>      -0.40000000       0.20000000       0.50000000 </v>
   <v>      -0.20000000       0.20000000       0.50000000 </v>
   <v>       0.40000000       0.40000000       0.50000000 </v>
   <v>      -0.40000000       0.40000000       0.50000000 </v>
  </varray>
  <varray name="weights" >
   <v>       0.01000000 </v>
   <v>       0.04000000 </v>
   <v>       0.04000000 </v>
   <v>       0.02000000 </v>
   <v>       0.04000000 </v>
   <v>       0.04000000 </v>
   <v>       0.02000000 </v>
   <v>       0.02000000 </v>
   <v>       0.02000000 </v>
   <v>       0.02000000 </v>
   <v>       0.04000000 </v>
   <v>       0.04000000 </v>
   <v>       0.04000000 </v>
   <v>       0.04000000 </v>
   <v>       0.02000000 </v>
   <v>       0.04000000 </v>
   <v>       0.04000000 </v>
   <v>       0.04000000 </v>
   <v>       0.02000000 </v>
   <v>       0.04000000 </v>
   <v>       0.04000000 </v>
   <v>       0.02000000 </v>
   <v>       0.04000000 </v>
   <v>       0.02000000 </v>
   <v>       0.01000000 </v>
   <v>       0.04000000 </v>
   <v>       0.04000000 </v>
   <v>       0.02000000 </v>
   <v>       0.04000000 </v>
   <v>       0.04000000 </v>
   <v>       0.02000000 </v>
   <v>       0.02000000 </v>
   <v>       0.02000000 </v>
  </varray>
  <varray name="tetrahedronlist"  type="int" >
   <v type="int" >        4       11       12       18       31 </v>
   <v type="int" >        4       12       18       21       31 </v>
   <v type="int" >        4       12       21       30       31 </v>
   <v type="int" >        4       11       12       26       31 </v>
   <v type="int" >        4       12       26       27       31 </v>
   <v type="int" >        4       12       27       30       31 </v>
   <v type="int" >        4       12       13       21       30 </v>
   <v type="int" >        4       13       21       23       30 </v>
   <v type="int" >        4       13       23       29       30 </v>
   <v type="int" >        4       12       13       27       30 </v>
   <v type="int" >        4       13       27       27       30 </v>
   <v type="int" >        4       13       27       29       30 </v>
   <v type="int" >        4       13       14       23       29 </v>
   <v type="int" >        4       14       23       24       29 </v>
   <v type="int" >        4       14       24       28       29 </v>
   <v type="int" >        4       13       14       27       29 </v>
   <v type="int" >        4       14       26       27       29 </v>
   <v type="int" >        4       14       26       28       29 </v>
   <v type="int" >        4       10       14       24       28 </v>
   <v type="int" >        4       10       14       26       28 </v>
   <v type="int" >        4       10       25       26       28 </v>
   <v type="int" >        4       10       11       14       26 </v>
   <v type="int" >        4       11       14       18       26 </v>
   <v type="int" >        4       11       18       26       31 </v>
   <v type="int" >        4       10       11       25       26 </v>
   <v type="int" >        4       11       25       26       26 </v>
   <v type="int" >        4       11       26       26       31 </v>
   <v type="int" >        4       21       30       30       31 </v>
   <v type="int" >        4       21       30       30       33 </v>
   <v type="int" >        4       20       21       30       33 </v>
   <v type="int" >        4       18       21       30       31 </v>
   <v type="int" >        4       17       18       21       30 </v>
   <v type="int" >        4       17       20       21       30 </v>
   <v type="int" >        4       20       29       30       33 </v>
   <v type="int" >        4       20       29       32       33 </v>
   <v type="int" >        4       19       20       29       32 </v>
   <v type="int" >        4       17       20       29       30 </v>
   <v type="int" >        4       16       17       20       29 </v>
   <v type="int" >        4       16       19       20       29 </v>
   <v type="int" >        4       19       28       29       32 </v>
   <v type="int" >        4       16       19       28       29 </v>
   <v type="int" >        4       15       16       19       28 </v>
   <v type="int" >        4       16       26       28       29 </v>
   <v type="int" >        4       16       26       27       29 </v>
   <v type="int" >        4       12       16       26       27 </v>
   <v type="int" >        4       15       16       26       28 </v>
   <v type="int" >        4       11       15       16       26 </v>
   <v type="int" >        4       11       12       16       26 </v>
   <v type="int" >        4        5       20       21       23 </v>
   <v type="int" >        4        5       20       22       23 </v>
   <v type="int" >        4        5        8       20       22 </v>
   <v type="int" >        4        5        6       20       21 </v>
   <v type="int" >        4        5        6        9       20 </v>
   <v type="int" >        4        5        8        9       20 </v>
   <v type="int" >        4        8       19       20       22 </v>
   <v type="int" >        4        8        9       19       20 </v>
   <v type="int" >        4        8        8        9       19 </v>
   <v type="int" >        4        9       16       19       20 </v>
   <v type="int" >        4        9       16       17       20 </v>
   <v type="int" >        4        6        9       16       17 </v>
   <v type="int" >        4        8        9       16       19 </v>
   <v type="int" >        4        5        8        9       16 </v>
   <v type="int" >        4        5        6        9       16 </v>
   <v type="int" >        4        6       12       16       17 </v>
   <v type="int" >        4        6       12       13       17 </v>
   <v type="int" >        4        3        6       12       13 </v>
   <v type="int" >        4        5        6       12       16 </v>
   <v type="int" >        4        3        5        6       12 </v>
   <v type="int" >        4        3        3        6       12 </v>
   <v type="int" >        4        3       12       13       21 </v>
   <v type="int" >        4        3       13       21       23 </v>
   <v type="int" >        4        3        5       21       23 </v>
   <v type="int" >        4        3        3       12       21 </v>
   <v type="int" >        4        3        3        6       21 </v>
   <v type="int" >        4        3        5        6       21 </v>
   <v type="int" >        4        4        5        8       15 </v>
   <v type="int" >        4        5        8       15       16 </v>
   <v type="int" >        4        8       15       16       19 </v>
   <v type="int" >        4        6        6        9       17 </v>
   <v type="int" >        4        6        6        7       17 </v>
   <v type="int" >        4        6        7       17       18 </v>
   <v type="int" >        4        6        9       17       20 </v>
   <v type="int" >        4        6       17       20       21 </v>
   <v type="int" >        4        6       17       18       21 </v>
   <v type="int" >        4        3        6        7       18 </v>
   <v type="int" >        4        2        3        7       18 </v>
   <v type="int" >        4        2        3       11       18 </v>
   <v type="int" >        4        3        6       18       21 </v>
   <v type="int" >        4        3       12       18       21 </v>
   <v type="int" >        4        3       11       12       18 </v>
   <v type="int" >        4        2        3        5       11 </v>
   <v type="int" >        4        2        4        5       11 </v>
   <v type="int" >        4        4        5       11       15 </v>
   <v type="int" >        4        3        5       11       12 </v>
   <v type="int" >        4        5       11       12       16 </v>
   <v type="int" >        4        5       11       15       16 </v>
   <v type="int" >        4       12       16       17       27 </v>
   <v type="int" >        4       12       13       17       27 </v>
   <v type="int" >        4       13       17       27       27 </v>
   <v type="int" >        4       16       17       27       29 </v>
   <v type="int" >        4       17       27       29       30 </v>
   <v type="int" >        4       17       27       27       30 </v>
   <v type="int" >        4       13       17       18       27 </v>
   <v type="int" >        4       13       14       18       27 </v>
   <v type="int" >        4       14       18       26       27 </v>
   <v type="int" >        4       17       18       27       30 </v>
   <v type="int" >        4       18       27       30       31 </v>
   <v type="int" >        4       18       26       27       31 </v>
   <v type="int" >        4       10       11       15       25 </v>
   <v type="int" >        4       11       15       25       26 </v>
   <v type="int" >        4       15       25       26       28 </v>
   <v type="int" >        4        7       13       14       18 </v>
   <v type="int" >        4        7       13       17       18 </v>
   <v type="int" >        4        6        7       13       17 </v>
   <v type="int" >        4        2        7       13       14 </v>
   <v type="int" >        4        2        3        7       13 </v>
   <v type="int" >        4        3        6        7       13 </v>
   <v type="int" >        4        4       10       11       15 </v>
   <v type="int" >        4        2        4       10       11 </v>
   <v type="int" >        4        1        2        4       10 </v>
   <v type="int" >        4        2       10       11       14 </v>
   <v type="int" >        4        2       11       14       18 </v>
   <v type="int" >        4        2        7       14       18 </v>
   <v type="int" >        4        1        2       10       14 </v>
   <v type="int" >        4        1        2        2       14 </v>
   <v type="int" >        4        2        2        7       14 </v>
   <v type="int" >        4        4        5        8       22 </v>
   <v type="int" >        4        4        5       22       23 </v>
   <v type="int" >        4        4       22       23       24 </v>
   <v type="int" >        4        2        4        5       23 </v>
   <v type="int" >        4        2        3        5       23 </v>
   <v type="int" >        4        2        3       13       23 </v>
   <v type="int" >        4        2        4       23       24 </v>
   <v type="int" >        4        2       14       23       24 </v>
   <v type="int" >        4        2       13       14       23 </v>
   <v type="int" >        4       19       20       22       32 </v>
   <v type="int" >        4       20       22       32       33 </v>
   <v type="int" >        4       22       32       32       33 </v>
   <v type="int" >        4       20       22       23       33 </v>
   <v type="int" >        4       20       21       23       33 </v>
   <v type="int" >        4       21       23       30       33 </v>
   <v type="int" >        4       22       23       32       33 </v>
   <v type="int" >        4       23       29       32       33 </v>
   <v type="int" >        4       23       29       30       33 </v>
   <v type="int" >        4       24       28       29       32 </v>
   <v type="int" >        4       23       24       29       32 </v>
   <v type="int" >        4       22       23       24       32 </v>
   <v type="int" >        4        1       10       14       24 </v>
   <v type="int" >        4        1        2       14       24 </v>
   <v type="int" >        4        1        2        4       24 </v>
  </varray>
  <i name="volumeweight">      0.00166667 </i>
 </kpoints>
 <parameters>
  <separator name="general" >
   <i type="string" name="SYSTEM">unknown system</i>
   <i type="logical" name="LCOMPAT"> F  </i>
  </separator>
  <separator name="electronic" >
   <i type="string" name="PREC">accura</i>
   <i name="ENMAX">    680.00000000</i>
   <i name="ENAUG">   1360.00000000</i>
   <i name="EDIFF">      0.00001000</i>
   <i type="int" name="IALGO">    68</i>
   <i type="int" name="IWAVPR">    10</i>
   <i type="int" name="NBANDS">    60</i>
   <i type="int" name="NBANDSLOW">    -1</i>
   <i type="int" name="NBANDSHIGH">    -1</i>
   <i name="NELECT">     72.00000000</i>
   <i type="int" name="TURBO">     0</i>
   <i type="int" name="IRESTART">     0</i>
   <i type="int" name="NREBOOT">     0</i>
   <i type="int" name="NMIN">     0</i>
   <i name="EREF">      0.00000000</i>
   <separator name="electronic smearing" >
    <i type="int" name="ISMEAR">    -5</i>
    <i name="SIGMA">      0.05000000</i>
    <i name="KSPACING">      0.50000000</i>
    <i type="logical" name="KGAMMA"> T  </i>
    <i type="logical" name="KBLOWUP"> F  </i>
   </separator>
   <separator name="electronic projectors" >
    <i type="logical" name="LREAL"> F  </i>
    <v name="ROPT">      0.00000000      0.00000000      0.00000000</v>
    <i type="int" name="LMAXPAW">  -100</i>
    <i type="int" name="LMAXMIX">     4</i>
    <i type="logical" name="NLSPLINE"> F  </i>
   </separator>
   <separator name="electronic startup" >
    <i type="int" name="ISTART">     0</i>
    <i type="int" name="ICHARG">    11</i>
    <i type="int" name="INIWAV">     1</i>
   </separator>
   <separator name="electronic spin" >
    <i type="int" name="ISPIN">     1</i>
    <i type="logical" name="LNONCOLLINEAR"> F  </i>
    <v name="MAGMOM">      1.00000000      1.00000000      1.00000000      1.00000000      1.00000000      1.00000000      1.00000000      1.00000000</v>
    <i name="NUPDOWN">     -1.00000000</i>
    <i type="logical" name="LSORBIT"> F  </i>
    <v name="SAXIS">      0.00000000      0.00000000      1.00000000</v>
    <i type="logical" name="LSPIRAL"> F  </i>
    <v name="QSPIRAL">      0.00000000      0.00000000      0.00000000</v>
    <i type="logical" name="LZEROZ"> F  </i>
   </separator>
   <separator name="electronic exchange-correlation" >
    <i type="logical" name="LASPH"> T  </i>
    <i type="logical" name="LMETAGGA"> F  </i>
   </separator>
   <separator name="electronic convergence" >
    <i type="int" name="NELM">   200</i>
    <i type="int" name="NELMDL">    -5</i>
    <i type="int" name="NELMIN">     2</i>
    <i name="ENINI">    680.00000000</i>
    <separator name="electronic convergence detail" >
     <i type="logical" name="LDIAG"> T  </i>
     <i type="logical" name="LSUBROT"> F  </i>
     <i name="WEIMIN">      0.00000000</i>
     <i name="EBREAK">      0.00000004</i>
     <i name="DEPER">      0.30000000</i>
     <i type="int" name="NRMM">     4</i>
     <i name="TIME">      0.40000000</i>
    </separator>
   </separator>
   <separator name="electronic mixer" >
    <i name="AMIX">      0.40000000</i>
    <i name="BMIX">      1.00000000</i>
    <i name="AMIN">      0.10000000</i>
    <i name="AMIX_MAG">      1.60000000</i>
    <i name="BMIX_MAG">      1.00000000</i>
    <separator name="electronic mixer details" >
     <i type="int" name="IMIX">     4</i>
     <i type="logical" name="MIXFIRST"> F  </i>
     <i type="int" name="MAXMIX">   -45</i>
     <i name="WC">    100.00000000</i>
     <i type="int" name="INIMIX">     1</i>
     <i type="int" name="MIXPRE">     1</i>
     <i type="int" name="MREMOVE">     5</i>
    </separator>
   </separator>
   <separator name="electronic dipolcorrection" >
    <i type="logical" name="LDIPOL"> F  </i>
    <i type="logical" name="LMONO"> F  </i>
    <i type="int" name="IDIPOL">     0</i>
    <i name="EPSILON">      1.00000000</i>
    <v name="DIPOL">   -100.00000000   -100.00000000   -100.00000000</v>
    <i name="EFIELD">      0.00000000</i>
   </separator>
  </separator>
  <separator name="grids" >
   <i type="int" name="NGX">    50</i>
   <i type="int" name="NGY">    50</i>
   <i type="int" name="NGZ">    64</i>
   <i type="int" name="NGXF">   100</i>
   <i type="int" name="NGYF">   100</i>
   <i type="int" name="NGZF">   128</i>
   <i type="logical" name="ADDGRID"> F  </i>
  </separator>
  <separator name="ionic" >
   <i type="int" name="NSW">     0</i>
   <i type="int" name="IBRION">    -1</i>
   <i type="int" name="MDALGO">     0</i>
   <i type="int" name="ISIF">     2</i>
   <i name="PSTRESS">      0.00000000</i>
   <i name="EDIFFG">      0.00010000</i>
   <i type="int" name="NFREE">     0</i>
   <i name="POTIM">      0.50000000</i>
   <i name="SMASS">     -3.00000000</i>
   <i name="SCALEE">      1.00000000</i>
  </separator>
  <separator name="ionic md" >
   <i name="TEBEG">      0.00010000</i>
   <i name="TEEND">      0.00010000</i>
   <i type="int" name="NBLOCK">     1</i>
   <i type="int" name="KBLOCK">     1</i>
   <i type="int" name="NPACO">   256</i>
   <i name="APACO">     10.00000000</i>
  </separator>
  <separator name="symmetry" >
   <i type="int" name="ISYM">     2</i>
   <i name="SYMPREC">      0.00001000</i>
  </separator>
  <separator name="dos" >
   <i type="int" name="LORBIT">    11</i>
   <v name="RWIGS">     -1.00000000     -1.00000000     -1.00000000</v>
   <i type="int" name="NEDOS">  1134</i>
   <i name="EMIN">     10.00000000</i>
   <i name="EMAX">    -10.00000000</i>
   <i name="EFERMI">      0.00000000</i>
  </separator>
  <separator name="writing" >
   <i type="int" name="NWRITE">     2</i>
   <i type="logical" name="LWAVE"> T  </i>
   <i type="logical" name="LDOWNSAMPLE"> F  </i>
   <i type="logical" name="LCHARG"> F  </i>
   <i type="logical" name="LPARD"> F  </i>
   <i type="logical" name="LVTOT"> T  </i>
   <i type="logical" name="LVHAR"> F  </i>
   <i type="logical" name="LELF"> F  </i>
   <i type="logical" name="LOPTICS"> F  </i>
   <v name="STM">      0.00000000      0.00000000      0.00000000      0.00000000      0.00000000      0.00000000      0.00000000</v>
  </separator>
  <separator name="performance" >
   <i type="int" name="NPAR">    12</i>
   <i type="int" name="NSIM">     4</i>
   <i type="int" name="NBLK">    -1</i>
   <i type="logical" name="LPLANE"> T  </i>
   <i type="logical" name="LSCALAPACK"> T  </i>
   <i type="logical" name="LSCAAWARE"> F  </i>
   <i type="logical" name="LSCALU"> F  </i>
   <i type="logical" name="LASYNC"> F  </i>
   <i type="logical" name="LORBITALREAL"> F  </i>
  </separator>
  <separator name="miscellaneous" >
   <i type="int" name="IDIOT">     3</i>
   <i type="int" name="PHON_NSTRUCT">    -1</i>
   <i type="logical" name="LMUSIC"> F  </i>
   <v name="POMASS">    114.82000000     63.54600000     78.96000000</v>
   <v name="DARWINR">      0.00000000      0.00000000      0.00000000</v>
   <v name="DARWINV">      1.00000000      1.00000000      1.00000000</v>
   <i type="logical" name="LCORR"> T  </i>
  </separator>
  <i type="logical" name="GGA_COMPAT"> T  </i>
  <i type="logical" name="LBERRY"> F  </i>
  <i type="int" name="ICORELEVEL">     0</i>
  <i type="logical" name="LDAU"> F  </i>
  <i type="int" name="I_CONSTRAINED_M">     0</i>
  <separator name="electronic exchange-correlation" >
   <i type="string" name="GGA">PS</i>
   <i type="int" name="VOSKOWN">     0</i>
   <i type="logical" name="LHFCALC"> F  </i>
   <i type="string" name="PRECFOCK"></i>
   <i type="logical" name="LSYMGRAD"> F  </i>
   <i type="logical" name="LHFONE"> F  </i>
   <i type="logical" name="LRHFCALC"> F  </i>
   <i type="logical" name="LTHOMAS"> F  </i>
   <i type="logical" name="LMODELHF"> F  </i>
   <i type="logical" name="LFOCKACE"> F  </i>
   <i name="ENCUT4O">     -1.00000000</i>
   <i type="int" name="EXXOEP">     0</i>
   <i type="int" name="FOURORBIT">     0</i>
   <i name="AEXX">      0.00000000</i>
   <i name="HFALPHA">      0.00000000</i>
   <i name="MCALPHA">      0.00000000</i>
   <i name="ALDAX">      1.00000000</i>
   <i name="AGGAX">      1.00000000</i>
   <i name="ALDAC">      1.00000000</i>
   <i name="AGGAC">      1.00000000</i>
   <i type="int" name="NKREDX">     1</i>
   <i type="int" name="NKREDY">     1</i>
   <i type="int" name="NKREDZ">     1</i>
   <i type="logical" name="SHIFTRED"> F  </i>
   <i type="logical" name="ODDONLY"> F  </i>
   <i type="logical" name="EVENONLY"> F  </i>
   <i type="int" name="LMAXFOCK">     0</i>
   <i type="int" name="NMAXFOCKAE">     0</i>
   <i type="logical" name="LFOCKAEDFT"> F  </i>
   <i name="HFSCREEN">      0.00000000</i>
   <i name="HFSCREENC">      0.00000000</i>
   <i type="int" name="NBANDSGWLOW">     0</i>
  </separator>
  <separator name="vdW DFT" >
   <i type="logical" name="LUSE_VDW"> F  </i>
   <i type="int" name="IVDW_NL">     1</i>
   <i type="logical" name="LSPIN_VDW"> F  </i>
   <i name="Zab_VDW">     -0.84910000</i>
   <i name="PARAM1">      0.12340000</i>
   <i name="PARAM2">      1.00000000</i>
   <i name="PARAM3">      0.00000000</i>
  </separator>
  <separator name="model GW" >
   <i type="int" name="MODEL_GW">     0</i>
   <i name="MODEL_EPS0">     14.73707560</i>
   <i name="MODEL_ALPHA">      1.00000000</i>
  </separator>
  <separator name="linear response parameters" >
   <i type="logical" name="LEPSILON"> F  </i>
   <i type="logical" name="LRPA"> F  </i>
   <i type="logical" name="LNABLA"> F  </i>
   <i type="logical" name="LVEL"> F  </i>
   <i name="CSHIFT">      0.10000000</i>
   <i name="OMEGAMAX">     -1.00000000</i>
   <i name="DEG_THRESHOLD">      0.00200000</i>
   <i name="RTIME">     -0.10000000</i>
   <i name="WPLASMAI">      0.00000000</i>
   <v name="DFIELD">      0.00000000      0.00000000      0.00000000</v>
   <v name="WPLASMA">      0.00000000      0.00000000      0.00000000      0.00000000      0.00000000      0.00000000      0.00000000      0.00000000      0.00000000</v>
  </separator>
  <separator name="orbital magnetization" >
   <i type="logical" name="NUCIND"> F  </i>
   <v name="MAGPOS">      0.00000000      0.00000000      0.00000000</v>
   <i type="logical" name="LNICSALL"> T  </i>
   <i type="logical" name="ORBITALMAG"> F  </i>
   <i type="logical" name="LMAGBLOCH"> F  </i>
   <i type="logical" name="LCHIMAG"> F  </i>
   <i type="logical" name="LGAUGE"> T  </i>
   <i type="int" name="MAGATOM">     0</i>
   <v name="MAGDIPOL">      0.00000000      0.00000000      0.00000000</v>
   <v name="AVECCONST">      0.00000000      0.00000000      0.00000000</v>
  </separator>
  <separator name="response functions" >
   <i type="logical" name="LALL_IN_ONE"> F  </i>
   <i type="int" name="IALL_IN_ONE">    -1</i>
   <i type="int" name="NBANDS_WAVE">    -1</i>
   <i type="logical" name="LFINITE_TEMPERATURE"> F  </i>
   <i type="logical" name="LADDER"> F  </i>
   <i type="logical" name="LRPAFORCE"> F  </i>
   <i type="logical" name="LFXC"> F  </i>
   <i type="logical" name="LHARTREE"> T  </i>
   <i type="int" name="IBSE">     0</i>
   <v type="int" name="KPOINT">    -1     0     0     0</v>
   <i type="logical" name="LTCTC"> F  </i>
   <i type="logical" name="LTCTE"> F  </i>
   <i type="logical" name="LTETE"> F  </i>
   <i type="logical" name="LTRIPLET"> F  </i>
   <i type="logical" name="LFXCEPS"> F  </i>
   <i type="logical" name="LFXHEG"> F  </i>
   <i type="int" name="NATURALO">     2</i>
   <i type="logical" name="LHOLEGF"> F  </i>
   <i type="logical" name="L2ORDER"> F  </i>
   <i type="logical" name="LDMP1"> F  </i>
   <i type="logical" name="LMP2LT"> F  </i>
   <i type="logical" name="LSMP2LT"> F  </i>
   <i type="logical" name="LGWLF"> F  </i>
   <i name="ENCUTGW">     -1.60000002</i>
   <i name="ENCUTGWSOFT">     -1.60000002</i>
   <i name="ENCUTLF">     -1.00000000</i>
   <i type="logical" name="LESF_SPLINES"> F  </i>
   <i type="int" name="LMAXMP2">    -1</i>
   <i name="SCISSOR">      0.00000000</i>
   <i type="int" name="NOMEGA">     0</i>
   <i type="int" name="NOMEGAR">     0</i>
   <i type="int" name="NBANDSGW">    -1</i>
   <i type="int" name="NBANDSO">    -1</i>
   <i type="int" name="NBANDSV">    -1</i>
   <i type="int" name="NELMGW">     1</i>
   <i type="int" name="NELMHF">     1</i>
   <i type="int" name="DIM">     3</i>
   <i type="int" name="IESPILON">     4</i>
   <i type="int" name="ANTIRES">     0</i>
   <i name="OMEGAMAX">    -30.00000000</i>
   <i name="OMEGAMIN">    -30.00000000</i>
   <i name="OMEGATL">   -200.00000000</i>
   <i type="int" name="OMEGAGRID">     0</i>
   <i name="CSHIFT">     -0.10000000</i>
   <i type="logical" name="LSELFENERGY"> F  </i>
   <i type="logical" name="LSPECTRAL"> F  </i>
   <i type="logical" name="LSPECTRALGW"> F  </i>
   <i type="logical" name="LSINGLES"> F  </i>
   <i type="logical" name="LFERMIGW"> F  </i>
   <i type="logical" name="ODDONLYGW"> F  </i>
   <i type="logical" name="EVENONLYGW"> F  </i>
   <i type="int" name="NKREDLFX">     1</i>
   <i type="int" name="NKREDLFY">     1</i>
   <i type="int" name="NKREDLFZ">     1</i>
   <i type="int" name="MAXMEM">  2800</i>
   <i type="int" name="TELESCOPE">     0</i>
   <i type="int" name="NTAUPAR">    -1</i>
   <i type="int" name="NOMEGAPAR">    -1</i>
   <i name="DAMP_NEWTON">      0.80000001</i>
   <i name="LAMBDA">      1.00000000</i>
  </separator>
  <separator name="External order field" >
   <i name="OFIELD_KAPPA">      0.00000000</i>
   <v name="OFIELD_K">      0.00000000      0.00000000      0.00000000</v>
   <i name="OFIELD_Q6_NEAR">      0.00000000</i>
   <i name="OFIELD_Q6_FAR">      0.00000000</i>
   <i name="OFIELD_A">      0.00000000</i>
  </separator>
  <separator name="optional k-points parameters" >
   <i type="int" name="KPOINTS_OPT_MODE">     1</i>
   <i type="logical" name="LKPOINTS_OPT"> F  </i>
  </separator>
 </parameters>
 <atominfo>
  <atoms>       8 </atoms>
  <types>       3 </types>
  <array name="atoms" >
   <dimension dim="1">ion</dimension>
   <field type="string">element</field>
   <field type="int">atomtype</field>
   <set>
    <rc><c>In</c><c>   1</c></rc>
    <rc><c>In</c><c>   1</c></rc>
    <rc><c>Cu</c><c>   2</c></rc>
    <rc><c>Cu</c><c>   2</c></rc>
    <rc><c>Se</c><c>   3</c></rc>
    <rc><c>Se</c><c>   3</c></rc>
    <rc><c>Se</c><c>   3</c></rc>
    <rc><c>Se</c><c>   3</c></rc>
   </set>
  </array>
  <array name="atomtypes" >
   <dimension dim="1">type</dimension>
   <field type="int">atomspertype</field>
   <field type="string">element</field>
   <field>mass</field>
   <field>valence</field>
   <field type="string">pseudopotential</field>
   <set>
    <rc><c>   2</c><c>In</c><c>    114.82000000</c><c>     13.00000000</c><c>  PAW_PBE In_d 06Sep2000                </c></rc>
    <rc><c>   2</c><c>Cu</c><c>     63.54600000</c><c>     11.00000000</c><c>  PAW_PBE Cu 22Jun2005                  </c></rc>
    <rc><c>   4</c><c>Se</c><c>     78.96000000</c><c>      6.00000000</c><c>  PAW_PBE Se 06Sep2000                  </c></rc>
   </set>
  </array>
 </atominfo>
 <structure name="initialpos" >
  <crystal>
   <varray name="basis" >
    <v>       5.30291920       0.00000000      -2.36402939 </v>
    <v>      -1.05387957       5.19714218      -2.36402972 </v>
    <v>       0.00000000       0.00000000       7.12968660 </v>
   </varray>
   <i name="volume">    196.49434127 </i>
   <varray name="rec_basis" >
    <v>       0.18857538       0.03823943       0.00000000 </v>
    <v>       0.00000000       0.19241344       0.00000000 </v>
    <v>       0.06252698       0.07647885       0.14025862 </v>
   </varray>
  </crystal>
  <varray name="positions" >
   <v>       0.50000000       0.50000000       0.00000000 </v>
   <v>       0.75000000       0.25000000       0.50000000 </v>
   <v>       0.00000000       0.00000000       0.00000000 </v>
   <v>       0.25000000       0.75000000       0.50000000 </v>
   <v>       0.34516103       0.37500000       0.25000000 </v>
   <v>       0.90483897       0.87500000       0.25000000 </v>
   <v>       0.12500000       0.65483897       0.75000000 </v>
   <v>       0.62500000       0.09516103       0.75000000 </v>
  </varray>
 </structure>
 <calculation>
  <scstep>
   <time name="dav">    0.93    0.93</time>
   <time name="total">    1.10    1.11</time>
   <energy>
    <i name="alphaZ">    185.64929911 </i>
    <i name="ewald">  -4678.36476469 </i>
    <i name="hartreedc">  -2303.77795081 </i>
    <i name="XCdc">    176.06828523 </i>
    <i name="pawpsdc">   8090.08272835 </i>
    <i name="pawaedc">  -8232.82562561 </i>
    <i name="eentropy">      0.00000000 </i>
    <i name="bandstr">    540.29358772 </i>
    <i name="atom">   6960.97766694 </i>
    <i name="e_fr_energy">    738.10322626 </i>
    <i name="e_wo_entrp">    738.10322626 </i>
    <i name="e_0_energy">    738.10322626 </i>
   </energy>
  </scstep>
  <scstep>
   <time name="dav">    0.85    0.87</time>
   <time name="total">    0.87    0.89</time>
   <energy>
    <i name="e_fr_energy">     81.64499702 </i>
    <i name="e_wo_entrp">     81.64499702 </i>
    <i name="e_0_energy">     81.64499702 </i>
   </energy>
  </scstep>
  <scstep>
   <time name="dav">    0.94    0.95</time>
   <time name="total">    0.95    0.96</time>
   <energy>
    <i name="e_fr_energy">    -26.89344895 </i>
    <i name="e_wo_entrp">    -26.89344895 </i>
    <i name="e_0_energy">    -26.89344895 </i>
   </energy>
  </scstep>
  <scstep>
   <time name="dav">    0.99    1.01</time>
   <time name="total">    1.00    1.02</time>
   <energy>
    <i name="e_fr_energy">    -33.03072885 </i>
    <i name="e_wo_entrp">    -33.03072885 </i>
    <i name="e_0_energy">    -33.03072885 </i>
   </energy>
  </scstep>
  <scstep>
   <time name="dav">    1.07    1.09</time>
   <time name="total">    1.08    1.10</time>
   <energy>
    <i name="e_fr_energy">    -33.25356862 </i>
    <i name="e_wo_entrp">    -33.25356862 </i>
    <i name="e_0_energy">    -33.25356862 </i>
   </energy>
  </scstep>
  <scstep>
   <time name="diag">    0.28    0.30</time>
   <time name="diis">    0.45    0.45</time>
   <time name="orth">    0.03    0.03</time>
   <time name="total">    0.77    0.79</time>
   <energy>
    <i name="e_fr_energy">    -33.26105058 </i>
    <i name="e_wo_entrp">    -33.26105058 </i>
    <i name="e_0_energy">    -33.26105058 </i>
   </energy>
  </scstep>
  <scstep>
   <time name="diag">    0.28    0.29</time>
   <time name="diis">    0.49    0.49</time>
   <time name="orth">    0.03    0.03</time>
   <time name="total">    0.81    0.83</time>
   <energy>
    <i name="e_fr_energy">    -33.26299779 </i>
    <i name="e_wo_entrp">    -33.26299779 </i>
    <i name="e_0_energy">    -33.26299779 </i>
   </energy>
  </scstep>
  <scstep>
   <time name="diag">    0.28    0.29</time>
   <time name="diis">    0.53    0.53</time>
   <time name="orth">    0.04    0.04</time>
   <time name="total">    0.86    0.87</time>
   <energy>
    <i name="e_fr_energy">    -33.26349354 </i>
    <i name="e_wo_entrp">    -33.26349354 </i>
    <i name="e_0_energy">    -33.26349354 </i>
   </energy>
  </scstep>
  <scstep>
   <time name="diag">    0.27    0.28</time>
   <time name="diis">    0.47    0.47</time>
   <time name="orth">    0.03    0.03</time>
   <time name="total">    0.78    0.80</time>
   <energy>
    <i name="e_fr_energy">    -33.26370928 </i>
    <i name="e_wo_entrp">    -33.26370928 </i>
    <i name="e_0_energy">    -33.26370928 </i>
   </energy>
  </scstep>
  <scstep>
   <time name="diag">    0.25    0.27</time>
   <time name="diis">    0.45    0.45</time>
   <time name="orth">    0.04    0.04</time>
   <time name="total">    0.75    0.76</time>
   <energy>
    <i name="e_fr_energy">    -33.26377199 </i>
    <i name="e_wo_entrp">    -33.26377199 </i>
    <i name="e_0_energy">    -33.26377199 </i>
   </energy>
  </scstep>
  <scstep>
   <time name="diag">    0.25    0.26</time>
   <time name="diis">    0.39    0.39</time>
   <time name="orth">    0.03    0.03</time>
   <time name="total">    0.69    0.70</time>
   <energy>
    <i name="e_fr_energy">    -33.26381488 </i>
    <i name="e_wo_entrp">    -33.26381488 </i>
    <i name="e_0_energy">    -33.26381488 </i>
   </energy>
  </scstep>
  <scstep>
   <time name="diag">    0.24    0.26</time>
   <time name="diis">    0.34    0.35</time>
   <time name="orth">    0.03    0.03</time>
   <time name="total">    0.63    0.65</time>
   <energy>
    <i name="e_fr_energy">    -33.26382961 </i>
    <i name="e_wo_entrp">    -33.26382961 </i>
    <i name="e_0_energy">    -33.26382961 </i>
   </energy>
  </scstep>
  <scstep>
   <time name="diag">    0.24    0.26</time>
   <time name="diis">    0.31    0.31</time>
   <time name="orth">    0.03    0.03</time>
   <time name="total">    0.60    0.62</time>
   <energy>
    <i name="e_fr_energy">    -33.26384030 </i>
    <i name="e_wo_entrp">    -33.26384030 </i>
    <i name="e_0_energy">    -33.26384030 </i>
   </energy>
  </scstep>
  <scstep>
   <time name="diag">    0.25    0.26</time>
   <time name="diis">    0.27    0.27</time>
   <time name="orth">    0.03    0.03</time>
   <time name="total">    0.56    0.57</time>
   <energy>
    <i name="alphaZ">    185.64929911 </i>
    <i name="ewald">  -4678.36476469 </i>
    <i name="hartreedc">  -2303.77795081 </i>
    <i name="XCdc">    176.06828523 </i>
    <i name="pawpsdc">   8090.08272835 </i>
    <i name="pawaedc">  -8232.82562561 </i>
    <i name="eentropy">      0.00000000 </i>
    <i name="bandstr">   -231.07348196 </i>
    <i name="atom">   6960.97766694 </i>
    <i name="e_fr_energy">    -33.26384343 </i>
    <i name="e_wo_entrp">    -33.26384343 </i>
    <i name="e_0_energy">    -33.26384343 </i>
   </energy>
  </scstep>
  <structure>
   <crystal>
    <varray name="basis" >
     <v>       5.30291920       0.00000000      -2.36402939 </v>
     <v>      -1.05387957       5.19714218      -2.36402972 </v>
     <v>       0.00000000       0.00000000       7.12968660 </v>
    </varray>
    <i name="volume">    196.49434127 </i>
    <varray name="rec_basis" >
     <v>       0.18857538       0.03823943       0.00000000 </v>
     <v>       0.00000000       0.19241344       0.00000000 </v>
     <v>       0.06252698       0.07647885       0.14025862 </v>
    </varray>
   </crystal>
   <varray name="positions" >
    <v>       0.50000000       0.50000000       0.00000000 </v>
    <v>       0.75000000       0.25000000       0.50000000 </v>
    <v>       0.00000000       0.00000000       0.00000000 </v>
    <v>       0.25000000       0.75000000       0.50000000 </v>
    <v>       0.34516103       0.37500000       0.25000000 </v>
    <v>       0.90483897       0.87500000       0.25000000 </v>
    <v>       0.12500000       0.65483897       0.75000000 </v>
    <v>       0.62500000       0.09516103       0.75000000 </v>
   </varray>
  </structure>
  <varray name="forces" >
   <v>       0.00000000      -0.00000000       0.00000000 </v>
   <v>       0.00000000      -0.00000000       0.00000000 </v>
   <v>       0.00000000      -0.00000000       0.00000000 </v>
   <v>       0.00000000       0.00000000       0.00000000 </v>
   <v>      -0.13931566      -0.00000000       0.06210660 </v>
   <v>       0.13931566       0.00000000      -0.06210660 </v>
   <v>      -0.02768700       0.13653674      -0.06210661 </v>
   <v>       0.02768700      -0.13653674       0.06210661 </v>
  </varray>
  <varray name="stress" >
   <v>      -5.69002751      -0.12125892      -0.22238364 </v>
   <v>      -0.12125892      -5.73920477      -0.27200450 </v>
   <v>      -0.22238364      -0.27200450      -6.08973153 </v>
  </varray>
  <energy>
   <i name="e_fr_energy">    -33.26384343 </i>
   <i name="e_wo_entrp">    -33.26384343 </i>
   <i name="e_0_energy">    -33.26384343 </i>
  </energy>
  <time name="totalsc">   13.07   13.32</time>
  <eigenvalues>
   <array>
    <dimension dim="1">band</dimension>
    <dimension dim="2">kpoint</dimension>
    <dimension dim="3">spin</dimension>
    <field>eigene</field>
    <field>occ</field>
    <set>
     <set comment="spin 1">
      <set comment="kpoint 1">
       <r>  -10.9710    1.0000 </r>
       <r>  -10.9538    1.0000 </r>
       <r>  -10.9538    1.0000 </r>
       <r>  -10.7104    1.0000 </r>
       <r>  -10.6902    1.0000 </r>
       <r>  -10.6902    1.0000 </r>
       <r>  -10.6284    1.0000 </r>
       <r>  -10.6274    1.0000 </r>
       <r>  -10.6104    1.0000 </r>
       <r>  -10.6034    1.0000 </r>
       <r>   -9.9311    1.0000 </r>
       <r>   -8.5353    1.0000 </r>
       <r>   -8.5207    1.0000 </r>
       <r>   -8.5207    1.0000 </r>
       <r>   -2.4254    1.0000 </r>
       <r>   -1.7382    1.0000 </r>
       <r>   -0.8455    1.0000 </r>
       <r>   -0.1218    1.0000 </r>
       <r>   -0.0439    1.0000 </r>
       <r>    0.4209    1.0000 </r>
       <r>    0.4209    1.0000 </r>
       <r>    0.6962    1.0000 </r>
       <r>    0.6962    1.0000 </r>
       <r>    0.9692    1.0000 </r>
       <r>    0.9692    1.0000 </r>
       <r>    1.0407    1.0000 </r>
       <r>    2.0303    1.0000 </r>
       <r>    2.0880    1.0000 </r>
       <r>    2.1524    1.0000 </r>
       <r>    2.4463    1.0000 </r>
       <r>    2.4614    1.0000 </r>
       <r>    2.4614    1.0000 </r>
       <r>    2.5714    1.0000 </r>
       <r>    3.7914    1.0000 </r>
       <r>    4.1264    1.0000 </r>
       <r>    4.1264    1.0000 </r>
       <r>    4.1359    0.0000 </r>
       <r>    5.9101    0.0000 </r>
       <r>    6.0406    0.0000 </r>
       <r>    7.9121    0.0000 </r>
       <r>    7.9121    0.0000 </r>
       <r>    8.5453    0.0000 </r>
       <r>    8.8940    0.0000 </r>
       <r>    8.8940    0.0000 </r>
       <r>    8.8993    0.0000 </r>
       <r>    9.2312    0.0000 </r>
       <r>   10.0102    0.0000 </r>
       <r>   10.0102    0.0000 </r>
       <r>   10.6145    0.0000 </r>
       <r>   10.6837    0.0000 </r>
       <r>   12.9258    0.0000 </r>
       <r>   13.3339    0.0000 </r>
       <r>   13.7793    0.0000 </r>
       <r>   13.8447    0.0000 </r>
       <r>   13.8517    0.0000 </r>
       <r>   14.3922    0.0000 </r>
       <r>   14.7059    0.0000 </r>
       <r>   15.2278    0.0000 </r>
       <r>   15.4646    0.0000 </r>
       <r>   15.5421    0.0000 </r>
      </set>
      <set comment="kpoint 2">
       <r>  -10.9724    1.0000 </r>
       <r>  -10.9645    1.0000 </r>
       <r>  -10.9461    1.0000 </r>
       <r>  -10.7304    1.0000 </r>
       <r>  -10.7033    1.0000 </r>
       <r>  -10.6860    1.0000 </r>
       <r>  -10.6307    1.0000 </r>
       <r>  -10.6212    1.0000 </r>
       <r>  -10.6127    1.0000 </r>
       <r>  -10.6019    1.0000 </r>
       <r>   -9.7785    1.0000 </r>
       <r>   -8.6158    1.0000 </r>
       <r>   -8.5877    1.0000 </r>
       <r>   -8.5421    1.0000 </r>
       <r>   -2.3211    1.0000 </r>
       <r>   -1.7767    1.0000 </r>
       <r>   -0.8486    1.0000 </r>
       <r>   -0.2196    1.0000 </r>
       <r>   -0.0032    1.0000 </r>
       <r>    0.4534    1.0000 </r>
       <r>    0.5358    1.0000 </r>
       <r>    0.6026    1.0000 </r>
       <r>    0.6413    1.0000 </r>
       <r>    0.8576    1.0000 </r>
       <r>    0.9463    1.0000 </r>
       <r>    1.1477    1.0000 </r>
       <r>    2.1250    1.0000 </r>
       <r>    2.1982    1.0000 </r>
       <r>    2.2076    1.0000 </r>
       <r>    2.3178    1.0000 </r>
       <r>    2.4179    1.0000 </r>
       <r>    2.6277    1.0000 </r>
       <r>    2.6404    1.0000 </r>
       <r>    3.1046    1.0000 </r>
       <r>    3.8084    1.0000 </r>
       <r>    3.9837    1.0000 </r>
       <r>    5.0854    0.0000 </r>
       <r>    6.2633    0.0000 </r>
       <r>    6.4845    0.0000 </r>
       <r>    7.3415    0.0000 </r>
       <r>    7.6172    0.0000 </r>
       <r>    8.3952    0.0000 </r>
       <r>    8.8152    0.0000 </r>
       <r>    8.8424    0.0000 </r>
       <r>    8.9870    0.0000 </r>
       <r>    9.3732    0.0000 </r>
       <r>   10.0073    0.0000 </r>
       <r>   10.4929    0.0000 </r>
       <r>   11.3711    0.0000 </r>
       <r>   11.7215    0.0000 </r>
       <r>   12.2937    0.0000 </r>
       <r>   12.6349    0.0000 </r>
       <r>   13.0865    0.0000 </r>
       <r>   13.2765    0.0000 </r>
       <r>   13.4297    0.0000 </r>
       <r>   13.6910    0.0000 </r>
       <r>   13.9504    0.0000 </r>
       <r>   14.1710    0.0000 </r>
       <r>   14.9311    0.0000 </r>
       <r>   15.6346    0.0000 </r>
      </set>
      <set comment="kpoint 3">
       <r>  -10.9865    1.0000 </r>
       <r>  -10.9726    1.0000 </r>
       <r>  -10.9249    1.0000 </r>
       <r>  -10.7727    1.0000 </r>
       <r>  -10.7082    1.0000 </r>
       <r>  -10.6812    1.0000 </r>
       <r>  -10.6284    1.0000 </r>
       <r>  -10.6227    1.0000 </r>
       <r>  -10.6086    1.0000 </r>
       <r>  -10.6027    1.0000 </r>
       <r>   -9.4154    1.0000 </r>
       <r>   -8.9223    1.0000 </r>
       <r>   -8.6576    1.0000 </r>
       <r>   -8.5705    1.0000 </r>
       <r>   -2.1188    1.0000 </r>
       <r>   -1.7686    1.0000 </r>
       <r>   -0.7658    1.0000 </r>
       <r>   -0.3345    1.0000 </r>
       <r>   -0.0667    1.0000 </r>
       <r>    0.1296    1.0000 </r>
       <r>    0.4151    1.0000 </r>
       <r>    0.6597    1.0000 </r>
       <r>    0.7438    1.0000 </r>
       <r>    0.8892    1.0000 </r>
       <r>    0.9225    1.0000 </r>
       <r>    1.2386    1.0000 </r>
       <r>    2.1919    1.0000 </r>
       <r>    2.2133    1.0000 </r>
       <r>    2.2635    1.0000 </r>
       <r>    2.3662    1.0000 </r>
       <r>    2.4942    1.0000 </r>
       <r>    2.6825    1.0000 </r>
       <r>    2.8320    1.0000 </r>
       <r>    2.9828    1.0000 </r>
       <r>    3.2287    1.0000 </r>
       <r>    3.6686    1.0000 </r>
       <r>    5.8808    0.0000 </r>
       <r>    6.4185    0.0000 </r>
       <r>    7.1560    0.0000 </r>
       <r>    7.4825    0.0000 </r>
       <r>    7.8098    0.0000 </r>
       <r>    8.2763    0.0000 </r>
       <r>    8.7050    0.0000 </r>
       <r>    8.9120    0.0000 </r>
       <r>    9.3207    0.0000 </r>
       <r>    9.5538    0.0000 </r>
       <r>   10.0675    0.0000 </r>
       <r>   10.3197    0.0000 </r>
       <r>   10.9573    0.0000 </r>
       <r>   11.5998    0.0000 </r>
       <r>   11.6523    0.0000 </r>
       <r>   12.0141    0.0000 </r>
       <r>   12.1198    0.0000 </r>
       <r>   12.3304    0.0000 </r>
       <r>   12.9507    0.0000 </r>
       <r>   13.4278    0.0000 </r>
       <r>   14.1013    0.0000 </r>
       <r>   14.3877    0.0000 </r>
       <r>   15.2374    0.0000 </r>
       <r>   15.5851    0.0000 </r>
      </set>
      <set comment="kpoint 4">
       <r>  -10.9761    1.0000 </r>
       <r>  -10.9731    1.0000 </r>
       <r>  -10.9317    1.0000 </r>
       <r>  -10.7650    1.0000 </r>
       <r>  -10.6989    1.0000 </r>
       <r>  -10.6884    1.0000 </r>
       <r>  -10.6308    1.0000 </r>
       <r>  -10.6173    1.0000 </r>
       <r>  -10.6142    1.0000 </r>
       <r>  -10.6007    1.0000 </r>
       <r>   -9.5907    1.0000 </r>
       <r>   -8.7011    1.0000 </r>
       <r>   -8.6446    1.0000 </r>
       <r>   -8.6066    1.0000 </r>
       <r>   -2.2569    1.0000 </r>
       <r>   -1.8843    1.0000 </r>
       <r>   -0.9138    1.0000 </r>
       <r>   -0.0420    1.0000 </r>
       <r>    0.0976    1.0000 </r>
       <r>    0.2427    1.0000 </r>
       <r>    0.2582    1.0000 </r>
       <r>    0.7312    1.0000 </r>
       <r>    0.7857    1.0000 </r>
       <r>    0.8973    1.0000 </r>
       <r>    1.0828    1.0000 </r>
       <r>    1.1573    1.0000 </r>
       <r>    2.1334    1.0000 </r>
       <r>    2.2252    1.0000 </r>
       <r>    2.3120    1.0000 </r>
       <r>    2.3158    1.0000 </r>
       <r>    2.4883    1.0000 </r>
       <r>    2.6206    1.0000 </r>
       <r>    2.6913    1.0000 </r>
       <r>    2.9937    1.0000 </r>
       <r>    3.8327    1.0000 </r>
       <r>    3.8532    1.0000 </r>
       <r>    5.1321    0.0000 </r>
       <r>    6.0190    0.0000 </r>
       <r>    6.8333    0.0000 </r>
       <r>    6.8948    0.0000 </r>
       <r>    7.4309    0.0000 </r>
       <r>    8.5563    0.0000 </r>
       <r>    8.9898    0.0000 </r>
       <r>    9.0180    0.0000 </r>
       <r>    9.2143    0.0000 </r>
       <r>    9.4515    0.0000 </r>
       <r>   10.4038    0.0000 </r>
       <r>   10.5664    0.0000 </r>
       <r>   10.9420    0.0000 </r>
       <r>   11.5593    0.0000 </r>
       <r>   11.7701    0.0000 </r>
       <r>   12.2775    0.0000 </r>
       <r>   12.9117    0.0000 </r>
       <r>   13.2995    0.0000 </r>
       <r>   13.5094    0.0000 </r>
       <r>   13.6833    0.0000 </r>
       <r>   13.7287    0.0000 </r>
       <r>   13.8694    0.0000 </r>
       <r>   15.5564    0.0000 </r>
       <r>   15.7787    0.0000 </r>
      </set>
      <set comment="kpoint 5">
       <r>  -10.9910    1.0000 </r>
       <r>  -10.9783    1.0000 </r>
       <r>  -10.9057    1.0000 </r>
       <r>  -10.7984    1.0000 </r>
       <r>  -10.7043    1.0000 </r>
       <r>  -10.6874    1.0000 </r>
       <r>  -10.6256    1.0000 </r>
       <r>  -10.6207    1.0000 </r>
       <r>  -10.6083    1.0000 </r>
       <r>  -10.6035    1.0000 </r>
       <r>   -9.2560    1.0000 </r>
       <r>   -8.9458    1.0000 </r>
       <r>   -8.7385    1.0000 </r>
       <r>   -8.6135    1.0000 </r>
       <r>   -2.1821    1.0000 </r>
       <r>   -1.9314    1.0000 </r>
       <r>   -0.9681    1.0000 </r>
       <r>   -0.5166    1.0000 </r>
       <r>    0.0149    1.0000 </r>
       <r>    0.3142    1.0000 </r>
       <r>    0.5964    1.0000 </r>
       <r>    0.7105    1.0000 </r>
       <r>    0.8368    1.0000 </r>
       <r>    0.9299    1.0000 </r>
       <r>    1.0973    1.0000 </r>
       <r>    1.1892    1.0000 </r>
       <r>    2.1618    1.0000 </r>
       <r>    2.2063    1.0000 </r>
       <r>    2.2826    1.0000 </r>
       <r>    2.3669    1.0000 </r>
       <r>    2.6611    1.0000 </r>
       <r>    2.7118    1.0000 </r>
       <r>    2.8898    1.0000 </r>
       <r>    3.0604    1.0000 </r>
       <r>    3.3815    1.0000 </r>
       <r>    3.6044    1.0000 </r>
       <r>    5.5122    0.0000 </r>
       <r>    6.0408    0.0000 </r>
       <r>    6.9823    0.0000 </r>
       <r>    7.5209    0.0000 </r>
       <r>    7.9215    0.0000 </r>
       <r>    8.4095    0.0000 </r>
       <r>    8.7253    0.0000 </r>
       <r>    9.0436    0.0000 </r>
       <r>    9.3054    0.0000 </r>
       <r>    9.7047    0.0000 </r>
       <r>   10.3250    0.0000 </r>
       <r>   10.3765    0.0000 </r>
       <r>   10.5668    0.0000 </r>
       <r>   11.0539    0.0000 </r>
       <r>   11.3358    0.0000 </r>
       <r>   11.9320    0.0000 </r>
       <r>   12.6171    0.0000 </r>
       <r>   13.0195    0.0000 </r>
       <r>   13.3222    0.0000 </r>
       <r>   13.5712    0.0000 </r>
       <r>   13.8030    0.0000 </r>
       <r>   14.5636    0.0000 </r>
       <r>   15.3612    0.0000 </r>
       <r>   15.6098    0.0000 </r>
      </set>
      <set comment="kpoint 6">
       <r>  -10.9907    1.0000 </r>
       <r>  -10.9767    1.0000 </r>
       <r>  -10.9163    1.0000 </r>
       <r>  -10.7776    1.0000 </r>
       <r>  -10.7078    1.0000 </r>
       <r>  -10.6901    1.0000 </r>
       <r>  -10.6241    1.0000 </r>
       <r>  -10.6194    1.0000 </r>
       <r>  -10.6095    1.0000 </r>
       <r>  -10.6051    1.0000 </r>
       <r>   -9.3974    1.0000 </r>
       <r>   -8.8415    1.0000 </r>
       <r>   -8.7281    1.0000 </r>
       <r>   -8.5636    1.0000 </r>
       <r>   -2.2235    1.0000 </r>
       <r>   -1.9562    1.0000 </r>
       <r>   -0.9848    1.0000 </r>
       <r>   -0.3627    1.0000 </r>
       <r>   -0.1738    1.0000 </r>
       <r>    0.3122    1.0000 </r>
       <r>    0.5360    1.0000 </r>
       <r>    0.7132    1.0000 </r>
       <r>    0.8131    1.0000 </r>
       <r>    0.9164    1.0000 </r>
       <r>    1.0964    1.0000 </r>
       <r>    1.2678    1.0000 </r>
       <r>    2.1701    1.0000 </r>
       <r>    2.2120    1.0000 </r>
       <r>    2.2637    1.0000 </r>
       <r>    2.3831    1.0000 </r>
       <r>    2.6345    1.0000 </r>
       <r>    2.6809    1.0000 </r>
       <r>    2.8800    1.0000 </r>
       <r>    3.0487    1.0000 </r>
       <r>    3.4584    1.0000 </r>
       <r>    3.6276    1.0000 </r>
       <r>    5.7053    0.0000 </r>
       <r>    6.0475    0.0000 </r>
       <r>    7.1282    0.0000 </r>
       <r>    7.3440    0.0000 </r>
       <r>    7.9649    0.0000 </r>
       <r>    8.3100    0.0000 </r>
       <r>    8.7505    0.0000 </r>
       <r>    9.0259    0.0000 </r>
       <r>    9.5392    0.0000 </r>
       <r>    9.8944    0.0000 </r>
       <r>   10.1891    0.0000 </r>
       <r>   10.5602    0.0000 </r>
       <r>   10.7312    0.0000 </r>
       <r>   11.0566    0.0000 </r>
       <r>   11.3636    0.0000 </r>
       <r>   11.8511    0.0000 </r>
       <r>   12.2693    0.0000 </r>
       <r>   12.7442    0.0000 </r>
       <r>   13.5302    0.0000 </r>
       <r>   13.5646    0.0000 </r>
       <r>   14.2949    0.0000 </r>
       <r>   14.3960    0.0000 </r>
       <r>   14.9072    0.0000 </r>
       <r>   15.0447    0.0000 </r>
      </set>
      <set comment="kpoint 7">
       <r>  -10.9754    1.0000 </r>
       <r>  -10.9731    1.0000 </r>
       <r>  -10.9391    1.0000 </r>
       <r>  -10.7335    1.0000 </r>
       <r>  -10.7064    1.0000 </r>
       <r>  -10.6938    1.0000 </r>
       <r>  -10.6253    1.0000 </r>
       <r>  -10.6230    1.0000 </r>
       <r>  -10.6101    1.0000 </r>
       <r>  -10.6043    1.0000 </r>
       <r>   -9.7001    1.0000 </r>
       <r>   -8.6540    1.0000 </r>
       <r>   -8.6342    1.0000 </r>
       <r>   -8.5237    1.0000 </r>
       <r>   -2.3083    1.0000 </r>
       <r>   -1.8576    1.0000 </r>
       <r>   -0.9572    1.0000 </r>
       <r>   -0.1052    1.0000 </r>
       <r>   -0.0277    1.0000 </r>
       <r>    0.0814    1.0000 </r>
       <r>    0.5542    1.0000 </r>
       <r>    0.6686    1.0000 </r>
       <r>    0.7390    1.0000 </r>
       <r>    0.8510    1.0000 </r>
       <r>    1.0633    1.0000 </r>
       <r>    1.2295    1.0000 </r>
       <r>    2.1301    1.0000 </r>
       <r>    2.2434    1.0000 </r>
       <r>    2.2731    1.0000 </r>
       <r>    2.2768    1.0000 </r>
       <r>    2.4235    1.0000 </r>
       <r>    2.7298    1.0000 </r>
       <r>    2.7615    1.0000 </r>
       <r>    2.8927    1.0000 </r>
       <r>    3.6980    1.0000 </r>
       <r>    4.0306    1.0000 </r>
       <r>    5.2482    0.0000 </r>
       <r>    6.0624    0.0000 </r>
       <r>    6.9425    0.0000 </r>
       <r>    7.6324    0.0000 </r>
       <r>    7.9359    0.0000 </r>
       <r>    8.0274    0.0000 </r>
       <r>    8.4814    0.0000 </r>
       <r>    9.0780    0.0000 </r>
       <r>    9.2614    0.0000 </r>
       <r>    9.3303    0.0000 </r>
       <r>   10.0515    0.0000 </r>
       <r>   10.6650    0.0000 </r>
       <r>   11.7127    0.0000 </r>
       <r>   11.9802    0.0000 </r>
       <r>   12.1339    0.0000 </r>
       <r>   12.3056    0.0000 </r>
       <r>   12.5308    0.0000 </r>
       <r>   12.7963    0.0000 </r>
       <r>   12.9179    0.0000 </r>
       <r>   13.1831    0.0000 </r>
       <r>   13.5473    0.0000 </r>
       <r>   14.3261    0.0000 </r>
       <r>   15.2323    0.0000 </r>
       <r>   15.6431    0.0000 </r>
      </set>
      <set comment="kpoint 8">
       <r>  -10.9935    1.0000 </r>
       <r>  -10.9900    1.0000 </r>
       <r>  -10.8664    1.0000 </r>
       <r>  -10.8375    1.0000 </r>
       <r>  -10.7024    1.0000 </r>
       <r>  -10.6979    1.0000 </r>
       <r>  -10.6188    1.0000 </r>
       <r>  -10.6171    1.0000 </r>
       <r>  -10.6093    1.0000 </r>
       <r>  -10.6074    1.0000 </r>
       <r>   -9.0463    1.0000 </r>
       <r>   -8.9511    1.0000 </r>
       <r>   -8.7833    1.0000 </r>
       <r>   -8.7333    1.0000 </r>
       <r>   -2.2746    1.0000 </r>
       <r>   -2.1910    1.0000 </r>
       <r>   -1.0477    1.0000 </r>
       <r>   -0.9425    1.0000 </r>
       <r>    0.2971    1.0000 </r>
       <r>    0.3424    1.0000 </r>
       <r>    0.6826    1.0000 </r>
       <r>    0.8096    1.0000 </r>
       <r>    0.9221    1.0000 </r>
       <r>    1.0690    1.0000 </r>
       <r>    1.1661    1.0000 </r>
       <r>    1.2416    1.0000 </r>
       <r>    2.1689    1.0000 </r>
       <r>    2.1788    1.0000 </r>
       <r>    2.3688    1.0000 </r>
       <r>    2.3716    1.0000 </r>
       <r>    2.7222    1.0000 </r>
       <r>    2.8849    1.0000 </r>
       <r>    3.2349    1.0000 </r>
       <r>    3.2681    1.0000 </r>
       <r>    3.4972    1.0000 </r>
       <r>    3.5571    1.0000 </r>
       <r>    5.0602    0.0000 </r>
       <r>    5.4194    0.0000 </r>
       <r>    7.3429    0.0000 </r>
       <r>    7.4936    0.0000 </r>
       <r>    8.1940    0.0000 </r>
       <r>    8.2309    0.0000 </r>
       <r>    8.7493    0.0000 </r>
       <r>    9.1555    0.0000 </r>
       <r>    9.4313    0.0000 </r>
       <r>    9.7672    0.0000 </r>
       <r>    9.9153    0.0000 </r>
       <r>    9.9748    0.0000 </r>
       <r>   10.7174    0.0000 </r>
       <r>   11.0982    0.0000 </r>
       <r>   11.5969    0.0000 </r>
       <r>   11.7314    0.0000 </r>
       <r>   12.8788    0.0000 </r>
       <r>   13.0839    0.0000 </r>
       <r>   13.2669    0.0000 </r>
       <r>   13.7154    0.0000 </r>
       <r>   14.4731    0.0000 </r>
       <r>   14.6923    0.0000 </r>
       <r>   14.8727    0.0000 </r>
       <r>   15.1098    0.0000 </r>
      </set>
      <set comment="kpoint 9">
       <r>  -10.9933    1.0000 </r>
       <r>  -10.9883    1.0000 </r>
       <r>  -10.8881    1.0000 </r>
       <r>  -10.8097    1.0000 </r>
       <r>  -10.7047    1.0000 </r>
       <r>  -10.7002    1.0000 </r>
       <r>  -10.6179    1.0000 </r>
       <r>  -10.6147    1.0000 </r>
       <r>  -10.6109    1.0000 </r>
       <r>  -10.6092    1.0000 </r>
       <r>   -9.2016    1.0000 </r>
       <r>   -8.8722    1.0000 </r>
       <r>   -8.7802    1.0000 </r>
       <r>   -8.6427    1.0000 </r>
       <r>   -2.3322    1.0000 </r>
       <r>   -2.2137    1.0000 </r>
       <r>   -1.0711    1.0000 </r>
       <r>   -0.7235    1.0000 </r>
       <r>   -0.1583    1.0000 </r>
       <r>    0.5482    1.0000 </r>
       <r>    0.7853    1.0000 </r>
       <r>    0.7915    1.0000 </r>
       <r>    0.8816    1.0000 </r>
       <r>    1.0063    1.0000 </r>
       <r>    1.1924    1.0000 </r>
       <r>    1.3102    1.0000 </r>
       <r>    2.1870    1.0000 </r>
       <r>    2.1933    1.0000 </r>
       <r>    2.3087    1.0000 </r>
       <r>    2.4046    1.0000 </r>
       <r>    2.7945    1.0000 </r>
       <r>    2.9350    1.0000 </r>
       <r>    3.0354    1.0000 </r>
       <r>    3.0973    1.0000 </r>
       <r>    3.5009    1.0000 </r>
       <r>    3.7795    1.0000 </r>
       <r>    5.3362    0.0000 </r>
       <r>    5.3529    0.0000 </r>
       <r>    7.1235    0.0000 </r>
       <r>    7.1696    0.0000 </r>
       <r>    8.2659    0.0000 </r>
       <r>    8.5794    0.0000 </r>
       <r>    8.9694    0.0000 </r>
       <r>    9.0403    0.0000 </r>
       <r>    9.6452    0.0000 </r>
       <r>    9.7502    0.0000 </r>
       <r>   10.0956    0.0000 </r>
       <r>   10.1306    0.0000 </r>
       <r>   10.6849    0.0000 </r>
       <r>   10.7448    0.0000 </r>
       <r>   11.7115    0.0000 </r>
       <r>   11.8646    0.0000 </r>
       <r>   12.4314    0.0000 </r>
       <r>   13.0151    0.0000 </r>
       <r>   13.4706    0.0000 </r>
       <r>   13.7560    0.0000 </r>
       <r>   13.7737    0.0000 </r>
       <r>   14.6651    0.0000 </r>
       <r>   15.1638    0.0000 </r>
       <r>   15.2082    0.0000 </r>
      </set>
      <set comment="kpoint 10">
       <r>  -10.9593    1.0000 </r>
       <r>  -10.9593    1.0000 </r>
       <r>  -10.9475    1.0000 </r>
       <r>  -10.7765    1.0000 </r>
       <r>  -10.6798    1.0000 </r>
       <r>  -10.6798    1.0000 </r>
       <r>  -10.6374    1.0000 </r>
       <r>  -10.6227    1.0000 </r>
       <r>  -10.6127    1.0000 </r>
       <r>  -10.5981    1.0000 </r>
       <r>   -9.7274    1.0000 </r>
       <r>   -8.7630    1.0000 </r>
       <r>   -8.5341    1.0000 </r>
       <r>   -8.5341    1.0000 </r>
       <r>   -2.3277    1.0000 </r>
       <r>   -1.9297    1.0000 </r>
       <r>   -0.7812    1.0000 </r>
       <r>    0.2091    1.0000 </r>
       <r>    0.2804    1.0000 </r>
       <r>    0.5099    1.0000 </r>
       <r>    0.5099    1.0000 </r>
       <r>    0.7381    1.0000 </r>
       <r>    0.7381    1.0000 </r>
       <r>    0.7912    1.0000 </r>
       <r>    0.9954    1.0000 </r>
       <r>    0.9954    1.0000 </r>
       <r>    1.9886    1.0000 </r>
       <r>    2.1350    1.0000 </r>
       <r>    2.2634    1.0000 </r>
       <r>    2.2741    1.0000 </r>
       <r>    2.5264    1.0000 </r>
       <r>    2.6481    1.0000 </r>
       <r>    2.6481    1.0000 </r>
       <r>    3.1143    1.0000 </r>
       <r>    3.7682    1.0000 </r>
       <r>    3.7682    1.0000 </r>
       <r>    5.2074    0.0000 </r>
       <r>    5.9290    0.0000 </r>
       <r>    6.1729    0.0000 </r>
       <r>    6.7314    0.0000 </r>
       <r>    6.7314    0.0000 </r>
       <r>    7.5768    0.0000 </r>
       <r>    8.2729    0.0000 </r>
       <r>    8.2887    0.0000 </r>
       <r>    9.3765    0.0000 </r>
       <r>    9.3765    0.0000 </r>
       <r>   11.6367    0.0000 </r>
       <r>   11.6367    0.0000 </r>
       <r>   11.8714    0.0000 </r>
       <r>   11.9140    0.0000 </r>
       <r>   12.4174    0.0000 </r>
       <r>   12.4551    0.0000 </r>
       <r>   13.1055    0.0000 </r>
       <r>   13.1055    0.0000 </r>
       <r>   13.8673    0.0000 </r>
       <r>   13.9989    0.0000 </r>
       <r>   14.6822    0.0000 </r>
       <r>   15.3470    0.0000 </r>
       <r>   15.5842    0.0000 </r>
       <r>   15.9767    0.0000 </r>
      </set>
      <set comment="kpoint 11">
       <r>  -10.9767    1.0000 </r>
       <r>  -10.9643    1.0000 </r>
       <r>  -10.9174    1.0000 </r>
       <r>  -10.8143    1.0000 </r>
       <r>  -10.6846    1.0000 </r>
       <r>  -10.6749    1.0000 </r>
       <r>  -10.6349    1.0000 </r>
       <r>  -10.6265    1.0000 </r>
       <r>  -10.6071    1.0000 </r>
       <r>  -10.5988    1.0000 </r>
       <r>   -9.4721    1.0000 </r>
       <r>   -8.9089    1.0000 </r>
       <r>   -8.6746    1.0000 </r>
       <r>   -8.5389    1.0000 </r>
       <r>   -2.1862    1.0000 </r>
       <r>   -1.9522    1.0000 </r>
       <r>   -0.6619    1.0000 </r>
       <r>   -0.0091    1.0000 </r>
       <r>    0.1175    1.0000 </r>
       <r>    0.5112    1.0000 </r>
       <r>    0.5758    1.0000 </r>
       <r>    0.6868    1.0000 </r>
       <r>    0.7686    1.0000 </r>
       <r>    0.8960    1.0000 </r>
       <r>    0.9641    1.0000 </r>
       <r>    1.0546    1.0000 </r>
       <r>    2.1091    1.0000 </r>
       <r>    2.1752    1.0000 </r>
       <r>    2.2345    1.0000 </r>
       <r>    2.3072    1.0000 </r>
       <r>    2.4995    1.0000 </r>
       <r>    2.6841    1.0000 </r>
       <r>    2.7849    1.0000 </r>
       <r>    2.9762    1.0000 </r>
       <r>    3.3157    1.0000 </r>
       <r>    3.7408    1.0000 </r>
       <r>    5.5687    0.0000 </r>
       <r>    6.0407    0.0000 </r>
       <r>    6.3750    0.0000 </r>
       <r>    6.5632    0.0000 </r>
       <r>    6.8885    0.0000 </r>
       <r>    7.6779    0.0000 </r>
       <r>    8.2745    0.0000 </r>
       <r>    8.5706    0.0000 </r>
       <r>    9.5515    0.0000 </r>
       <r>    9.6577    0.0000 </r>
       <r>   10.2588    0.0000 </r>
       <r>   11.3590    0.0000 </r>
       <r>   11.7260    0.0000 </r>
       <r>   12.2319    0.0000 </r>
       <r>   12.3115    0.0000 </r>
       <r>   12.5740    0.0000 </r>
       <r>   12.6843    0.0000 </r>
       <r>   13.2484    0.0000 </r>
       <r>   13.5385    0.0000 </r>
       <r>   13.6390    0.0000 </r>
       <r>   14.3088    0.0000 </r>
       <r>   15.1991    0.0000 </r>
       <r>   15.6121    0.0000 </r>
       <r>   15.9266    0.0000 </r>
      </set>
      <set comment="kpoint 12">
       <r>  -10.9955    1.0000 </r>
       <r>  -10.9652    1.0000 </r>
       <r>  -10.9071    1.0000 </r>
       <r>  -10.8125    1.0000 </r>
       <r>  -10.6987    1.0000 </r>
       <r>  -10.6752    1.0000 </r>
       <r>  -10.6278    1.0000 </r>
       <r>  -10.6264    1.0000 </r>
       <r>  -10.6047    1.0000 </r>
       <r>  -10.6033    1.0000 </r>
       <r>   -9.1759    1.0000 </r>
       <r>   -9.0101    1.0000 </r>
       <r>   -8.8886    1.0000 </r>
       <r>   -8.5212    1.0000 </r>
       <r>   -2.0415    1.0000 </r>
       <r>   -1.8196    1.0000 </r>
       <r>   -0.6588    1.0000 </r>
       <r>   -0.3006    1.0000 </r>
       <r>   -0.1710    1.0000 </r>
       <r>    0.3075    1.0000 </r>
       <r>    0.4553    1.0000 </r>
       <r>    0.5272    1.0000 </r>
       <r>    0.7435    1.0000 </r>
       <r>    0.9509    1.0000 </r>
       <r>    0.9729    1.0000 </r>
       <r>    1.2133    1.0000 </r>
       <r>    2.1528    1.0000 </r>
       <r>    2.2197    1.0000 </r>
       <r>    2.2441    1.0000 </r>
       <r>    2.4151    1.0000 </r>
       <r>    2.5023    1.0000 </r>
       <r>    2.5620    1.0000 </r>
       <r>    2.7617    1.0000 </r>
       <r>    3.0989    1.0000 </r>
       <r>    3.3092    1.0000 </r>
       <r>    3.5887    1.0000 </r>
       <r>    5.9792    0.0000 </r>
       <r>    6.2651    0.0000 </r>
       <r>    6.4758    0.0000 </r>
       <r>    7.4203    0.0000 </r>
       <r>    8.2377    0.0000 </r>
       <r>    8.4289    0.0000 </r>
       <r>    8.5000    0.0000 </r>
       <r>    8.7140    0.0000 </r>
       <r>    9.5361    0.0000 </r>
       <r>    9.7231    0.0000 </r>
       <r>    9.8205    0.0000 </r>
       <r>   10.5169    0.0000 </r>
       <r>   10.8828    0.0000 </r>
       <r>   11.0983    0.0000 </r>
       <r>   11.3906    0.0000 </r>
       <r>   11.8324    0.0000 </r>
       <r>   11.9202    0.0000 </r>
       <r>   12.5772    0.0000 </r>
       <r>   12.8356    0.0000 </r>
       <r>   14.3462    0.0000 </r>
       <r>   15.0486    0.0000 </r>
       <r>   15.2766    0.0000 </r>
       <r>   15.4253    0.0000 </r>
       <r>   16.0772    0.0000 </r>
      </set>
      <set comment="kpoint 13">
       <r>  -10.9912    1.0000 </r>
       <r>  -10.9663    1.0000 </r>
       <r>  -10.9290    1.0000 </r>
       <r>  -10.7649    1.0000 </r>
       <r>  -10.7093    1.0000 </r>
       <r>  -10.6807    1.0000 </r>
       <r>  -10.6260    1.0000 </r>
       <r>  -10.6236    1.0000 </r>
       <r>  -10.6082    1.0000 </r>
       <r>  -10.6045    1.0000 </r>
       <r>   -9.4966    1.0000 </r>
       <r>   -8.8078    1.0000 </r>
       <r>   -8.7291    1.0000 </r>
       <r>   -8.5183    1.0000 </r>
       <r>   -2.1388    1.0000 </r>
       <r>   -1.7696    1.0000 </r>
       <r>   -0.8106    1.0000 </r>
       <r>   -0.2436    1.0000 </r>
       <r>   -0.0687    1.0000 </r>
       <r>    0.2056    1.0000 </r>
       <r>    0.2550    1.0000 </r>
       <r>    0.4780    1.0000 </r>
       <r>    0.7232    1.0000 </r>
       <r>    0.9317    1.0000 </r>
       <r>    0.9472    1.0000 </r>
       <r>    1.3002    1.0000 </r>
       <r>    2.1880    1.0000 </r>
       <r>    2.2043    1.0000 </r>
       <r>    2.2500    1.0000 </r>
       <r>    2.4124    1.0000 </r>
       <r>    2.4747    1.0000 </r>
       <r>    2.6095    1.0000 </r>
       <r>    2.8087    1.0000 </r>
       <r>    3.1130    1.0000 </r>
       <r>    3.3938    1.0000 </r>
       <r>    3.5886    1.0000 </r>
       <r>    5.9039    0.0000 </r>
       <r>    6.4490    0.0000 </r>
       <r>    7.0343    0.0000 </r>
       <r>    7.5453    0.0000 </r>
       <r>    7.7870    0.0000 </r>
       <r>    8.1146    0.0000 </r>
       <r>    8.9723    0.0000 </r>
       <r>    9.2350    0.0000 </r>
       <r>    9.5748    0.0000 </r>
       <r>    9.8268    0.0000 </r>
       <r>   10.1480    0.0000 </r>
       <r>   10.4977    0.0000 </r>
       <r>   10.6529    0.0000 </r>
       <r>   11.0143    0.0000 </r>
       <r>   11.2432    0.0000 </r>
       <r>   11.5740    0.0000 </r>
       <r>   11.7179    0.0000 </r>
       <r>   12.9334    0.0000 </r>
       <r>   13.2159    0.0000 </r>
       <r>   13.3959    0.0000 </r>
       <r>   14.1457    0.0000 </r>
       <r>   14.8406    0.0000 </r>
       <r>   15.0737    0.0000 </r>
       <r>   15.6510    0.0000 </r>
      </set>
      <set comment="kpoint 14">
       <r>  -10.9700    1.0000 </r>
       <r>  -10.9666    1.0000 </r>
       <r>  -10.9444    1.0000 </r>
       <r>  -10.7433    1.0000 </r>
       <r>  -10.6991    1.0000 </r>
       <r>  -10.6846    1.0000 </r>
       <r>  -10.6324    1.0000 </r>
       <r>  -10.6191    1.0000 </r>
       <r>  -10.6145    1.0000 </r>
       <r>  -10.6007    1.0000 </r>
       <r>   -9.7404    1.0000 </r>
       <r>   -8.6331    1.0000 </r>
       <r>   -8.6139    1.0000 </r>
       <r>   -8.5473    1.0000 </r>
       <r>   -2.3019    1.0000 </r>
       <r>   -1.8027    1.0000 </r>
       <r>   -0.8346    1.0000 </r>
       <r>   -0.2001    1.0000 </r>
       <r>    0.0943    1.0000 </r>
       <r>    0.4575    1.0000 </r>
       <r>    0.4867    1.0000 </r>
       <r>    0.6201    1.0000 </r>
       <r>    0.6558    1.0000 </r>
       <r>    0.8755    1.0000 </r>
       <r>    0.9482    1.0000 </r>
       <r>    1.1271    1.0000 </r>
       <r>    2.1216    1.0000 </r>
       <r>    2.2001    1.0000 </r>
       <r>    2.2224    1.0000 </r>
       <r>    2.3143    1.0000 </r>
       <r>    2.4513    1.0000 </r>
       <r>    2.6058    1.0000 </r>
       <r>    2.6395    1.0000 </r>
       <r>    3.0661    1.0000 </r>
       <r>    3.7302    1.0000 </r>
       <r>    4.0192    1.0000 </r>
       <r>    5.1226    0.0000 </r>
       <r>    6.2273    0.0000 </r>
       <r>    6.5315    0.0000 </r>
       <r>    7.1014    0.0000 </r>
       <r>    7.4134    0.0000 </r>
       <r>    8.3606    0.0000 </r>
       <r>    8.7615    0.0000 </r>
       <r>    8.8202    0.0000 </r>
       <r>    9.0280    0.0000 </r>
       <r>    9.3193    0.0000 </r>
       <r>   10.1451    0.0000 </r>
       <r>   10.8853    0.0000 </r>
       <r>   11.3660    0.0000 </r>
       <r>   11.6185    0.0000 </r>
       <r>   12.4332    0.0000 </r>
       <r>   12.6707    0.0000 </r>
       <r>   13.2066    0.0000 </r>
       <r>   13.2717    0.0000 </r>
       <r>   13.3822    0.0000 </r>
       <r>   13.5406    0.0000 </r>
       <r>   13.8476    0.0000 </r>
       <r>   14.1780    0.0000 </r>
       <r>   14.9537    0.0000 </r>
       <r>   15.6525    0.0000 </r>
      </set>
      <set comment="kpoint 15">
       <r>  -10.9794    1.0000 </r>
       <r>  -10.9779    1.0000 </r>
       <r>  -10.8809    1.0000 </r>
       <r>  -10.8493    1.0000 </r>
       <r>  -10.6829    1.0000 </r>
       <r>  -10.6810    1.0000 </r>
       <r>  -10.6303    1.0000 </r>
       <r>  -10.6278    1.0000 </r>
       <r>  -10.6037    1.0000 </r>
       <r>  -10.6012    1.0000 </r>
       <r>   -9.2276    1.0000 </r>
       <r>   -9.0527    1.0000 </r>
       <r>   -8.6623    1.0000 </r>
       <r>   -8.6603    1.0000 </r>
       <r>   -2.0862    1.0000 </r>
       <r>   -2.0119    1.0000 </r>
       <r>   -0.6582    1.0000 </r>
       <r>   -0.4751    1.0000 </r>
       <r>    0.4274    1.0000 </r>
       <r>    0.4429    1.0000 </r>
       <r>    0.6008    1.0000 </r>
       <r>    0.6729    1.0000 </r>
       <r>    0.7728    1.0000 </r>
       <r>    0.8776    1.0000 </r>
       <r>    1.0347    1.0000 </r>
       <r>    1.0663    1.0000 </r>
       <r>    2.1717    1.0000 </r>
       <r>    2.1945    1.0000 </r>
       <r>    2.2527    1.0000 </r>
       <r>    2.2830    1.0000 </r>
       <r>    2.5467    1.0000 </r>
       <r>    2.6150    1.0000 </r>
       <r>    3.0280    1.0000 </r>
       <r>    3.1231    1.0000 </r>
       <r>    3.3305    1.0000 </r>
       <r>    3.3512    1.0000 </r>
       <r>    5.6720    0.0000 </r>
       <r>    5.8831    0.0000 </r>
       <r>    6.5606    0.0000 </r>
       <r>    6.6174    0.0000 </r>
       <r>    7.4580    0.0000 </r>
       <r>    7.6945    0.0000 </r>
       <r>    8.5362    0.0000 </r>
       <r>    8.6160    0.0000 </r>
       <r>    9.6372    0.0000 </r>
       <r>    9.6619    0.0000 </r>
       <r>   10.2313    0.0000 </r>
       <r>   10.5704    0.0000 </r>
       <r>   11.2884    0.0000 </r>
       <r>   11.3132    0.0000 </r>
       <r>   12.4675    0.0000 </r>
       <r>   12.6028    0.0000 </r>
       <r>   12.9886    0.0000 </r>
       <r>   13.1254    0.0000 </r>
       <r>   13.6683    0.0000 </r>
       <r>   13.7339    0.0000 </r>
       <r>   14.5379    0.0000 </r>
       <r>   14.7586    0.0000 </r>
       <r>   15.2749    0.0000 </r>
       <r>   15.2793    0.0000 </r>
      </set>
      <set comment="kpoint 16">
       <r>  -10.9943    1.0000 </r>
       <r>  -10.9773    1.0000 </r>
       <r>  -10.8904    1.0000 </r>
       <r>  -10.8221    1.0000 </r>
       <r>  -10.6990    1.0000 </r>
       <r>  -10.6850    1.0000 </r>
       <r>  -10.6249    1.0000 </r>
       <r>  -10.6229    1.0000 </r>
       <r>  -10.6058    1.0000 </r>
       <r>  -10.6044    1.0000 </r>
       <r>   -9.1267    1.0000 </r>
       <r>   -8.9824    1.0000 </r>
       <r>   -8.8552    1.0000 </r>
       <r>   -8.6036    1.0000 </r>
       <r>   -2.1223    1.0000 </r>
       <r>   -1.9719    1.0000 </r>
       <r>   -0.8690    1.0000 </r>
       <r>   -0.6214    1.0000 </r>
       <r>   -0.0078    1.0000 </r>
       <r>    0.5223    1.0000 </r>
       <r>    0.5848    1.0000 </r>
       <r>    0.6816    1.0000 </r>
       <r>    0.7442    1.0000 </r>
       <r>    1.0089    1.0000 </r>
       <r>    1.0706    1.0000 </r>
       <r>    1.1580    1.0000 </r>
       <r>    2.1693    1.0000 </r>
       <r>    2.1937    1.0000 </r>
       <r>    2.2344    1.0000 </r>
       <r>    2.4204    1.0000 </r>
       <r>    2.5493    1.0000 </r>
       <r>    2.7079    1.0000 </r>
       <r>    2.9163    1.0000 </r>
       <r>    3.2226    1.0000 </r>
       <r>    3.3210    1.0000 </r>
       <r>    3.5370    1.0000 </r>
       <r>    5.6526    0.0000 </r>
       <r>    5.8679    0.0000 </r>
       <r>    6.9720    0.0000 </r>
       <r>    7.6092    0.0000 </r>
       <r>    7.9831    0.0000 </r>
       <r>    8.2526    0.0000 </r>
       <r>    8.6119    0.0000 </r>
       <r>    8.8767    0.0000 </r>
       <r>    9.4655    0.0000 </r>
       <r>    9.7347    0.0000 </r>
       <r>    9.9948    0.0000 </r>
       <r>   10.2407    0.0000 </r>
       <r>   10.6178    0.0000 </r>
       <r>   10.8260    0.0000 </r>
       <r>   11.6900    0.0000 </r>
       <r>   12.2192    0.0000 </r>
       <r>   12.6238    0.0000 </r>
       <r>   12.9841    0.0000 </r>
       <r>   13.3353    0.0000 </r>
       <r>   13.6960    0.0000 </r>
       <r>   13.9900    0.0000 </r>
       <r>   14.5939    0.0000 </r>
       <r>   15.2663    0.0000 </r>
       <r>   15.5530    0.0000 </r>
      </set>
      <set comment="kpoint 17">
       <r>  -10.9900    1.0000 </r>
       <r>  -10.9776    1.0000 </r>
       <r>  -10.9152    1.0000 </r>
       <r>  -10.7799    1.0000 </r>
       <r>  -10.7080    1.0000 </r>
       <r>  -10.6898    1.0000 </r>
       <r>  -10.6248    1.0000 </r>
       <r>  -10.6191    1.0000 </r>
       <r>  -10.6097    1.0000 </r>
       <r>  -10.6044    1.0000 </r>
       <r>   -9.3731    1.0000 </r>
       <r>   -8.8700    1.0000 </r>
       <r>   -8.7114    1.0000 </r>
       <r>   -8.5806    1.0000 </r>
       <r>   -2.2184    1.0000 </r>
       <r>   -1.9453    1.0000 </r>
       <r>   -0.9980    1.0000 </r>
       <r>   -0.3892    1.0000 </r>
       <r>   -0.1012    1.0000 </r>
       <r>    0.2607    1.0000 </r>
       <r>    0.5556    1.0000 </r>
       <r>    0.7276    1.0000 </r>
       <r>    0.8257    1.0000 </r>
       <r>    0.9111    1.0000 </r>
       <r>    1.1039    1.0000 </r>
       <r>    1.2462    1.0000 </r>
       <r>    2.1619    1.0000 </r>
       <r>    2.2306    1.0000 </r>
       <r>    2.2686    1.0000 </r>
       <r>    2.3610    1.0000 </r>
       <r>    2.6481    1.0000 </r>
       <r>    2.7135    1.0000 </r>
       <r>    2.8631    1.0000 </r>
       <r>    3.0571    1.0000 </r>
       <r>    3.4662    1.0000 </r>
       <r>    3.5827    1.0000 </r>
       <r>    5.6529    0.0000 </r>
       <r>    6.0530    0.0000 </r>
       <r>    7.0588    0.0000 </r>
       <r>    7.3752    0.0000 </r>
       <r>    8.0069    0.0000 </r>
       <r>    8.4003    0.0000 </r>
       <r>    8.7666    0.0000 </r>
       <r>    8.9198    0.0000 </r>
       <r>    9.5481    0.0000 </r>
       <r>    9.7711    0.0000 </r>
       <r>   10.3020    0.0000 </r>
       <r>   10.5368    0.0000 </r>
       <r>   10.7062    0.0000 </r>
       <r>   10.9900    0.0000 </r>
       <r>   11.3521    0.0000 </r>
       <r>   11.9915    0.0000 </r>
       <r>   12.3018    0.0000 </r>
       <r>   12.7158    0.0000 </r>
       <r>   13.3832    0.0000 </r>
       <r>   13.5428    0.0000 </r>
       <r>   14.2870    0.0000 </r>
       <r>   14.5315    0.0000 </r>
       <r>   14.6300    0.0000 </r>
       <r>   15.2344    0.0000 </r>
      </set>
      <set comment="kpoint 18">
       <r>  -10.9773    1.0000 </r>
       <r>  -10.9733    1.0000 </r>
       <r>  -10.9257    1.0000 </r>
       <r>  -10.7804    1.0000 </r>
       <r>  -10.6953    1.0000 </r>
       <r>  -10.6862    1.0000 </r>
       <r>  -10.6315    1.0000 </r>
       <r>  -10.6197    1.0000 </r>
       <r>  -10.6118    1.0000 </r>
       <r>  -10.6001    1.0000 </r>
       <r>   -9.5334    1.0000 </r>
       <r>   -8.7467    1.0000 </r>
       <r>   -8.6492    1.0000 </r>
       <r>   -8.6280    1.0000 </r>
       <r>   -2.2295    1.0000 </r>
       <r>   -1.9010    1.0000 </r>
       <r>   -0.8842    1.0000 </r>
       <r>   -0.0676    1.0000 </r>
       <r>    0.1561    1.0000 </r>
       <r>    0.2063    1.0000 </r>
       <r>    0.3491    1.0000 </r>
       <r>    0.7247    1.0000 </r>
       <r>    0.7908    1.0000 </r>
       <r>    0.9101    1.0000 </r>
       <r>    1.0894    1.0000 </r>
       <r>    1.1243    1.0000 </r>
       <r>    2.1419    1.0000 </r>
       <r>    2.2077    1.0000 </r>
       <r>    2.3213    1.0000 </r>
       <r>    2.3263    1.0000 </r>
       <r>    2.4938    1.0000 </r>
       <r>    2.6227    1.0000 </r>
       <r>    2.7077    1.0000 </r>
       <r>    2.9967    1.0000 </r>
       <r>    3.7651    1.0000 </r>
       <r>    3.8064    1.0000 </r>
       <r>    5.1680    0.0000 </r>
       <r>    5.9954    0.0000 </r>
       <r>    6.6979    0.0000 </r>
       <r>    6.8767    0.0000 </r>
       <r>    7.3351    0.0000 </r>
       <r>    8.4239    0.0000 </r>
[...]
        <r>  0.0012  0.0006  0.0076  0.0041  0.0506  0.0021  0.0203  0.1433  0.0002 </r>
        <r>  0.0030  0.0017  0.0000  0.0196  0.0059  0.0364  0.0097  0.0991  0.1351 </r>
        <r>  0.0004  0.0289  0.0183  0.0024  0.0009  0.0003  0.0001  0.0006  0.0000 </r>
        <r>  0.0011  0.0120  0.0361  0.0463  0.0001  0.0000  0.0008  0.0002  0.0005 </r>
        <r>  0.0009  0.0016  0.0007  0.0094  0.0002  0.0000  0.0004  0.0004  0.0000 </r>
        <r>  0.0016  0.0016  0.0023  0.0526  0.0001  0.0001  0.0000  0.0001  0.0004 </r>
       </set>
       <set comment="band 37">
        <r>  0.1149  0.0043  0.0009  0.0039  0.0002  0.0008  0.0000  0.0005  0.0004 </r>
        <r>  0.1048  0.0054  0.0007  0.0043  0.0001  0.0009  0.0000  0.0002  0.0006 </r>
        <r>  0.0158  0.0054  0.0021  0.0004  0.0034  0.0082  0.0028  0.0001  0.0039 </r>
        <r>  0.0143  0.0029  0.0041  0.0015  0.0087  0.0047  0.0005  0.0030  0.0009 </r>
        <r>  0.0287  0.0011  0.0087  0.0389  0.0004  0.0017  0.0002  0.0006  0.0004 </r>
        <r>  0.0092  0.0332  0.0085  0.0054  0.0032  0.0022  0.0001  0.0003  0.0004 </r>
        <r>  0.0274  0.0246  0.0156  0.0072  0.0009  0.0010  0.0000  0.0006  0.0009 </r>
        <r>  0.0079  0.0047  0.0394  0.0018  0.0024  0.0026  0.0005  0.0003  0.0005 </r>
       </set>
       <set comment="band 38">
        <r>  0.1048  0.0026  0.0007  0.0071  0.0001  0.0001  0.0000  0.0010  0.0006 </r>
        <r>  0.1149  0.0024  0.0009  0.0058  0.0001  0.0003  0.0000  0.0010  0.0005 </r>
        <r>  0.0143  0.0010  0.0041  0.0034  0.0059  0.0022  0.0005  0.0055  0.0036 </r>
        <r>  0.0158  0.0003  0.0021  0.0055  0.0028  0.0005  0.0028  0.0077  0.0046 </r>
        <r>  0.0079  0.0015  0.0394  0.0049  0.0013  0.0000  0.0005  0.0029  0.0016 </r>
        <r>  0.0274  0.0053  0.0156  0.0265  0.0002  0.0003  0.0000  0.0013  0.0016 </r>
        <r>  0.0092  0.0117  0.0085  0.0269  0.0020  0.0001  0.0001  0.0025  0.0016 </r>
        <r>  0.0287  0.0389  0.0087  0.0011  0.0001  0.0003  0.0002  0.0020  0.0007 </r>
       </set>
       <set comment="band 39">
        <r>  0.0077  0.0123  0.0218  0.0082  0.0013  0.0008  0.0005  0.0004  0.0010 </r>
        <r>  0.0191  0.0185  0.0549  0.0096  0.0047  0.0006  0.0012  0.0002  0.0010 </r>
        <r>  0.0296  0.0013  0.0019  0.0010  0.0002  0.0006  0.0012  0.0032  0.0016 </r>
        <r>  0.0857  0.0026  0.0023  0.0012  0.0020  0.0010  0.0016  0.0017  0.0018 </r>
        <r>  0.0123  0.0146  0.0056  0.0222  0.0077  0.0017  0.0021  0.0007  0.0002 </r>
        <r>  0.0191  0.0257  0.0121  0.0088  0.0050  0.0002  0.0014  0.0009  0.0029 </r>
        <r>  0.0115  0.0064  0.0040  0.0030  0.0037  0.0013  0.0016  0.0005  0.0000 </r>
        <r>  0.0183  0.0078  0.0078  0.0019  0.0030  0.0003  0.0012  0.0002  0.0005 </r>
       </set>
       <set comment="band 40">
        <r>  0.0191  0.0148  0.0549  0.0133  0.0054  0.0001  0.0012  0.0007  0.0003 </r>
        <r>  0.0077  0.0085  0.0218  0.0119  0.0017  0.0002  0.0005  0.0010  0.0006 </r>
        <r>  0.0857  0.0009  0.0023  0.0030  0.0028  0.0016  0.0016  0.0010  0.0010 </r>
        <r>  0.0296  0.0010  0.0019  0.0012  0.0003  0.0030  0.0012  0.0009  0.0015 </r>
        <r>  0.0183  0.0006  0.0078  0.0091  0.0034  0.0003  0.0012  0.0003  0.0001 </r>
        <r>  0.0115  0.0028  0.0040  0.0066  0.0033  0.0007  0.0016  0.0011  0.0004 </r>
        <r>  0.0191  0.0038  0.0121  0.0306  0.0074  0.0008  0.0014  0.0002  0.0005 </r>
        <r>  0.0123  0.0188  0.0056  0.0179  0.0070  0.0004  0.0021  0.0021  0.0009 </r>
       </set>
       <set comment="band 41">
        <r>  0.0027  0.0896  0.0313  0.0020  0.0027  0.0001  0.0063  0.0032  0.0007 </r>
        <r>  0.0018  0.0413  0.0123  0.0035  0.0046  0.0025  0.0025  0.0024  0.0035 </r>
        <r>  0.0006  0.0010  0.0008  0.0006  0.0015  0.0018  0.0010  0.0004  0.0012 </r>
        <r>  0.0002  0.0036  0.0030  0.0040  0.0088  0.0026  0.0048  0.0021  0.0015 </r>
        <r>  0.0051  0.0005  0.0158  0.0143  0.0003  0.0020  0.0044  0.0011  0.0017 </r>
        <r>  0.0056  0.0080  0.0082  0.0120  0.0036  0.0029  0.0006  0.0017  0.0011 </r>
        <r>  0.0059  0.0114  0.0045  0.0205  0.0004  0.0024  0.0007  0.0016  0.0053 </r>
        <r>  0.0064  0.0034  0.0196  0.0108  0.0009  0.0042  0.0021  0.0010  0.0024 </r>
       </set>
       <set comment="band 42">
        <r>  0.0018  0.0023  0.0123  0.0426  0.0061  0.0023  0.0025  0.0027  0.0021 </r>
        <r>  0.0027  0.0049  0.0313  0.0867  0.0015  0.0030  0.0063  0.0002  0.0020 </r>
        <r>  0.0002  0.0031  0.0030  0.0046  0.0057  0.0017  0.0048  0.0030  0.0046 </r>
        <r>  0.0006  0.0005  0.0008  0.0011  0.0022  0.0005  0.0010  0.0016  0.0005 </r>
        <r>  0.0064  0.0128  0.0196  0.0014  0.0017  0.0004  0.0021  0.0048  0.0015 </r>
        <r>  0.0059  0.0260  0.0045  0.0059  0.0002  0.0021  0.0007  0.0019  0.0054 </r>
        <r>  0.0056  0.0133  0.0082  0.0067  0.0021  0.0019  0.0006  0.0028  0.0025 </r>
        <r>  0.0051  0.0147  0.0158  0.0002  0.0001  0.0010  0.0044  0.0022  0.0019 </r>
       </set>
       <set comment="band 43">
        <r>  0.0048  0.0029  0.0404  0.0563  0.0002  0.0003  0.0022  0.0016  0.0001 </r>
        <r>  0.0038  0.0276  0.0255  0.0399  0.0022  0.0003  0.0005  0.0020  0.0006 </r>
        <r>  0.0222  0.0022  0.0012  0.0054  0.0003  0.0069  0.0008  0.0054  0.0040 </r>
        <r>  0.0163  0.0018  0.0016  0.0037  0.0007  0.0026  0.0028  0.0063  0.0019 </r>
        <r>  0.0015  0.0106  0.0041  0.0006  0.0002  0.0017  0.0034  0.0109  0.0032 </r>
        <r>  0.0026  0.0169  0.0030  0.0107  0.0026  0.0033  0.0073  0.0071  0.0008 </r>
        <r>  0.0017  0.0066  0.0064  0.0065  0.0015  0.0004  0.0016  0.0067  0.0027 </r>
        <r>  0.0028  0.0064  0.0284  0.0001  0.0010  0.0011  0.0006  0.0083  0.0036 </r>
       </set>
       <set comment="band 44">
        <r>  0.0038  0.0314  0.0255  0.0361  0.0022  0.0022  0.0005  0.0001  0.0006 </r>
        <r>  0.0048  0.0590  0.0404  0.0002  0.0003  0.0018  0.0022  0.0001  0.0001 </r>
        <r>  0.0163  0.0027  0.0016  0.0028  0.0002  0.0065  0.0028  0.0024  0.0024 </r>
        <r>  0.0222  0.0046  0.0012  0.0030  0.0006  0.0075  0.0008  0.0048  0.0038 </r>
        <r>  0.0028  0.0005  0.0284  0.0060  0.0003  0.0091  0.0006  0.0003  0.0043 </r>
        <r>  0.0017  0.0083  0.0064  0.0049  0.0028  0.0059  0.0016  0.0012  0.0013 </r>
        <r>  0.0026  0.0145  0.0030  0.0131  0.0030  0.0071  0.0073  0.0034  0.0004 </r>
        <r>  0.0015  0.0011  0.0041  0.0101  0.0002  0.0121  0.0034  0.0005  0.0032 </r>
       </set>
       <set comment="band 45">
        <r>  0.0018  0.0208  0.0026  0.0129  0.0005  0.0005  0.0011  0.0055  0.0094 </r>
        <r>  0.0021  0.0125  0.0132  0.0111  0.0005  0.0027  0.0025  0.0083  0.0028 </r>
        <r>  0.0152  0.0029  0.0154  0.0052  0.0012  0.0002  0.0025  0.0011  0.0001 </r>
        <r>  0.0189  0.0173  0.0052  0.0033  0.0013  0.0009  0.0018  0.0002  0.0016 </r>
        <r>  0.0006  0.0099  0.0071  0.0107  0.0011  0.0001  0.0052  0.0068  0.0019 </r>
        <r>  0.0004  0.0089  0.0003  0.0124  0.0002  0.0036  0.0136  0.0003  0.0077 </r>
        <r>  0.0007  0.0020  0.0246  0.0008  0.0019  0.0052  0.0027  0.0017  0.0047 </r>
        <r>  0.0006  0.0044  0.0126  0.0043  0.0103  0.0002  0.0055  0.0075  0.0031 </r>
       </set>
       <set comment="band 46">
        <r>  0.0021  0.0106  0.0132  0.0131  0.0002  0.0077  0.0025  0.0033  0.0031 </r>
        <r>  0.0018  0.0135  0.0026  0.0202  0.0020  0.0057  0.0011  0.0002  0.0079 </r>
        <r>  0.0189  0.0067  0.0052  0.0139  0.0023  0.0002  0.0018  0.0009  0.0006 </r>
        <r>  0.0152  0.0061  0.0154  0.0020  0.0008  0.0009  0.0025  0.0004  0.0006 </r>
        <r>  0.0006  0.0033  0.0126  0.0054  0.0100  0.0068  0.0055  0.0009  0.0034 </r>
        <r>  0.0007  0.0011  0.0246  0.0017  0.0007  0.0030  0.0027  0.0039  0.0059 </r>
        <r>  0.0004  0.0139  0.0003  0.0074  0.0018  0.0004  0.0136  0.0035  0.0061 </r>
        <r>  0.0006  0.0144  0.0071  0.0062  0.0014  0.0064  0.0052  0.0005  0.0015 </r>
       </set>
       <set comment="band 47">
        <r>  0.0009  0.0117  0.0116  0.0089  0.0009  0.0078  0.0021  0.0040  0.0000 </r>
        <r>  0.0007  0.0075  0.0043  0.0035  0.0010  0.0037  0.0013  0.0036  0.0021 </r>
        <r>  0.0018  0.0130  0.0162  0.0225  0.0024  0.0002  0.0029  0.0042  0.0038 </r>
        <r>  0.0038  0.0014  0.0222  0.0243  0.0007  0.0002  0.0017  0.0049  0.0049 </r>
        <r>  0.0019  0.0013  0.0008  0.0039  0.0006  0.0066  0.0167  0.0018  0.0038 </r>
        <r>  0.0020  0.0055  0.0032  0.0046  0.0037  0.0007  0.0013  0.0136  0.0023 </r>
        <r>  0.0011  0.0005  0.0019  0.0024  0.0025  0.0020  0.0058  0.0120  0.0054 </r>
        <r>  0.0011  0.0049  0.0029  0.0043  0.0051  0.0001  0.0001  0.0051  0.0094 </r>
       </set>
       <set comment="band 48">
        <r>  0.0007  0.0045  0.0043  0.0065  0.0001  0.0051  0.0013  0.0023  0.0030 </r>
        <r>  0.0009  0.0125  0.0116  0.0081  0.0008  0.0053  0.0021  0.0064  0.0001 </r>
        <r>  0.0038  0.0213  0.0222  0.0044  0.0020  0.0044  0.0017  0.0008  0.0036 </r>
        <r>  0.0018  0.0264  0.0162  0.0092  0.0039  0.0043  0.0029  0.0000  0.0023 </r>
        <r>  0.0011  0.0031  0.0029  0.0061  0.0076  0.0051  0.0001  0.0000  0.0069 </r>
        <r>  0.0011  0.0027  0.0019  0.0002  0.0053  0.0133  0.0058  0.0007  0.0026 </r>
        <r>  0.0020  0.0035  0.0032  0.0066  0.0056  0.0140  0.0013  0.0003  0.0004 </r>
        <r>  0.0019  0.0046  0.0008  0.0006  0.0021  0.0030  0.0167  0.0054  0.0022 </r>
       </set>
       <set comment="band 49">
        <r>  0.0017  0.0121  0.0037  0.0112  0.0021  0.0019  0.0022  0.0009  0.0029 </r>
        <r>  0.0023  0.0161  0.0103  0.0255  0.0028  0.0031  0.0001  0.0005  0.0006 </r>
        <r>  0.0107  0.0131  0.0081  0.0026  0.0012  0.0016  0.0067  0.0009  0.0005 </r>
        <r>  0.0132  0.0043  0.0058  0.0082  0.0122  0.0014  0.0009  0.0001  0.0016 </r>
        <r>  0.0027  0.0235  0.0172  0.0030  0.0048  0.0024  0.0025  0.0064  0.0006 </r>
        <r>  0.0003  0.0138  0.0302  0.0242  0.0041  0.0014  0.0015  0.0023  0.0014 </r>
        <r>  0.0042  0.0133  0.0092  0.0047  0.0021  0.0017  0.0094  0.0002  0.0024 </r>
        <r>  0.0018  0.0329  0.0027  0.0161  0.0008  0.0006  0.0013  0.0015  0.0055 </r>
       </set>
       <set comment="band 50">
        <r>  0.0023  0.0187  0.0103  0.0228  0.0018  0.0001  0.0001  0.0035  0.0016 </r>
        <r>  0.0017  0.0079  0.0037  0.0154  0.0026  0.0005  0.0022  0.0024  0.0025 </r>
        <r>  0.0132  0.0101  0.0058  0.0025  0.0138  0.0002  0.0009  0.0014  0.0001 </r>
        <r>  0.0107  0.0042  0.0081  0.0114  0.0006  0.0014  0.0067  0.0012  0.0012 </r>
        <r>  0.0018  0.0125  0.0027  0.0364  0.0021  0.0015  0.0013  0.0006  0.0043 </r>
        <r>  0.0042  0.0051  0.0092  0.0130  0.0037  0.0001  0.0094  0.0018  0.0008 </r>
        <r>  0.0003  0.0167  0.0302  0.0213  0.0023  0.0016  0.0015  0.0021  0.0033 </r>
        <r>  0.0027  0.0033  0.0172  0.0232  0.0050  0.0072  0.0025  0.0015  0.0004 </r>
       </set>
       <set comment="band 51">
        <r>  0.0006  0.0104  0.0007  0.0037  0.0002  0.0015  0.0005  0.0004  0.0003 </r>
        <r>  0.0004  0.0032  0.0003  0.0059  0.0053  0.0001  0.0009  0.0007  0.0003 </r>
        <r>  0.0012  0.0169  0.0011  0.0034  0.0054  0.0022  0.0032  0.0058  0.0031 </r>
        <r>  0.0003  0.0363  0.0073  0.0202  0.0017  0.0018  0.0003  0.0045  0.0028 </r>
        <r>  0.0035  0.0111  0.0137  0.0162  0.0037  0.0069  0.0013  0.0032  0.0029 </r>
        <r>  0.0038  0.0116  0.0068  0.0115  0.0001  0.0016  0.0007  0.0103  0.0052 </r>
        <r>  0.0002  0.0123  0.0152  0.0109  0.0012  0.0013  0.0044  0.0023  0.0060 </r>
        <r>  0.0005  0.0044  0.0023  0.0207  0.0040  0.0017  0.0005  0.0005  0.0085 </r>
       </set>
       <set comment="band 52">
        <r>  0.0004  0.0041  0.0003  0.0050  0.0036  0.0008  0.0009  0.0001  0.0020 </r>
        <r>  0.0006  0.0016  0.0007  0.0125  0.0000  0.0003  0.0005  0.0016  0.0004 </r>
        <r>  0.0003  0.0106  0.0073  0.0459  0.0007  0.0033  0.0003  0.0030  0.0038 </r>
        <r>  0.0012  0.0015  0.0011  0.0188  0.0043  0.0043  0.0032  0.0037  0.0042 </r>
        <r>  0.0005  0.0221  0.0023  0.0030  0.0010  0.0005  0.0005  0.0017  0.0116 </r>
        <r>  0.0002  0.0070  0.0152  0.0162  0.0000  0.0016  0.0044  0.0020  0.0073 </r>
        <r>  0.0038  0.0103  0.0068  0.0128  0.0013  0.0091  0.0007  0.0029  0.0040 </r>
        <r>  0.0035  0.0110  0.0137  0.0163  0.0022  0.0016  0.0013  0.0085  0.0044 </r>
       </set>
       <set comment="band 53">
        <r>  0.0025  0.0063  0.0071  0.0223  0.0009  0.0007  0.0001  0.0008  0.0117 </r>
        <r>  0.0010  0.0012  0.0059  0.0046  0.0001  0.0045  0.0006  0.0145  0.0173 </r>
        <r>  0.0015  0.0076  0.0057  0.0067  0.0008  0.0022  0.0001  0.0013  0.0096 </r>
        <r>  0.0043  0.0003  0.0040  0.0017  0.0003  0.0082  0.0015  0.0037  0.0065 </r>
        <r>  0.0002  0.0082  0.0052  0.0055  0.0023  0.0004  0.0002  0.0059  0.0169 </r>
        <r>  0.0003  0.0130  0.0022  0.0093  0.0041  0.0019  0.0015  0.0008  0.0227 </r>
        <r>  0.0001  0.0019  0.0067  0.0005  0.0014  0.0119  0.0002  0.0110  0.0045 </r>
        <r>  0.0002  0.0048  0.0094  0.0005  0.0004  0.0098  0.0003  0.0205  0.0033 </r>
       </set>
       <set comment="band 54">
        <r>  0.0010  0.0039  0.0059  0.0019  0.0019  0.0110  0.0006  0.0080  0.0155 </r>
        <r>  0.0025  0.0211  0.0070  0.0075  0.0017  0.0006  0.0001  0.0009  0.0109 </r>
        <r>  0.0043  0.0017  0.0039  0.0003  0.0010  0.0021  0.0016  0.0098  0.0057 </r>
        <r>  0.0015  0.0061  0.0057  0.0082  0.0011  0.0007  0.0001  0.0028  0.0093 </r>
        <r>  0.0002  0.0005  0.0094  0.0049  0.0014  0.0147  0.0003  0.0156  0.0024 </r>
        <r>  0.0001  0.0007  0.0067  0.0018  0.0002  0.0075  0.0002  0.0154  0.0057 </r>
        <r>  0.0003  0.0126  0.0022  0.0096  0.0010  0.0006  0.0015  0.0022  0.0258 </r>
        <r>  0.0002  0.0078  0.0052  0.0058  0.0031  0.0058  0.0002  0.0004  0.0161 </r>
       </set>
       <set comment="band 55">
        <r>  0.0400  0.0005  0.0000  0.0021  0.0007  0.0011  0.0000  0.0039  0.0015 </r>
        <r>  0.0020  0.0024  0.0030  0.0037  0.0001  0.0032  0.0001  0.0047  0.0045 </r>
        <r>  0.0663  0.0005  0.0004  0.0006  0.0001  0.0015  0.0002  0.0007  0.0011 </r>
        <r>  0.0076  0.0014  0.0038  0.0036  0.0005  0.0002  0.0000  0.0003  0.0001 </r>
        <r>  0.0018  0.0028  0.0040  0.0029  0.0002  0.0010  0.0022  0.0017  0.0006 </r>
        <r>  0.0020  0.0008  0.0064  0.0064  0.0007  0.0029  0.0010  0.0002  0.0013 </r>
        <r>  0.0038  0.0079  0.0039  0.0143  0.0088  0.0006  0.0012  0.0020  0.0004 </r>
        <r>  0.0040  0.0074  0.0015  0.0210  0.0058  0.0010  0.0053  0.0001  0.0013 </r>
       </set>
       <set comment="band 56">
        <r>  0.0020  0.0030  0.0030  0.0031  0.0005  0.0033  0.0001  0.0045  0.0043 </r>
        <r>  0.0399  0.0017  0.0001  0.0010  0.0004  0.0034  0.0000  0.0016  0.0018 </r>
        <r>  0.0076  0.0034  0.0039  0.0015  0.0003  0.0003  0.0000  0.0002  0.0002 </r>
        <r>  0.0663  0.0005  0.0003  0.0007  0.0000  0.0005  0.0001  0.0016  0.0011 </r>
        <r>  0.0040  0.0170  0.0015  0.0114  0.0050  0.0003  0.0051  0.0008  0.0024 </r>
        <r>  0.0038  0.0098  0.0038  0.0123  0.0085  0.0022  0.0011  0.0005  0.0007 </r>
        <r>  0.0020  0.0056  0.0065  0.0014  0.0011  0.0001  0.0010  0.0031  0.0008 </r>
        <r>  0.0018  0.0029  0.0041  0.0027  0.0004  0.0014  0.0022  0.0012  0.0004 </r>
       </set>
       <set comment="band 57">
        <r>  0.0000  0.0050  0.0030  0.0028  0.0080  0.0032  0.0017  0.0107  0.0031 </r>
        <r>  0.0012  0.0390  0.0476  0.0386  0.0015  0.0031  0.0042  0.0007  0.0043 </r>
        <r>  0.0002  0.0051  0.0053  0.0040  0.0003  0.0100  0.0018  0.0018  0.0038 </r>
        <r>  0.0004  0.0023  0.0019  0.0003  0.0002  0.0002  0.0002  0.0036  0.0032 </r>
        <r>  0.0002  0.0025  0.0036  0.0041  0.0012  0.0092  0.0082  0.0016  0.0166 </r>
        <r>  0.0000  0.0043  0.0040  0.0065  0.0053  0.0040  0.0017  0.0036  0.0161 </r>
        <r>  0.0047  0.0047  0.0027  0.0049  0.0150  0.0002  0.0032  0.0093  0.0042 </r>
        <r>  0.0044  0.0044  0.0091  0.0033  0.0033  0.0166  0.0044  0.0033  0.0010 </r>
       </set>
       <set comment="band 58">
        <r>  0.0011  0.0522  0.0473  0.0241  0.0025  0.0003  0.0046  0.0035  0.0026 </r>
        <r>  0.0000  0.0035  0.0040  0.0049  0.0046  0.0115  0.0014  0.0014  0.0059 </r>
        <r>  0.0004  0.0004  0.0019  0.0012  0.0000  0.0035  0.0003  0.0003  0.0037 </r>
        <r>  0.0002  0.0040  0.0046  0.0042  0.0005  0.0032  0.0020  0.0087  0.0038 </r>
        <r>  0.0045  0.0053  0.0088  0.0035  0.0024  0.0034  0.0050  0.0146  0.0011 </r>
        <r>  0.0041  0.0064  0.0022  0.0028  0.0150  0.0088  0.0038  0.0005  0.0053 </r>
        <r>  0.0000  0.0085  0.0034  0.0026  0.0111  0.0020  0.0016  0.0063  0.0104 </r>
        <r>  0.0002  0.0051  0.0043  0.0018  0.0057  0.0019  0.0077  0.0105  0.0130 </r>
       </set>
       <set comment="band 59">
        <r>  0.0026  0.0126  0.0228  0.0071  0.0005  0.0090  0.0043  0.0064  0.0012 </r>
        <r>  0.0002  0.0093  0.0050  0.0083  0.0131  0.0036  0.0051  0.0014  0.0007 </r>
        <r>  0.0049  0.0072  0.0112  0.0006  0.0005  0.0056  0.0025  0.0048  0.0003 </r>
        <r>  0.0005  0.0102  0.0009  0.0068  0.0080  0.0007  0.0014  0.0009  0.0002 </r>
        <r>  0.0007  0.0026  0.0119  0.0053  0.0149  0.0058  0.0078  0.0090  0.0025 </r>
        <r>  0.0010  0.0061  0.0126  0.0046  0.0039  0.0039  0.0110  0.0045  0.0056 </r>
        <r>  0.0000  0.0004  0.0054  0.0008  0.0169  0.0002  0.0075  0.0098  0.0030 </r>
        <r>  0.0003  0.0013  0.0037  0.0035  0.0113  0.0000  0.0050  0.0051  0.0070 </r>
       </set>
       <set comment="band 60">
        <r>  0.0004  0.0100  0.0062  0.0115  0.0102  0.0028  0.0049  0.0043  0.0027 </r>
        <r>  0.0027  0.0089  0.0180  0.0082  0.0002  0.0075  0.0040  0.0082  0.0019 </r>
        <r>  0.0009  0.0053  0.0015  0.0140  0.0069  0.0014  0.0009  0.0010  0.0013 </r>
        <r>  0.0060  0.0040  0.0129  0.0084  0.0004  0.0049  0.0028  0.0031  0.0004 </r>
        <r>  0.0004  0.0063  0.0028  0.0010  0.0097  0.0044  0.0055  0.0001  0.0066 </r>
        <r>  0.0001  0.0013  0.0069  0.0003  0.0176  0.0048  0.0086  0.0012  0.0002 </r>
        <r>  0.0017  0.0044  0.0146  0.0041  0.0071  0.0091  0.0077  0.0024  0.0034 </r>
        <r>  0.0012  0.0080  0.0092  0.0016  0.0158  0.0086  0.0047  0.0034  0.0064 </r>
       </set>
      </set>
     </set>
    </set>
   </array>
  </projected>
 </calculation>
 <structure name="finalpos" >
  <crystal>
   <varray name="basis" >
    <v>       5.30291920       0.00000000      -2.36402939 </v>
    <v>      -1.05387957       5.19714218      -2.36402972 </v>
    <v>       0.00000000       0.00000000       7.12968660 </v>
   </varray>
   <i name="volume">    196.49434127 </i>
   <varray name="rec_basis" >
    <v>       0.18857538       0.03823943       0.00000000 </v>
    <v>       0.00000000       0.19241344       0.00000000 </v>
    <v>       0.06252698       0.07647885       0.14025862 </v>
   </varray>
  </crystal>
  <varray name="positions" >
   <v>       0.50000000       0.50000000       0.00000000 </v>
   <v>       0.75000000       0.25000000       0.50000000 </v>
   <v>       0.00000000       0.00000000       0.00000000 </v>
   <v>       0.25000000       0.75000000       0.50000000 </v>
   <v>       0.34516103       0.37500000       0.25000000 </v>
   <v>       0.90483897       0.87500000       0.25000000 </v>
   <v>       0.12500000       0.65483897       0.75000000 </v>
   <v>       0.62500000       0.09516103       0.75000000 </v>
  </varray>
 </structure>
</modeling>
