   2   2   1   0
  0.2016476E+02  0.3849278E-09  0.3849279E-09  0.3849278E-09  0.5000000E-15
  1.000000000000000E-004
  CAR 
 unknown system                          
     38.92139729     -8.37005619 2000      5.72984834      1.00000000
     -8.370  0.0000E+00  0.0000E+00
     -8.346  0.0000E+00  0.0000E+00
     -8.323  0.0000E+00  0.0000E+00
     -8.299  0.0000E+00  0.0000E+00
     -8.275  0.0000E+00  0.0000E+00
     -8.252  0.0000E+00  0.0000E+00
     -8.228  0.0000E+00  0.0000E+00
     -8.204  0.0000E+00  0.0000E+00
     -8.181  0.0000E+00  0.0000E+00
     -8.157  0.0000E+00  0.0000E+00
     -8.133  0.0000E+00  0.0000E+00
     -8.110  0.0000E+00  0.0000E+00
     -8.086  0.0000E+00  0.0000E+00
     -8.063  0.0000E+00  0.0000E+00
     -8.039  0.0000E+00  0.0000E+00
     -8.015  0.0000E+00  0.0000E+00
     -7.992  0.0000E+00  0.0000E+00
     -7.968  0.0000E+00  0.0000E+00
     -7.944  0.0000E+00  0.0000E+00
     -7.921  0.0000E+00  0.0000E+00
     -7.897  0.0000E+00  0.0000E+00
     -7.873  0.0000E+00  0.0000E+00
     -7.850  0.0000E+00  0.0000E+00
     -7.826  0.0000E+00  0.0000E+00
     -7.802  0.0000E+00  0.0000E+00
     -7.779  0.0000E+00  0.0000E+00
     -7.755  0.0000E+00  0.0000E+00
     -7.731  0.0000E+00  0.0000E+00
     -7.708  0.0000E+00  0.0000E+00
     -7.684  0.0000E+00  0.0000E+00
     -7.660  0.0000E+00  0.0000E+00
     -7.637  0.0000E+00  0.0000E+00
     -7.613  0.0000E+00  0.0000E+00
     -7.589  0.0000E+00  0.0000E+00
     -7.566  0.0000E+00  0.0000E+00
     -7.542  0.0000E+00  0.0000E+00
     -7.518  0.0000E+00  0.0000E+00
     -7.495  0.0000E+00  0.0000E+00
     -7.471  0.0000E+00  0.0000E+00
     -7.447  0.0000E+00  0.0000E+00
     -7.424  0.0000E+00  0.0000E+00
     -7.400  0.0000E+00  0.0000E+00
     -7.376  0.0000E+00  0.0000E+00
     -7.353  0.0000E+00  0.0000E+00
     -7.329  0.0000E+00  0.0000E+00
     -7.305  0.0000E+00  0.0000E+00
     -7.282  0.0000E+00  0.0000E+00
     -7.258  0.0000E+00  0.0000E+00
     -7.234  0.0000E+00  0.0000E+00
     -7.211  0.0000E+00  0.0000E+00
     -7.187  0.0000E+00  0.0000E+00
     -7.164  0.0000E+00  0.0000E+00
     -7.140  0.0000E+00  0.0000E+00
     -7.116  0.0000E+00  0.0000E+00
     -7.093  0.0000E+00  0.0000E+00
     -7.069  0.0000E+00  0.0000E+00
     -7.045  0.0000E+00  0.0000E+00
     -7.022  0.0000E+00  0.0000E+00
     -6.998  0.0000E+00  0.0000E+00
     -6.974  0.0000E+00  0.0000E+00
     -6.951  0.0000E+00  0.0000E+00
     -6.927  0.0000E+00  0.0000E+00
     -6.903  0.0000E+00  0.0000E+00
     -6.880  0.0000E+00  0.0000E+00
     -6.856  0.0000E+00  0.0000E+00
     -6.832  0.0000E+00  0.0000E+00
     -6.809  0.0000E+00  0.0000E+00
     -6.785  0.0000E+00  0.0000E+00
     -6.761  0.0000E+00  0.0000E+00
     -6.738  0.0000E+00  0.0000E+00
     -6.714  0.0000E+00  0.0000E+00
     -6.690  0.0000E+00  0.0000E+00
     -6.667  0.0000E+00  0.0000E+00
     -6.643  0.0000E+00  0.0000E+00
     -6.619  0.0000E+00  0.0000E+00
     -6.596  0.0000E+00  0.0000E+00
     -6.572  0.0000E+00  0.0000E+00
     -6.548  0.0000E+00  0.0000E+00
     -6.525  0.0000E+00  0.0000E+00
     -6.501  0.0000E+00  0.0000E+00
     -6.477  0.0000E+00  0.0000E+00
     -6.454  0.0000E+00  0.0000E+00
     -6.430  0.0000E+00  0.0000E+00
     -6.406  0.0000E+00  0.0000E+00
     -6.383  0.0000E+00  0.0000E+00
     -6.359  0.0000E+00  0.0000E+00
     -6.336  0.0000E+00  0.0000E+00
     -6.312  0.0000E+00  0.0000E+00
     -6.288  0.0000E+00  0.0000E+00
     -6.265  0.0000E+00  0.0000E+00
     -6.241  0.0000E+00  0.0000E+00
     -6.217  0.4319E-04  0.4644E-07
     -6.194  0.2999E-02  0.2688E-04
     -6.170  0.1060E-01  0.1786E-03
     -6.146  0.2285E-01  0.5650E-03
     -6.123  0.3974E-01  0.1296E-02
     -6.099  0.6127E-01  0.2482E-02
     -6.075  0.8745E-01  0.4232E-02
     -6.052  0.1183E+00  0.6656E-02
     -6.028  0.1537E+00  0.9865E-02
     -6.004  0.1618E+00  0.1377E-01
     -5.981  0.1501E+00  0.1744E-01
     -5.957  0.1488E+00  0.2095E-01
     -5.933  0.1559E+00  0.2455E-01
     -5.910  0.1639E+00  0.2833E-01
     -5.886  0.1721E+00  0.3231E-01
     -5.862  0.1804E+00  0.3647E-01
     -5.839  0.1889E+00  0.4084E-01
     -5.815  0.1976E+00  0.4541E-01
     -5.791  0.2064E+00  0.5019E-01
     -5.768  0.2154E+00  0.5518E-01
     -5.744  0.2246E+00  0.6038E-01
     -5.720  0.2339E+00  0.6581E-01
     -5.697  0.2435E+00  0.7145E-01
     -5.673  0.2531E+00  0.7733E-01
     -5.649  0.2619E+00  0.8342E-01
     -5.626  0.2697E+00  0.8971E-01
     -5.602  0.2764E+00  0.9617E-01
     -5.578  0.2820E+00  0.1028E+00
     -5.555  0.2866E+00  0.1095E+00
     -5.531  0.2901E+00  0.1163E+00
     -5.507  0.2926E+00  0.1232E+00
     -5.484  0.2939E+00  0.1302E+00
     -5.460  0.2968E+00  0.1371E+00
     -5.437  0.3011E+00  0.1442E+00
     -5.413  0.3066E+00  0.1514E+00
     -5.389  0.3124E+00  0.1587E+00
     -5.366  0.3181E+00  0.1662E+00
     -5.342  0.3240E+00  0.1738E+00
     -5.318  0.3298E+00  0.1815E+00
     -5.295  0.3358E+00  0.1894E+00
     -5.271  0.3417E+00  0.1974E+00
     -5.247  0.3477E+00  0.2056E+00
     -5.224  0.3538E+00  0.2139E+00
     -5.200  0.3598E+00  0.2223E+00
     -5.176  0.3660E+00  0.2309E+00
     -5.153  0.3721E+00  0.2396E+00
     -5.129  0.3783E+00  0.2485E+00
     -5.105  0.3846E+00  0.2575E+00
     -5.082  0.3910E+00  0.2667E+00
     -5.058  0.3973E+00  0.2760E+00
     -5.034  0.4038E+00  0.2855E+00
     -5.011  0.4103E+00  0.2951E+00
     -4.987  0.4169E+00  0.3049E+00
     -4.963  0.4219E+00  0.3148E+00
     -4.940  0.4251E+00  0.3249E+00
     -4.916  0.4290E+00  0.3350E+00
     -4.892  0.4338E+00  0.3452E+00
     -4.869  0.4389E+00  0.3555E+00
     -4.845  0.4441E+00  0.3659E+00
     -4.821  0.4494E+00  0.3765E+00
     -4.798  0.4547E+00  0.3872E+00
     -4.774  0.4601E+00  0.3980E+00
     -4.750  0.4655E+00  0.4090E+00
     -4.727  0.4709E+00  0.4200E+00
     -4.703  0.4764E+00  0.4312E+00
     -4.679  0.4820E+00  0.4426E+00
     -4.656  0.4876E+00  0.4540E+00
     -4.632  0.4934E+00  0.4656E+00
     -4.609  0.4995E+00  0.4774E+00
     -4.585  0.5059E+00  0.4893E+00
     -4.561  0.5125E+00  0.5013E+00
     -4.538  0.5193E+00  0.5135E+00
     -4.514  0.5264E+00  0.5259E+00
     -4.490  0.5337E+00  0.5384E+00
     -4.467  0.5412E+00  0.5512E+00
     -4.443  0.5489E+00  0.5641E+00
     -4.419  0.5568E+00  0.5771E+00
     -4.396  0.5651E+00  0.5904E+00
     -4.372  0.5734E+00  0.6039E+00
     -4.348  0.5820E+00  0.6175E+00
     -4.325  0.5907E+00  0.6314E+00
     -4.301  0.5995E+00  0.6455E+00
     -4.277  0.6086E+00  0.6598E+00
     -4.254  0.6178E+00  0.6743E+00
     -4.230  0.6271E+00  0.6890E+00
     -4.206  0.6367E+00  0.7040E+00
     -4.183  0.6463E+00  0.7191E+00
     -4.159  0.6563E+00  0.7345E+00
     -4.135  0.6667E+00  0.7502E+00
     -4.112  0.6775E+00  0.7661E+00
     -4.088  0.6887E+00  0.7822E+00
     -4.064  0.7004E+00  0.7987E+00
     -4.041  0.7132E+00  0.8154E+00
     -4.017  0.7358E+00  0.8325E+00
     -3.993  0.7705E+00  0.8503E+00
     -3.970  0.8139E+00  0.8690E+00
     -3.946  0.8657E+00  0.8889E+00
     -3.922  0.9258E+00  0.9101E+00
     -3.899  0.9942E+00  0.9328E+00
     -3.875  0.1058E+01  0.9571E+00
     -3.851  0.1060E+01  0.9823E+00
     -3.828  0.9928E+00  0.1007E+01
     -3.804  0.8556E+00  0.1029E+01
     -3.780  0.8449E+00  0.1049E+01
     -3.757  0.8416E+00  0.1069E+01
     -3.733  0.8386E+00  0.1089E+01
     -3.710  0.8357E+00  0.1108E+01
     -3.686  0.8329E+00  0.1128E+01
     -3.662  0.8303E+00  0.1148E+01
     -3.639  0.8279E+00  0.1167E+01
     -3.615  0.8256E+00  0.1187E+01
     -3.591  0.8233E+00  0.1206E+01
     -3.568  0.8211E+00  0.1226E+01
     -3.544  0.8190E+00  0.1245E+01
     -3.520  0.8169E+00  0.1265E+01
     -3.497  0.8146E+00  0.1284E+01
     -3.473  0.8093E+00  0.1303E+01
     -3.449  0.8002E+00  0.1322E+01
     -3.426  0.7875E+00  0.1341E+01
     -3.402  0.7710E+00  0.1359E+01
     -3.378  0.7507E+00  0.1377E+01
     -3.355  0.7268E+00  0.1395E+01
     -3.331  0.7058E+00  0.1412E+01
     -3.307  0.6985E+00  0.1428E+01
     -3.284  0.7022E+00  0.1445E+01
     -3.260  0.7054E+00  0.1462E+01
     -3.236  0.7070E+00  0.1478E+01
     -3.213  0.7072E+00  0.1495E+01
     -3.189  0.7058E+00  0.1512E+01
     -3.165  0.7028E+00  0.1529E+01
     -3.142  0.6984E+00  0.1545E+01
     -3.118  0.6923E+00  0.1562E+01
     -3.094  0.6850E+00  0.1578E+01
     -3.071  0.6774E+00  0.1594E+01
     -3.047  0.6696E+00  0.1610E+01
     -3.023  0.6616E+00  0.1626E+01
     -3.000  0.6536E+00  0.1641E+01
     -2.976  0.6454E+00  0.1657E+01
     -2.952  0.6370E+00  0.1672E+01
     -2.929  0.6307E+00  0.1687E+01
     -2.905  0.6294E+00  0.1702E+01
     -2.882  0.6269E+00  0.1716E+01
     -2.858  0.6230E+00  0.1731E+01
     -2.834  0.6178E+00  0.1746E+01
     -2.811  0.6114E+00  0.1760E+01
     -2.787  0.6036E+00  0.1775E+01
     -2.763  0.5946E+00  0.1789E+01
     -2.740  0.5767E+00  0.1803E+01
     -2.716  0.5558E+00  0.1816E+01
     -2.692  0.5348E+00  0.1829E+01
     -2.669  0.5138E+00  0.1842E+01
     -2.645  0.4928E+00  0.1854E+01
     -2.621  0.4718E+00  0.1865E+01
     -2.598  0.4507E+00  0.1876E+01
     -2.574  0.4296E+00  0.1886E+01
     -2.550  0.4085E+00  0.1896E+01
     -2.527  0.3874E+00  0.1906E+01
     -2.503  0.3663E+00  0.1914E+01
     -2.479  0.3452E+00  0.1923E+01
     -2.456  0.3245E+00  0.1931E+01
     -2.432  0.3041E+00  0.1938E+01
     -2.408  0.2842E+00  0.1945E+01
     -2.385  0.2646E+00  0.1952E+01
     -2.361  0.2454E+00  0.1958E+01
     -2.337  0.2266E+00  0.1963E+01
     -2.314  0.2081E+00  0.1968E+01
     -2.290  0.1901E+00  0.1973E+01
     -2.266  0.1724E+00  0.1977E+01
     -2.243  0.1551E+00  0.1981E+01
     -2.219  0.1382E+00  0.1985E+01
     -2.195  0.1217E+00  0.1988E+01
     -2.172  0.1056E+00  0.1991E+01
     -2.148  0.8986E-01  0.1993E+01
     -2.124  0.7450E-01  0.1995E+01
     -2.101  0.5953E-01  0.1996E+01
     -2.077  0.4512E-01  0.1998E+01
     -2.053  0.3360E-01  0.1999E+01
     -2.030  0.2564E-01  0.1999E+01
     -2.006  0.2124E-01  0.2000E+01
     -1.983  0.2079E-01  0.2000E+01
     -1.959  0.2466E-01  0.2001E+01
     -1.935  0.3286E-01  0.2002E+01
     -1.912  0.4522E-01  0.2002E+01
     -1.888  0.5898E-01  0.2004E+01
     -1.864  0.7314E-01  0.2005E+01
     -1.841  0.8772E-01  0.2007E+01
     -1.817  0.1027E+00  0.2009E+01
     -1.793  0.1181E+00  0.2012E+01
     -1.770  0.1339E+00  0.2015E+01
     -1.746  0.1501E+00  0.2018E+01
     -1.722  0.1667E+00  0.2022E+01
     -1.699  0.1838E+00  0.2026E+01
     -1.675  0.2012E+00  0.2031E+01
     -1.651  0.2190E+00  0.2036E+01
     -1.628  0.2373E+00  0.2041E+01
     -1.604  0.2560E+00  0.2047E+01
     -1.580  0.2750E+00  0.2053E+01
     -1.557  0.2945E+00  0.2060E+01
     -1.533  0.3144E+00  0.2067E+01
     -1.509  0.3347E+00  0.2075E+01
     -1.486  0.3555E+00  0.2083E+01
     -1.462  0.3769E+00  0.2092E+01
     -1.438  0.3990E+00  0.2101E+01
     -1.415  0.4218E+00  0.2111E+01
     -1.391  0.4454E+00  0.2121E+01
     -1.367  0.4696E+00  0.2132E+01
     -1.344  0.4946E+00  0.2143E+01
     -1.320  0.5202E+00  0.2155E+01
     -1.296  0.5466E+00  0.2168E+01
     -1.273  0.5737E+00  0.2181E+01
     -1.249  0.6020E+00  0.2195E+01
     -1.225  0.6347E+00  0.2209E+01
     -1.202  0.6758E+00  0.2225E+01
     -1.178  0.7695E+00  0.2242E+01
     -1.155  0.8571E+00  0.2261E+01
     -1.131  0.9384E+00  0.2283E+01
     -1.107  0.1014E+01  0.2306E+01
     -1.084  0.1089E+01  0.2330E+01
     -1.060  0.1194E+01  0.2357E+01
     -1.036  0.1575E+01  0.2389E+01
     -1.013  0.1685E+01  0.2428E+01
     -0.989  0.1735E+01  0.2469E+01
     -0.965  0.1726E+01  0.2510E+01
     -0.942  0.1657E+01  0.2550E+01
     -0.918  0.1527E+01  0.2588E+01
     -0.894  0.1370E+01  0.2622E+01
     -0.871  0.1244E+01  0.2653E+01
     -0.847  0.1150E+01  0.2681E+01
     -0.823  0.1080E+01  0.2707E+01
     -0.800  0.1017E+01  0.2732E+01
     -0.776  0.9627E+00  0.2756E+01
     -0.752  0.9154E+00  0.2778E+01
     -0.729  0.8755E+00  0.2799E+01
     -0.705  0.8431E+00  0.2819E+01
     -0.681  0.8180E+00  0.2839E+01
     -0.658  0.8001E+00  0.2858E+01
     -0.634  0.7848E+00  0.2877E+01
     -0.610  0.7697E+00  0.2895E+01
     -0.587  0.7549E+00  0.2913E+01
     -0.563  0.7403E+00  0.2931E+01
     -0.539  0.7260E+00  0.2948E+01
     -0.516  0.7119E+00  0.2965E+01
     -0.492  0.6981E+00  0.2982E+01
     -0.468  0.6846E+00  0.2998E+01
     -0.445  0.6713E+00  0.3014E+01
     -0.421  0.6583E+00  0.3030E+01
     -0.397  0.6456E+00  0.3045E+01
     -0.374  0.6331E+00  0.3061E+01
     -0.350  0.6209E+00  0.3075E+01
     -0.326  0.6089E+00  0.3090E+01
     -0.303  0.5972E+00  0.3104E+01
     -0.279  0.5857E+00  0.3118E+01
     -0.256  0.5745E+00  0.3132E+01
     -0.232  0.5636E+00  0.3145E+01
     -0.208  0.5513E+00  0.3159E+01
     -0.185  0.5370E+00  0.3171E+01
     -0.161  0.5208E+00  0.3184E+01
     -0.137  0.5025E+00  0.3196E+01
     -0.114  0.4860E+00  0.3208E+01
     -0.090  0.4758E+00  0.3219E+01
     -0.066  0.4660E+00  0.3230E+01
     -0.043  0.4567E+00  0.3241E+01
     -0.019  0.4478E+00  0.3252E+01
      0.005  0.4395E+00  0.3262E+01
      0.028  0.4316E+00  0.3273E+01
      0.052  0.4241E+00  0.3283E+01
      0.076  0.4172E+00  0.3293E+01
      0.099  0.4106E+00  0.3302E+01
      0.123  0.4046E+00  0.3312E+01
      0.147  0.3990E+00  0.3322E+01
      0.170  0.3939E+00  0.3331E+01
      0.194  0.3892E+00  0.3340E+01
      0.218  0.3850E+00  0.3349E+01
      0.241  0.3812E+00  0.3358E+01
      0.265  0.3777E+00  0.3367E+01
      0.289  0.3743E+00  0.3376E+01
      0.312  0.3708E+00  0.3385E+01
      0.336  0.3675E+00  0.3394E+01
      0.360  0.3641E+00  0.3403E+01
      0.383  0.3608E+00  0.3411E+01
      0.407  0.3576E+00  0.3420E+01
      0.431  0.3543E+00  0.3428E+01
      0.454  0.3511E+00  0.3436E+01
      0.478  0.3478E+00  0.3445E+01
      0.502  0.3445E+00  0.3453E+01
      0.525  0.3412E+00  0.3461E+01
      0.549  0.3378E+00  0.3469E+01
      0.572  0.3343E+00  0.3477E+01
      0.596  0.3308E+00  0.3485E+01
      0.620  0.3273E+00  0.3493E+01
      0.643  0.3237E+00  0.3500E+01
      0.667  0.3201E+00  0.3508E+01
      0.691  0.3164E+00  0.3515E+01
      0.714  0.3127E+00  0.3523E+01
      0.738  0.3089E+00  0.3530E+01
      0.762  0.3051E+00  0.3538E+01
      0.785  0.3012E+00  0.3545E+01
      0.809  0.2972E+00  0.3552E+01
      0.833  0.2933E+00  0.3559E+01
      0.856  0.2894E+00  0.3566E+01
      0.880  0.2855E+00  0.3572E+01
      0.904  0.2818E+00  0.3579E+01
      0.927  0.2781E+00  0.3586E+01
      0.951  0.2744E+00  0.3592E+01
      0.975  0.2708E+00  0.3599E+01
      0.998  0.2673E+00  0.3605E+01
      1.022  0.2638E+00  0.3611E+01
      1.046  0.2604E+00  0.3618E+01
      1.069  0.2570E+00  0.3624E+01
      1.093  0.2527E+00  0.3630E+01
      1.117  0.2454E+00  0.3636E+01
      1.140  0.2385E+00  0.3641E+01
      1.164  0.2321E+00  0.3647E+01
      1.188  0.2261E+00  0.3652E+01
      1.211  0.2205E+00  0.3658E+01
      1.235  0.2154E+00  0.3663E+01
      1.259  0.2107E+00  0.3668E+01
      1.282  0.2064E+00  0.3673E+01
      1.306  0.2026E+00  0.3678E+01
      1.330  0.1992E+00  0.3682E+01
      1.353  0.1962E+00  0.3687E+01
      1.377  0.1937E+00  0.3692E+01
      1.401  0.1953E+00  0.3696E+01
      1.424  0.2320E+00  0.3701E+01
      1.448  0.3101E+00  0.3708E+01
      1.471  0.4283E+00  0.3716E+01
      1.495  0.5613E+00  0.3728E+01
      1.519  0.6990E+00  0.3743E+01
      1.542  0.8414E+00  0.3761E+01
      1.566  0.9884E+00  0.3783E+01
      1.590  0.1140E+01  0.3808E+01
      1.613  0.1296E+01  0.3837E+01
      1.637  0.1427E+01  0.3869E+01
      1.661  0.1360E+01  0.3902E+01
      1.684  0.1303E+01  0.3934E+01
      1.708  0.1254E+01  0.3964E+01
      1.732  0.1207E+01  0.3993E+01
      1.755  0.1167E+01  0.4021E+01
      1.779  0.1137E+01  0.4048E+01
      1.803  0.1114E+01  0.4075E+01
      1.826  0.1099E+01  0.4101E+01
      1.850  0.1093E+01  0.4127E+01
      1.874  0.1089E+01  0.4153E+01
      1.897  0.1087E+01  0.4178E+01
      1.921  0.1085E+01  0.4204E+01
      1.945  0.1085E+01  0.4230E+01
      1.968  0.1087E+01  0.4255E+01
      1.992  0.1088E+01  0.4281E+01
      2.016  0.1091E+01  0.4307E+01
      2.039  0.1094E+01  0.4333E+01
      2.063  0.1098E+01  0.4359E+01
      2.087  0.1103E+01  0.4385E+01
      2.110  0.1108E+01  0.4411E+01
      2.134  0.1114E+01  0.4437E+01
      2.158  0.1121E+01  0.4464E+01
      2.181  0.1126E+01  0.4490E+01
      2.205  0.1126E+01  0.4517E+01
      2.229  0.1119E+01  0.4543E+01
      2.252  0.1105E+01  0.4570E+01
      2.276  0.1604E+01  0.4598E+01
      2.300  0.1389E+01  0.4636E+01
      2.323  0.1120E+01  0.4665E+01
      2.347  0.1061E+01  0.4690E+01
      2.370  0.1072E+01  0.4716E+01
      2.394  0.1084E+01  0.4741E+01
      2.418  0.1086E+01  0.4767E+01
      2.441  0.1089E+01  0.4793E+01
      2.465  0.1093E+01  0.4818E+01
      2.489  0.1099E+01  0.4844E+01
      2.512  0.1108E+01  0.4870E+01
      2.536  0.1117E+01  0.4897E+01
      2.560  0.1129E+01  0.4923E+01
      2.583  0.1142E+01  0.4950E+01
      2.607  0.1156E+01  0.4977E+01
      2.631  0.1172E+01  0.5005E+01
      2.654  0.1190E+01  0.5033E+01
      2.678  0.1209E+01  0.5061E+01
      2.702  0.1229E+01  0.5090E+01
      2.725  0.1251E+01  0.5119E+01
      2.749  0.1276E+01  0.5149E+01
      2.773  0.1305E+01  0.5180E+01
      2.796  0.1333E+01  0.5211E+01
      2.820  0.1359E+01  0.5243E+01
      2.844  0.1384E+01  0.5275E+01
      2.867  0.1408E+01  0.5308E+01
      2.891  0.1431E+01  0.5342E+01
      2.915  0.1454E+01  0.5376E+01
      2.938  0.1476E+01  0.5411E+01
      2.962  0.1508E+01  0.5446E+01
      2.986  0.1587E+01  0.5482E+01
      3.009  0.1714E+01  0.5521E+01
      3.033  0.1889E+01  0.5564E+01
      3.057  0.1704E+01  0.5607E+01
      3.080  0.1565E+01  0.5645E+01
      3.104  0.1502E+01  0.5681E+01
      3.128  0.1493E+01  0.5717E+01
      3.151  0.1488E+01  0.5752E+01
      3.175  0.1482E+01  0.5787E+01
      3.198  0.1477E+01  0.5822E+01
      3.222  0.1471E+01  0.5857E+01
      3.246  0.1465E+01  0.5892E+01
      3.269  0.1459E+01  0.5926E+01
      3.293  0.1453E+01  0.5961E+01
      3.317  0.1447E+01  0.5995E+01
      3.340  0.1441E+01  0.6029E+01
      3.364  0.1436E+01  0.6063E+01
      3.388  0.1431E+01  0.6097E+01
      3.411  0.1423E+01  0.6131E+01
      3.435  0.1413E+01  0.6164E+01
      3.459  0.1401E+01  0.6198E+01
      3.482  0.1390E+01  0.6231E+01
      3.506  0.1378E+01  0.6263E+01
      3.530  0.1374E+01  0.6296E+01
      3.553  0.1379E+01  0.6329E+01
      3.577  0.1385E+01  0.6361E+01
      3.601  0.1390E+01  0.6394E+01
      3.624  0.1393E+01  0.6427E+01
      3.648  0.1396E+01  0.6460E+01
      3.672  0.1397E+01  0.6493E+01
      3.695  0.1396E+01  0.6526E+01
      3.719  0.1395E+01  0.6559E+01
      3.743  0.1392E+01  0.6592E+01
      3.766  0.1388E+01  0.6625E+01
      3.790  0.1382E+01  0.6658E+01
      3.814  0.1376E+01  0.6690E+01
      3.837  0.1369E+01  0.6723E+01
      3.861  0.1362E+01  0.6755E+01
      3.885  0.1354E+01  0.6787E+01
      3.908  0.1346E+01  0.6819E+01
      3.932  0.1337E+01  0.6851E+01
      3.956  0.1327E+01  0.6882E+01
      3.979  0.1318E+01  0.6914E+01
      4.003  0.1308E+01  0.6945E+01
      4.027  0.1297E+01  0.6976E+01
      4.050  0.1286E+01  0.7006E+01
      4.074  0.1275E+01  0.7036E+01
      4.097  0.1264E+01  0.7066E+01
      4.121  0.1251E+01  0.7096E+01
      4.145  0.1239E+01  0.7126E+01
      4.168  0.1240E+01  0.7155E+01
      4.192  0.1248E+01  0.7184E+01
      4.216  0.1254E+01  0.7214E+01
      4.239  0.1258E+01  0.7244E+01
      4.263  0.1260E+01  0.7273E+01
      4.287  0.1259E+01  0.7303E+01
      4.310  0.1256E+01  0.7333E+01
      4.334  0.1249E+01  0.7363E+01
      4.358  0.1240E+01  0.7392E+01
      4.381  0.1228E+01  0.7421E+01
      4.405  0.1208E+01  0.7450E+01
      4.429  0.1175E+01  0.7478E+01
      4.452  0.1138E+01  0.7506E+01
      4.476  0.1093E+01  0.7532E+01
      4.500  0.1037E+01  0.7557E+01
      4.523  0.9649E+00  0.7581E+01
      4.547  0.8913E+00  0.7603E+01
      4.571  0.8297E+00  0.7623E+01
      4.594  0.7802E+00  0.7642E+01
      4.618  0.7427E+00  0.7660E+01
      4.642  0.7169E+00  0.7678E+01
      4.665  0.6940E+00  0.7694E+01
      4.689  0.6710E+00  0.7710E+01
      4.713  0.6479E+00  0.7726E+01
      4.736  0.6247E+00  0.7741E+01
      4.760  0.6014E+00  0.7756E+01
      4.784  0.5780E+00  0.7770E+01
      4.807  0.5544E+00  0.7783E+01
      4.831  0.5307E+00  0.7796E+01
      4.855  0.5069E+00  0.7808E+01
      4.878  0.4830E+00  0.7820E+01
      4.902  0.4589E+00  0.7831E+01
      4.925  0.4348E+00  0.7841E+01
      4.949  0.4105E+00  0.7851E+01
      4.973  0.3924E+00  0.7861E+01
      4.996  0.3768E+00  0.7870E+01
      5.020  0.3619E+00  0.7879E+01
      5.044  0.3476E+00  0.7887E+01
      5.067  0.3340E+00  0.7895E+01
      5.091  0.3210E+00  0.7903E+01
      5.115  0.3087E+00  0.7910E+01
      5.138  0.2970E+00  0.7918E+01
      5.162  0.2860E+00  0.7924E+01
      5.186  0.2756E+00  0.7931E+01
      5.209  0.2659E+00  0.7937E+01
      5.233  0.2568E+00  0.7944E+01
      5.257  0.2484E+00  0.7950E+01
      5.280  0.2406E+00  0.7955E+01
      5.304  0.2335E+00  0.7961E+01
      5.328  0.2270E+00  0.7966E+01
      5.351  0.2211E+00  0.7972E+01
      5.375  0.2160E+00  0.7977E+01
      5.399  0.2114E+00  0.7982E+01
      5.422  0.2075E+00  0.7987E+01
      5.446  0.1047E+00  0.7990E+01
      5.470  0.8751E-01  0.7993E+01
      5.493  0.7184E-01  0.7995E+01
      5.517  0.5771E-01  0.7996E+01
      5.541  0.4513E-01  0.7997E+01
      5.564  0.3410E-01  0.7998E+01
      5.588  0.2461E-01  0.7999E+01
      5.612  0.1666E-01  0.7999E+01
      5.635  0.1026E-01  0.8000E+01
      5.659  0.5402E-02  0.8000E+01
      5.683  0.2089E-02  0.8000E+01
      5.706  0.3209E-03  0.8000E+01
      5.730  0.0000E+00  0.8000E+01
      5.754  0.0000E+00  0.8000E+01
      5.777  0.0000E+00  0.8000E+01
      5.801  0.0000E+00  0.8000E+01
      5.824  0.0000E+00  0.8000E+01
      5.848  0.0000E+00  0.8000E+01
      5.872  0.0000E+00  0.8000E+01
      5.895  0.0000E+00  0.8000E+01
      5.919  0.0000E+00  0.8000E+01
      5.943  0.0000E+00  0.8000E+01
      5.966  0.0000E+00  0.8000E+01
      5.990  0.0000E+00  0.8000E+01
      6.014  0.0000E+00  0.8000E+01
      6.037  0.0000E+00  0.8000E+01
      6.061  0.0000E+00  0.8000E+01
      6.085  0.0000E+00  0.8000E+01
      6.108  0.0000E+00  0.8000E+01
      6.132  0.0000E+00  0.8000E+01
      6.156  0.0000E+00  0.8000E+01
      6.179  0.0000E+00  0.8000E+01
      6.203  0.0000E+00  0.8000E+01
      6.227  0.0000E+00  0.8000E+01
      6.250  0.2017E-02  0.8000E+01
      6.274  0.1254E-01  0.8000E+01
      6.298  0.3205E-01  0.8001E+01
      6.321  0.6056E-01  0.8002E+01
      6.345  0.9154E-01  0.8004E+01
      6.369  0.1170E+00  0.8006E+01
      6.392  0.1370E+00  0.8009E+01
      6.416  0.1514E+00  0.8012E+01
      6.440  0.1603E+00  0.8016E+01
      6.463  0.1637E+00  0.8020E+01
      6.487  0.1615E+00  0.8024E+01
      6.511  0.1543E+00  0.8028E+01
      6.534  0.1664E+00  0.8031E+01
      6.558  0.1788E+00  0.8035E+01
      6.582  0.1916E+00  0.8040E+01
      6.605  0.2048E+00  0.8045E+01
      6.629  0.2184E+00  0.8050E+01
      6.652  0.2324E+00  0.8055E+01
      6.676  0.2468E+00  0.8061E+01
      6.700  0.2616E+00  0.8067E+01
      6.723  0.2767E+00  0.8073E+01
      6.747  0.2923E+00  0.8080E+01
      6.771  0.3082E+00  0.8087E+01
      6.794  0.3238E+00  0.8094E+01
      6.818  0.3389E+00  0.8102E+01
      6.842  0.3537E+00  0.8110E+01
      6.865  0.3681E+00  0.8119E+01
      6.889  0.3823E+00  0.8128E+01
      6.913  0.3961E+00  0.8137E+01
      6.936  0.4095E+00  0.8146E+01
      6.960  0.4227E+00  0.8156E+01
      6.984  0.4361E+00  0.8166E+01
      7.007  0.4515E+00  0.8177E+01
      7.031  0.4667E+00  0.8188E+01
      7.055  0.4817E+00  0.8199E+01
      7.078  0.4964E+00  0.8211E+01
      7.102  0.5109E+00  0.8223E+01
      7.126  0.5252E+00  0.8235E+01
      7.149  0.5393E+00  0.8247E+01
      7.173  0.5539E+00  0.8260E+01
      7.197  0.5707E+00  0.8274E+01
      7.220  0.5897E+00  0.8287E+01
      7.244  0.6110E+00  0.8301E+01
      7.268  0.6346E+00  0.8316E+01
      7.291  0.6605E+00  0.8332E+01
      7.315  0.6881E+00  0.8347E+01
      7.339  0.7170E+00  0.8364E+01
      7.362  0.7471E+00  0.8381E+01
      7.386  0.7786E+00  0.8399E+01
      7.410  0.8113E+00  0.8418E+01
      7.433  0.8453E+00  0.8438E+01
      7.457  0.8807E+00  0.8458E+01
      7.481  0.9174E+00  0.8480E+01
      7.504  0.9560E+00  0.8502E+01
      7.528  0.9963E+00  0.8525E+01
      7.551  0.1038E+01  0.8549E+01
      7.575  0.1082E+01  0.8574E+01
      7.599  0.1145E+01  0.8600E+01
      7.622  0.1188E+01  0.8628E+01
      7.646  0.1232E+01  0.8656E+01
      7.670  0.1279E+01  0.8686E+01
      7.693  0.1333E+01  0.8717E+01
      7.717  0.1396E+01  0.8749E+01
      7.741  0.1467E+01  0.8783E+01
      7.764  0.1547E+01  0.8819E+01
      7.788  0.1635E+01  0.8856E+01
      7.812  0.1725E+01  0.8896E+01
      7.835  0.1801E+01  0.8938E+01
      7.859  0.1855E+01  0.8981E+01
      7.883  0.1890E+01  0.9026E+01
      7.906  0.1914E+01  0.9071E+01
      7.930  0.1933E+01  0.9116E+01
      7.954  0.1947E+01  0.9162E+01
      7.977  0.1957E+01  0.9208E+01
      8.001  0.1962E+01  0.9254E+01
      8.025  0.1971E+01  0.9301E+01
      8.048  0.1990E+01  0.9348E+01
      8.072  0.2005E+01  0.9395E+01
      8.096  0.2047E+01  0.9443E+01
      8.119  0.2119E+01  0.9492E+01
      8.143  0.2171E+01  0.9543E+01
      8.167  0.2154E+01  0.9594E+01
      8.190  0.2123E+01  0.9645E+01
      8.214  0.2086E+01  0.9695E+01
      8.238  0.2042E+01  0.9743E+01
      8.261  0.1984E+01  0.9791E+01
      8.285  0.1908E+01  0.9837E+01
      8.309  0.1815E+01  0.9881E+01
      8.332  0.1704E+01  0.9923E+01
      8.356  0.1577E+01  0.9962E+01
      8.379  0.1448E+01  0.9997E+01
      8.403  0.1332E+01  0.1003E+02
      8.427  0.1228E+01  0.1006E+02
      8.450  0.1137E+01  0.1009E+02
      8.474  0.1059E+01  0.1011E+02
      8.498  0.9928E+00  0.1014E+02
      8.521  0.7485E+00  0.1016E+02
      8.545  0.6690E+00  0.1018E+02
      8.569  0.6031E+00  0.1019E+02
      8.592  0.5509E+00  0.1020E+02
      8.616  0.5124E+00  0.1022E+02
      8.640  0.4876E+00  0.1023E+02
      8.663  0.4794E+00  0.1024E+02
      8.687  0.4983E+00  0.1025E+02
      8.711  0.5284E+00  0.1026E+02
      8.734  0.5609E+00  0.1028E+02
      8.758  0.5926E+00  0.1029E+02
      8.782  0.6250E+00  0.1030E+02
      8.805  0.6609E+00  0.1032E+02
      8.829  0.7011E+00  0.1034E+02
      8.853  0.7458E+00  0.1035E+02
      8.876  0.7948E+00  0.1037E+02
      8.900  0.8483E+00  0.1039E+02
      8.924  0.9062E+00  0.1041E+02
      8.947  0.9685E+00  0.1043E+02
      8.971  0.1035E+01  0.1046E+02
      8.995  0.1106E+01  0.1048E+02
      9.018  0.1201E+01  0.1051E+02
      9.042  0.1340E+01  0.1054E+02
      9.066  0.1524E+01  0.1057E+02
      9.089  0.1753E+01  0.1061E+02
      9.113  0.2028E+01  0.1066E+02
      9.137  0.2353E+01  0.1071E+02
      9.160  0.2653E+01  0.1077E+02
      9.184  0.2824E+01  0.1083E+02
      9.208  0.3096E+01  0.1090E+02
      9.231  0.3301E+01  0.1098E+02
      9.255  0.3426E+01  0.1106E+02
      9.278  0.3368E+01  0.1114E+02
      9.302  0.2953E+01  0.1121E+02
      9.326  0.2629E+01  0.1128E+02
      9.349  0.2444E+01  0.1134E+02
      9.373  0.2104E+01  0.1139E+02
      9.397  0.1917E+01  0.1144E+02
      9.420  0.1766E+01  0.1149E+02
      9.444  0.1644E+01  0.1153E+02
      9.468  0.1550E+01  0.1156E+02
      9.491  0.1485E+01  0.1160E+02
      9.515  0.1443E+01  0.1163E+02
      9.539  0.1421E+01  0.1167E+02
      9.562  0.1409E+01  0.1170E+02
      9.586  0.1397E+01  0.1173E+02
      9.610  0.1383E+01  0.1177E+02
      9.633  0.1368E+01  0.1180E+02
      9.657  0.1352E+01  0.1183E+02
      9.681  0.1334E+01  0.1186E+02
      9.704  0.1315E+01  0.1190E+02
      9.728  0.1295E+01  0.1193E+02
      9.752  0.1274E+01  0.1196E+02
      9.775  0.1265E+01  0.1199E+02
      9.799  0.1266E+01  0.1202E+02
      9.823  0.1275E+01  0.1205E+02
      9.846  0.1289E+01  0.1208E+02
      9.870  0.1307E+01  0.1211E+02
      9.894  0.1330E+01  0.1214E+02
      9.917  0.1882E+01  0.1218E+02
      9.941  0.1738E+01  0.1222E+02
      9.965  0.1603E+01  0.1226E+02
      9.988  0.1478E+01  0.1230E+02
     10.012  0.1362E+01  0.1233E+02
     10.036  0.1257E+01  0.1236E+02
     10.059  0.1163E+01  0.1239E+02
     10.083  0.1079E+01  0.1242E+02
     10.106  0.1006E+01  0.1244E+02
     10.130  0.9456E+00  0.1247E+02
     10.154  0.9166E+00  0.1249E+02
     10.177  0.9034E+00  0.1251E+02
     10.201  0.8996E+00  0.1253E+02
     10.225  0.8978E+00  0.1255E+02
     10.248  0.8979E+00  0.1257E+02
     10.272  0.9000E+00  0.1259E+02
     10.296  0.9039E+00  0.1262E+02
     10.319  0.9097E+00  0.1264E+02
     10.343  0.9138E+00  0.1266E+02
     10.367  0.9121E+00  0.1268E+02
     10.390  0.9018E+00  0.1270E+02
     10.414  0.8897E+00  0.1272E+02
     10.438  0.8784E+00  0.1274E+02
     10.461  0.8681E+00  0.1276E+02
     10.485  0.8584E+00  0.1278E+02
     10.509  0.8494E+00  0.1280E+02
     10.532  0.8410E+00  0.1282E+02
     10.556  0.8333E+00  0.1284E+02
     10.580  0.8263E+00  0.1286E+02
     10.603  0.8199E+00  0.1288E+02
     10.627  0.8142E+00  0.1290E+02
     10.651  0.8303E+00  0.1292E+02
     10.674  0.9141E+00  0.1294E+02
     10.698  0.1000E+01  0.1297E+02
     10.722  0.1088E+01  0.1299E+02
     10.745  0.1178E+01  0.1302E+02
     10.769  0.1271E+01  0.1305E+02
     10.793  0.1380E+01  0.1308E+02
     10.816  0.1509E+01  0.1311E+02
     10.840  0.1660E+01  0.1315E+02
     10.864  0.1757E+01  0.1319E+02
     10.887  0.1714E+01  0.1323E+02
     10.911  0.1532E+01  0.1327E+02
     10.935  0.1486E+01  0.1331E+02
     10.958  0.1475E+01  0.1334E+02
     10.982  0.1461E+01  0.1337E+02
     11.005  0.1443E+01  0.1341E+02
     11.029  0.1421E+01  0.1344E+02
     11.053  0.1397E+01  0.1348E+02
     11.076  0.1369E+01  0.1351E+02
     11.100  0.1340E+01  0.1354E+02
     11.124  0.1314E+01  0.1357E+02
     11.147  0.1297E+01  0.1360E+02