PROCAR lm decomposed
# of k-points:   29         # of bands:   24         # of ions:    2

 k-point     1 :    0.00000000 0.00000000 0.00000000     weight = 0.00195312

band     1 # energy   -6.22044467 # occ.  2.00000000
 
ion      s     py     pz     px    dxy    dyz    dz2    dxz  x2-y2    tot
    1  0.212  0.000  0.000  0.000  0.000  0.000  0.000  0.000  0.000  0.212
    2  0.212  0.000  0.000  0.000  0.000  0.000  0.000  0.000  0.000  0.212
tot    0.425  0.000  0.000  0.000  0.000  0.000  0.000  0.000  0.000  0.425
 
band     2 # energy    5.72143865 # occ.  2.00000000
 
ion      s     py     pz     px    dxy    dyz    dz2    dxz  x2-y2    tot
    1  0.000  0.000  0.215  0.000  0.000  0.000  0.000  0.000  0.000  0.216
    2  0.000  0.000  0.215  0.000  0.000  0.000  0.000  0.000  0.000  0.216
tot    0.000  0.000  0.431  0.000  0.000  0.000  0.000  0.000  0.000  0.431
 
band     3 # energy    5.72143880 # occ.  2.00000000
 
ion      s     py     pz     px    dxy    dyz    dz2    dxz  x2-y2    tot
    1  0.000  0.005  0.000  0.210  0.000  0.000  0.000  0.000  0.000  0.216
    2  0.000  0.005  0.000  0.210  0.000  0.000  0.000  0.000  0.000  0.216
tot    0.000  0.010  0.000  0.421  0.000  0.000  0.000  0.000  0.000  0.431
 
band     4 # energy    5.72144156 # occ.  2.00000000
 
ion      s     py     pz     px    dxy    dyz    dz2    dxz  x2-y2    tot
    1  0.000  0.211  0.000  0.005  0.000  0.000  0.000  0.000  0.000  0.216
    2  0.000  0.211  0.000  0.005  0.000  0.000  0.000  0.000  0.000  0.216
tot    0.000  0.421  0.000  0.010  0.000  0.000  0.000  0.000  0.000  0.431
 
band     5 # energy    8.23411952 # occ.  0.00000000
 
ion      s     py     pz     px    dxy    dyz    dz2    dxz  x2-y2    tot
    1  0.000  0.150  0.000  0.001  0.000  0.000  0.000  0.000  0.000  0.151
    2  0.000  0.150  0.000  0.001  0.000  0.000  0.000  0.000  0.000  0.151
tot    0.000  0.299  0.000  0.003  0.000  0.000  0.000  0.000  0.000  0.302
 
band     6 # energy    8.23412662 # occ.  0.00000000
 
ion      s     py     pz     px    dxy    dyz    dz2    dxz  x2-y2    tot
    1  0.000  0.001  0.000  0.150  0.000  0.000  0.000  0.000  0.000  0.151
    2  0.000  0.001  0.000  0.150  0.000  0.000  0.000  0.000  0.000  0.151
tot    0.000  0.003  0.000  0.299  0.000  0.000  0.000  0.000  0.000  0.302
 
band     7 # energy    8.23412793 # occ.  0.00000000
 
ion      s     py     pz     px    dxy    dyz    dz2    dxz  x2-y2    tot
    1  0.000  0.000  0.151  0.000  0.000  0.000  0.000  0.000  0.000  0.151
    2  0.000  0.000  0.151  0.000  0.000  0.000  0.000  0.000  0.000  0.151
tot    0.000  0.000  0.302  0.000  0.000  0.000  0.000  0.000  0.000  0.302
 
band     8 # energy    8.96405657 # occ.  0.00000000
 
ion      s     py     pz     px    dxy    dyz    dz2    dxz  x2-y2    tot
    1  0.359  0.000  0.000  0.000  0.000  0.000  0.000  0.000  0.000  0.359
    2  0.359  0.000  0.000  0.000  0.000  0.000  0.000  0.000  0.000  0.359
tot    0.717  0.000  0.000  0.000  0.000  0.000  0.000  0.000  0.000  0.717
 
band     9 # energy   13.40112527 # occ.  0.00000000
 
ion      s     py     pz     px    dxy    dyz    dz2    dxz  x2-y2    tot
    1  0.102  0.000  0.000  0.000  0.000  0.000  0.000  0.000  0.000  0.102
    2  0.102  0.000  0.000  0.000  0.000  0.000  0.000  0.000  0.000  0.102
tot    0.205  0.000  0.000  0.000  0.000  0.000  0.000  0.000  0.000  0.205
 
band    10 # energy   13.40392519 # occ.  0.00000000
 
ion      s     py     pz     px    dxy    dyz    dz2    dxz  x2-y2    tot
    1  0.000  0.000  0.000  0.000  0.000  0.000  0.000  0.000  0.000  0.000
    2  0.000  0.000  0.000  0.000  0.000  0.000  0.000  0.000  0.000  0.000
tot    0.000  0.000  0.000  0.000  0.000  0.000  0.000  0.000  0.000  0.000
 
band    11 # energy   13.40392646 # occ.  0.00000000
 
ion      s     py     pz     px    dxy    dyz    dz2    dxz  x2-y2    tot
    1  0.000  0.000  0.000  0.000  0.000  0.000  0.000  0.000  0.000  0.000
    2  0.000  0.000  0.000  0.000  0.000  0.000  0.000  0.000  0.000  0.000
tot    0.000  0.000  0.000  0.000  0.000  0.000  0.000  0.000  0.000  0.000
 
band    12 # energy   16.79161026 # occ.  0.00000000
 
ion      s     py     pz     px    dxy    dyz    dz2    dxz  x2-y2    tot
    1  0.000  0.037  0.000  0.002  0.000  0.000  0.000  0.000  0.000  0.040
    2  0.000  0.037  0.000  0.002  0.000  0.000  0.000  0.000  0.000  0.040
tot    0.000  0.075  0.000  0.005  0.000  0.000  0.000  0.000  0.000  0.080
 
band    13 # energy   16.79161311 # occ.  0.00000000
 
ion      s     py     pz     px    dxy    dyz    dz2    dxz  x2-y2    tot
    1  0.000  0.002  0.000  0.037  0.000  0.000  0.000  0.000  0.000  0.040
    2  0.000  0.002  0.000  0.037  0.000  0.000  0.000  0.000  0.000  0.040
tot    0.000  0.005  0.000  0.075  0.000  0.000  0.000  0.000  0.000  0.080
 
band    14 # energy   16.79161495 # occ.  0.00000000
 
ion      s     py     pz     px    dxy    dyz    dz2    dxz  x2-y2    tot
    1  0.000  0.000  0.040  0.000  0.000  0.000  0.000  0.000  0.000  0.040
    2  0.000  0.000  0.040  0.000  0.000  0.000  0.000  0.000  0.000  0.040
tot    0.000  0.000  0.080  0.000  0.000  0.000  0.000  0.000  0.000  0.080
 
band    15 # energy   20.75924796 # occ.  0.00000000
 
ion      s     py     pz     px    dxy    dyz    dz2    dxz  x2-y2    tot
    1  0.040  0.000  0.000  0.000  0.000  0.000  0.000  0.000  0.000  0.040
    2  0.040  0.000  0.000  0.000  0.000  0.000  0.000  0.000  0.000  0.040
tot    0.080  0.000  0.000  0.000  0.000  0.000  0.000  0.000  0.000  0.080
 
band    16 # energy   28.63509001 # occ.  0.00000000
 
ion      s     py     pz     px    dxy    dyz    dz2    dxz  x2-y2    tot
    1  0.000  0.000  0.010  0.000  0.000  0.000  0.000  0.000  0.000  0.010
    2  0.000  0.000  0.010  0.000  0.000  0.000  0.000  0.000  0.000  0.010
tot    0.000  0.000  0.020  0.000  0.000  0.000  0.000  0.000  0.000  0.021
 
band    17 # energy   28.63509188 # occ.  0.00000000
 
ion      s     py     pz     px    dxy    dyz    dz2    dxz  x2-y2    tot
    1  0.000  0.000  0.000  0.010  0.000  0.000  0.000  0.000  0.000  0.010
    2  0.000  0.000  0.000  0.010  0.000  0.000  0.000  0.000  0.000  0.010
tot    0.000  0.000  0.000  0.020  0.000  0.000  0.000  0.000  0.000  0.021
 
band    18 # energy   28.63509573 # occ.  0.00000000
 
ion      s     py     pz     px    dxy    dyz    dz2    dxz  x2-y2    tot
    1  0.000  0.010  0.000  0.000  0.000  0.000  0.000  0.000  0.000  0.010
    2  0.000  0.010  0.000  0.000  0.000  0.000  0.000  0.000  0.000  0.010
tot    0.000  0.020  0.000  0.000  0.000  0.000  0.000  0.000  0.000  0.021
 
band    19 # energy   29.79547569 # occ.  0.00000000
 
ion      s     py     pz     px    dxy    dyz    dz2    dxz  x2-y2    tot
    1  0.000  0.000  0.000  0.000  0.000  0.000  0.000  0.000  0.000  0.000
    2  0.000  0.000  0.000  0.000  0.000  0.000  0.000  0.000  0.000  0.000
tot    0.000  0.000  0.000  0.000  0.000  0.000  0.000  0.000  0.000  0.000
 
band    20 # energy   29.79549628 # occ.  0.00000000
 
ion      s     py     pz     px    dxy    dyz    dz2    dxz  x2-y2    tot
    1  0.000  0.000  0.000  0.000  0.000  0.000  0.000  0.000  0.000  0.000
    2  0.000  0.000  0.000  0.000  0.000  0.000  0.000  0.000  0.000  0.000
tot    0.000  0.000  0.000  0.000  0.000  0.000  0.000  0.000  0.000  0.000
 
band    21 # energy   31.28568594 # occ.  0.00000000
 
ion      s     py     pz     px    dxy    dyz    dz2    dxz  x2-y2    tot
    1  0.000  0.010  0.075  0.142  0.000  0.000  0.000  0.000  0.000  0.227
    2  0.000  0.010  0.075  0.142  0.000  0.000  0.000  0.000  0.000  0.227
tot    0.000  0.020  0.150  0.283  0.000  0.000  0.000  0.000  0.000  0.454
 
band    22 # energy   31.28570491 # occ.  0.00000000
 
ion      s     py     pz     px    dxy    dyz    dz2    dxz  x2-y2    tot
    1  0.000  0.006  0.152  0.069  0.000  0.000  0.000  0.000  0.000  0.227
    2  0.000  0.006  0.152  0.069  0.000  0.000  0.000  0.000  0.000  0.227
tot    0.000  0.012  0.304  0.139  0.000  0.000  0.000  0.000  0.000  0.454
 
band    23 # energy   31.28583485 # occ.  0.00000000
 
ion      s     py     pz     px    dxy    dyz    dz2    dxz  x2-y2    tot
    1  0.000  0.211  0.000  0.016  0.000  0.000  0.000  0.000  0.000  0.227
    2  0.000  0.211  0.000  0.016  0.000  0.000  0.000  0.000  0.000  0.227
tot    0.000  0.422  0.000  0.032  0.000  0.000  0.000  0.000  0.000  0.454
 
band    24 # energy   34.81639979 # occ.  0.00000000
 
ion      s     py     pz     px    dxy    dyz    dz2    dxz  x2-y2    tot
    1  0.000  0.000  0.000  0.000  0.000  0.000  0.000  0.000  0.000  0.000
    2  0.000  0.000  0.000  0.000  0.000  0.000  0.000  0.000  0.000  0.000
tot    0.000  0.000  0.000  0.000  0.000  0.000  0.000  0.000  0.000  0.000
 

 k-point     2 :    0.12500000 0.00000000 0.00000000     weight = 0.01562500

band     1 # energy   -6.01676550 # occ.  2.00000000
 
ion      s     py     pz     px    dxy    dyz    dz2    dxz  x2-y2    tot
    1  0.211  0.000  0.000  0.002  0.000  0.000  0.000  0.000  0.000  0.214
    2  0.211  0.000  0.000  0.002  0.000  0.000  0.000  0.000  0.000  0.214
tot    0.423  0.000  0.000  0.004  0.000  0.000  0.000  0.000  0.000  0.427
 
band     2 # energy    4.11057438 # occ.  2.00000000
 
ion      s     py     pz     px    dxy    dyz    dz2    dxz  x2-y2    tot
    1  0.062  0.017  0.000  0.140  0.000  0.000  0.000  0.000  0.000  0.219
    2  0.062  0.017  0.000  0.140  0.000  0.000  0.000  0.000  0.000  0.219
tot    0.125  0.035  0.000  0.279  0.000  0.000  0.000  0.000  0.000  0.439
 
band     3 # energy    5.43080086 # occ.  2.00000000
 
ion      s     py     pz     px    dxy    dyz    dz2    dxz  x2-y2    tot
    1  0.000  0.000  0.213  0.000  0.000  0.000  0.000  0.000  0.000  0.213
    2  0.000  0.000  0.213  0.000  0.000  0.000  0.000  0.000  0.000  0.213
tot    0.000  0.000  0.425  0.000  0.000  0.000  0.000  0.000  0.000  0.425
 
band     4 # energy    5.43080294 # occ.  2.00000000
 
ion      s     py     pz     px    dxy    dyz    dz2    dxz  x2-y2    tot
    1  0.000  0.189  0.000  0.024  0.000  0.000  0.000  0.000  0.000  0.213
    2  0.000  0.189  0.000  0.024  0.000  0.000  0.000  0.000  0.000  0.213
tot    0.000  0.378  0.000  0.047  0.000  0.000  0.000  0.000  0.000  0.425
 
band     5 # energy    8.14542020 # occ.  0.00000000
 
ion      s     py     pz     px    dxy    dyz    dz2    dxz  x2-y2    tot
    1  0.105  0.010  0.000  0.080  0.000  0.000  0.000  0.000  0.000  0.195
    2  0.105  0.010  0.000  0.080  0.000  0.000  0.000  0.000  0.000  0.195
tot    0.211  0.020  0.000  0.159  0.000  0.000  0.000  0.000  0.000  0.390
 
band     6 # energy    8.65934366 # occ.  0.00000000
 
ion      s     py     pz     px    dxy    dyz    dz2    dxz  x2-y2    tot
    1  0.000  0.138  0.000  0.017  0.000  0.000  0.000  0.000  0.000  0.155
    2  0.000  0.138  0.000  0.017  0.000  0.000  0.000  0.000  0.000  0.155
tot    0.000  0.275  0.000  0.034  0.000  0.000  0.000  0.000  0.000  0.310
 
band     7 # energy    8.65935093 # occ.  0.00000000
 
ion      s     py     pz     px    dxy    dyz    dz2    dxz  x2-y2    tot
    1  0.000  0.000  0.155  0.000  0.000  0.000  0.000  0.000  0.000  0.155
    2  0.000  0.000  0.155  0.000  0.000  0.000  0.000  0.000  0.000  0.155
tot    0.000  0.000  0.310  0.000  0.000  0.000  0.000  0.000  0.000  0.310
 
band     8 # energy   10.32730434 # occ.  0.00000000
 
ion      s     py     pz     px    dxy    dyz    dz2    dxz  x2-y2    tot
    1  0.203  0.011  0.000  0.086  0.000  0.000  0.000  0.000  0.000  0.300
    2  0.203  0.011  0.000  0.086  0.000  0.000  0.000  0.000  0.000  0.300
tot    0.406  0.021  0.000  0.171  0.000  0.000  0.000  0.000  0.000  0.599
 
band     9 # energy   12.90181818 # occ.  0.00000000
 
ion      s     py     pz     px    dxy    dyz    dz2    dxz  x2-y2    tot
    1  0.000  0.002  0.000  0.000  0.000  0.000  0.000  0.000  0.000  0.002
    2  0.000  0.002  0.000  0.000  0.000  0.000  0.000  0.000  0.000  0.002
tot    0.000  0.004  0.000  0.000  0.000  0.000  0.000  0.000  0.000  0.004
 
band    10 # energy   12.90182045 # occ.  0.00000000
 
ion      s     py     pz     px    dxy    dyz    dz2    dxz  x2-y2    tot
    1  0.000  0.000  0.002  0.000  0.000  0.000  0.000  0.000  0.000  0.002
    2  0.000  0.000  0.002  0.000  0.000  0.000  0.000  0.000  0.000  0.002
tot    0.000  0.000  0.004  0.000  0.000  0.000  0.000  0.000  0.000  0.004
 
band    11 # energy   14.20480359 # occ.  0.00000000
 
ion      s     py     pz     px    dxy    dyz    dz2    dxz  x2-y2    tot
    1  0.078  0.004  0.000  0.030  0.000  0.000  0.000  0.000  0.000  0.112
    2  0.078  0.004  0.000  0.030  0.000  0.000  0.000  0.000  0.000  0.112
tot    0.156  0.007  0.000  0.060  0.000  0.000  0.000  0.000  0.000  0.223
 
band    12 # energy   16.20815116 # occ.  0.00000000
 
ion      s     py     pz     px    dxy    dyz    dz2    dxz  x2-y2    tot
    1  0.017  0.002  0.000  0.019  0.000  0.000  0.000  0.000  0.000  0.039
    2  0.017  0.002  0.000  0.019  0.000  0.000  0.000  0.000  0.000  0.039
tot    0.034  0.005  0.000  0.038  0.000  0.000  0.000  0.000  0.000  0.077
 
band    13 # energy   17.97569349 # occ.  0.00000000
 
ion      s     py     pz     px    dxy    dyz    dz2    dxz  x2-y2    tot
    1  0.000  0.032  0.000  0.004  0.000  0.000  0.000  0.000  0.000  0.035
    2  0.000  0.032  0.000  0.004  0.000  0.000  0.000  0.000  0.000  0.035
tot    0.000  0.063  0.000  0.008  0.000  0.000  0.000  0.000  0.000  0.071
 
band    14 # energy   17.97569671 # occ.  0.00000000
 
ion      s     py     pz     px    dxy    dyz    dz2    dxz  x2-y2    tot
    1  0.000  0.000  0.035  0.000  0.000  0.000  0.000  0.000  0.000  0.035
    2  0.000  0.000  0.035  0.000  0.000  0.000  0.000  0.000  0.000  0.035
tot    0.000  0.000  0.071  0.000  0.000  0.000  0.000  0.000  0.000  0.071
 
band    15 # energy   22.02080212 # occ.  0.00000000
 
ion      s     py     pz     px    dxy    dyz    dz2    dxz  x2-y2    tot
    1  0.026  0.002  0.000  0.014  0.000  0.000  0.000  0.000  0.000  0.042
    2  0.026  0.002  0.000  0.014  0.000  0.000  0.000  0.000  0.000  0.042
tot    0.052  0.004  0.000  0.029  0.000  0.000  0.000  0.000  0.000  0.084
 
band    16 # energy   26.64009143 # occ.  0.00000000
 
ion      s     py     pz     px    dxy    dyz    dz2    dxz  x2-y2    tot
    1  0.000  0.037  0.000  0.005  0.000  0.000  0.000  0.000  0.000  0.042
    2  0.000  0.037  0.000  0.005  0.000  0.000  0.000  0.000  0.000  0.042
tot    0.000  0.074  0.000  0.009  0.000  0.000  0.000  0.000  0.000  0.084
 
band    17 # energy   26.64009832 # occ.  0.00000000
 
ion      s     py     pz     px    dxy    dyz    dz2    dxz  x2-y2    tot
    1  0.000  0.000  0.042  0.000  0.000  0.000  0.000  0.000  0.000  0.042
    2  0.000  0.000  0.042  0.000  0.000  0.000  0.000  0.000  0.000  0.042
tot    0.000  0.000  0.084  0.000  0.000  0.000  0.000  0.000  0.000  0.084
 
band    18 # energy   26.91999134 # occ.  0.00000000
 
ion      s     py     pz     px    dxy    dyz    dz2    dxz  x2-y2    tot
    1  0.007  0.011  0.000  0.086  0.000  0.000  0.000  0.000  0.000  0.103
    2  0.007  0.011  0.000  0.086  0.000  0.000  0.000  0.000  0.000  0.103
tot    0.013  0.021  0.000  0.172  0.000  0.000  0.000  0.000  0.000  0.206
 
band    19 # energy   29.43011005 # occ.  0.00000000
 
ion      s     py     pz     px    dxy    dyz    dz2    dxz  x2-y2    tot
    1  0.000  0.000  0.007  0.000  0.000  0.000  0.000  0.000  0.000  0.007
    2  0.000  0.000  0.007  0.000  0.000  0.000  0.000  0.000  0.000  0.007
tot    0.000  0.000  0.014  0.000  0.000  0.000  0.000  0.000  0.000  0.014
 
band    20 # energy   29.43012265 # occ.  0.00000000
 
ion      s     py     pz     px    dxy    dyz    dz2    dxz  x2-y2    tot
    1  0.000  0.006  0.000  0.001  0.000  0.000  0.000  0.000  0.000  0.007
    2  0.000  0.006  0.000  0.001  0.000  0.000  0.000  0.000  0.000  0.007
tot    0.000  0.013  0.000  0.002  0.000  0.000  0.000  0.000  0.000  0.014
 
band    21 # energy   31.82455314 # occ.  0.00000000
 
ion      s     py     pz     px    dxy    dyz    dz2    dxz  x2-y2    tot
    1  0.000  0.161  0.000  0.020  0.000  0.000  0.000  0.000  0.000  0.181
    2  0.000  0.161  0.000  0.020  0.000  0.000  0.000  0.000  0.000  0.181
tot    0.000  0.322  0.000  0.040  0.000  0.000  0.000  0.000  0.000  0.362
 
band    22 # energy   31.82456902 # occ.  0.00000000
 
ion      s     py     pz     px    dxy    dyz    dz2    dxz  x2-y2    tot
    1  0.000  0.000  0.181  0.000  0.000  0.000  0.000  0.000  0.000  0.181
    2  0.000  0.000  0.181  0.000  0.000  0.000  0.000  0.000  0.000  0.181
tot    0.000  0.000  0.362  0.000  0.000  0.000  0.000  0.000  0.000  0.362
 
band    23 # energy   32.70834136 # occ.  0.00000000
 
ion      s     py     pz     px    dxy    dyz    dz2    dxz  x2-y2    tot
    1  0.014  0.012  0.000  0.099  0.000  0.000  0.000  0.000  0.000  0.126
    2  0.014  0.012  0.000  0.099  0.000  0.000  0.000  0.000  0.000  0.126
tot    0.028  0.025  0.000  0.199  0.000  0.000  0.000  0.000  0.000  0.252
 
band    24 # energy   35.00212334 # occ.  0.00000000
 
ion      s     py     pz     px    dxy    dyz    dz2    dxz  x2-y2    tot
    1  0.000  0.000  0.000  0.000  0.000  0.000  0.000  0.000  0.000  0.000
    2  0.000  0.000  0.000  0.000  0.000  0.000  0.000  0.000  0.000  0.000
tot    0.000  0.000  0.000  0.000  0.000  0.000  0.000  0.000  0.000  0.000
 

 k-point     3 :    0.25000000 0.00000000 0.00000000     weight = 0.01562500

band     1 # energy   -5.42226872 # occ.  2.00000000
 
ion      s     py     pz     px    dxy    dyz    dz2    dxz  x2-y2    tot
    1  0.210  0.001  0.000  0.007  0.000  0.000  0.000  0.000  0.000  0.218
    2  0.210  0.001  0.000  0.007  0.000  0.000  0.000  0.000  0.000  0.218
tot    0.419  0.002  0.000  0.014  0.000  0.000  0.000  0.000  0.000  0.435
 
band     2 # energy    1.78185739 # occ.  2.00000000
 
ion      s     py     pz     px    dxy    dyz    dz2    dxz  x2-y2    tot
    1  0.096  0.013  0.000  0.105  0.000  0.000  0.000  0.000  0.000  0.214
    2  0.096  0.013  0.000  0.105  0.000  0.000  0.000  0.000  0.000  0.214
tot    0.191  0.026  0.000  0.211  0.000  0.000  0.000  0.000  0.000  0.428
 
band     3 # energy    4.96034269 # occ.  2.00000000
 
ion      s     py     pz     px    dxy    dyz    dz2    dxz  x2-y2    tot
    1  0.000  0.000  0.213  0.000  0.000  0.000  0.000  0.000  0.000  0.213
    2  0.000  0.000  0.213  0.000  0.000  0.000  0.000  0.000  0.000  0.213
tot    0.000  0.000  0.426  0.000  0.000  0.000  0.000  0.000  0.000  0.426
 
band     4 # energy    4.96034501 # occ.  2.00000000
 
ion      s     py     pz     px    dxy    dyz    dz2    dxz  x2-y2    tot
    1  0.000  0.189  0.000  0.024  0.000  0.000  0.000  0.000  0.000  0.213
    2  0.000  0.189  0.000  0.024  0.000  0.000  0.000  0.000  0.000  0.213
tot    0.000  0.379  0.000  0.047  0.000  0.000  0.000  0.000  0.000  0.426
 
band     5 # energy    7.65702885 # occ.  0.00000000
 
ion      s     py     pz     px    dxy    dyz    dz2    dxz  x2-y2    tot
    1  0.157  0.005  0.000  0.042  0.000  0.000  0.000  0.000  0.000  0.204
    2  0.157  0.005  0.000  0.042  0.000  0.000  0.000  0.000  0.000  0.204
tot    0.313  0.010  0.000  0.084  0.000  0.000  0.000  0.000  0.000  0.407
 
band     6 # energy    9.17223992 # occ.  0.00000000
 
ion      s     py     pz     px    dxy    dyz    dz2    dxz  x2-y2    tot
    1  0.000  0.123  0.000  0.015  0.000  0.000  0.000  0.000  0.000  0.139
    2  0.000  0.123  0.000  0.015  0.000  0.000  0.000  0.000  0.000  0.139
tot    0.000  0.246  0.000  0.031  0.000  0.000  0.000  0.000  0.000  0.277
 
band     7 # energy    9.17224808 # occ.  0.00000000
 
ion      s     py     pz     px    dxy    dyz    dz2    dxz  x2-y2    tot
    1  0.000  0.000  0.139  0.000  0.000  0.000  0.000  0.000  0.000  0.139
    2  0.000  0.000  0.139  0.000  0.000  0.000  0.000  0.000  0.000  0.139
tot    0.000  0.000  0.277  0.000  0.000  0.000  0.000  0.000  0.000  0.277
 
band     8 # energy   12.51101942 # occ.  0.00000000
 
ion      s     py     pz     px    dxy    dyz    dz2    dxz  x2-y2    tot
    1  0.109  0.017  0.000  0.134  0.000  0.000  0.000  0.000  0.000  0.260
    2  0.109  0.017  0.000  0.134  0.000  0.000  0.000  0.000  0.000  0.260
tot    0.219  0.034  0.000  0.268  0.000  0.000  0.000  0.000  0.000  0.521
 
band     9 # energy   12.84721014 # occ.  0.00000000
 
ion      s     py     pz     px    dxy    dyz    dz2    dxz  x2-y2    tot
    1  0.000  0.015  0.000  0.002  0.000  0.000  0.000  0.000  0.000  0.017
    2  0.000  0.015  0.000  0.002  0.000  0.000  0.000  0.000  0.000  0.017
tot    0.000  0.030  0.000  0.004  0.000  0.000  0.000  0.000  0.000  0.034
 
band    10 # energy   12.84721320 # occ.  0.00000000
 
ion      s     py     pz     px    dxy    dyz    dz2    dxz  x2-y2    tot
    1  0.000  0.000  0.017  0.000  0.000  0.000  0.000  0.000  0.000  0.017
    2  0.000  0.000  0.017  0.000  0.000  0.000  0.000  0.000  0.000  0.017
tot    0.000  0.000  0.034  0.000  0.000  0.000  0.000  0.000  0.000  0.034
 
band    11 # energy   14.47929352 # occ.  0.00000000
 
ion      s     py     pz     px    dxy    dyz    dz2    dxz  x2-y2    tot
    1  0.052  0.002  0.000  0.018  0.000  0.000  0.000  0.000  0.000  0.072
    2  0.052  0.002  0.000  0.018  0.000  0.000  0.000  0.000  0.000  0.072
tot    0.105  0.004  0.000  0.036  0.000  0.000  0.000  0.000  0.000  0.145
 
band    12 # energy   17.34135918 # occ.  0.00000000
 
ion      s     py     pz     px    dxy    dyz    dz2    dxz  x2-y2    tot
    1  0.038  0.008  0.000  0.067  0.000  0.000  0.000  0.000  0.000  0.114
    2  0.038  0.008  0.000  0.067  0.000  0.000  0.000  0.000  0.000  0.114
tot    0.076  0.017  0.000  0.134  0.000  0.000  0.000  0.000  0.000  0.227
 
band    13 # energy   20.22996831 # occ.  0.00000000
 
ion      s     py     pz     px    dxy    dyz    dz2    dxz  x2-y2    tot
    1  0.000  0.031  0.000  0.004  0.000  0.000  0.000  0.000  0.000  0.035
    2  0.000  0.031  0.000  0.004  0.000  0.000  0.000  0.000  0.000  0.035
tot    0.000  0.062  0.000  0.008  0.000  0.000  0.000  0.000  0.000  0.070
 
band    14 # energy   20.22996976 # occ.  0.00000000
 
ion      s     py     pz     px    dxy    dyz    dz2    dxz  x2-y2    tot
    1  0.000  0.000  0.035  0.000  0.000  0.000  0.000  0.000  0.000  0.035
    2  0.000  0.000  0.035  0.000  0.000  0.000  0.000  0.000  0.000  0.035
tot    0.000  0.000  0.070  0.000  0.000  0.000  0.000  0.000  0.000  0.070
 
band    15 # energy   23.42681725 # occ.  0.00000000
 
ion      s     py     pz     px    dxy    dyz    dz2    dxz  x2-y2    tot
    1  0.000  0.044  0.000  0.006  0.000  0.000  0.000  0.000  0.000  0.050
    2  0.000  0.044  0.000  0.006  0.000  0.000  0.000  0.000  0.000  0.050
tot    0.000  0.089  0.000  0.011  0.000  0.000  0.000  0.000  0.000  0.100
 
band    16 # energy   23.42682475 # occ.  0.00000000
 
ion      s     py     pz     px    dxy    dyz    dz2    dxz  x2-y2    tot
    1  0.000  0.000  0.050  0.000  0.000  0.000  0.000  0.000  0.000  0.050
    2  0.000  0.000  0.050  0.000  0.000  0.000  0.000  0.000  0.000  0.050
tot    0.000  0.000  0.100  0.000  0.000  0.000  0.000  0.000  0.000  0.100
 
band    17 # energy   23.51484249 # occ.  0.00000000
 
ion      s     py     pz     px    dxy    dyz    dz2    dxz  x2-y2    tot
    1  0.021  0.010  0.000  0.082  0.000  0.000  0.000  0.000  0.000  0.113
    2  0.021  0.010  0.000  0.082  0.000  0.000  0.000  0.000  0.000  0.113
tot    0.042  0.021  0.000  0.165  0.000  0.000  0.000  0.000  0.000  0.227
 
band    18 # energy   25.49369637 # occ.  0.00000000
 
ion      s     py     pz     px    dxy    dyz    dz2    dxz  x2-y2    tot
    1  0.023  0.006  0.000  0.044  0.000  0.000  0.000  0.000  0.000  0.073
    2  0.023  0.006  0.000  0.044  0.000  0.000  0.000  0.000  0.000  0.073
tot    0.046  0.011  0.000  0.089  0.000  0.000  0.000  0.000  0.000  0.146
 
band    19 # energy   29.60262846 # occ.  0.00000000
 
ion      s     py     pz     px    dxy    dyz    dz2    dxz  x2-y2    tot
    1  0.000  0.000  0.006  0.000  0.000  0.000  0.000  0.000  0.000  0.006
    2  0.000  0.000  0.006  0.000  0.000  0.000  0.000  0.000  0.000  0.006
tot    0.000  0.000  0.013  0.000  0.000  0.000  0.000  0.000  0.000  0.013
 
band    20 # energy   29.60264098 # occ.  0.00000000
 
ion      s     py     pz     px    dxy    dyz    dz2    dxz  x2-y2    tot
    1  0.000  0.006  0.000  0.001  0.000  0.000  0.000  0.000  0.000  0.006
    2  0.000  0.006  0.000  0.001  0.000  0.000  0.000  0.000  0.000  0.006
tot    0.000  0.011  0.000  0.001  0.000  0.000  0.000  0.000  0.000  0.013
 
band    21 # energy   32.18622040 # occ.  0.00000000
 
ion      s     py     pz     px    dxy    dyz    dz2    dxz  x2-y2    tot
    1  0.000  0.082  0.070  0.010  0.000  0.000  0.000  0.000  0.000  0.162
    2  0.000  0.082  0.070  0.010  0.000  0.000  0.000  0.000  0.000  0.162
tot    0.000  0.164  0.140  0.020  0.000  0.000  0.000  0.000  0.000  0.324
 
band    22 # energy   32.18624010 # occ.  0.00000000
 
ion      s     py     pz     px    dxy    dyz    dz2    dxz  x2-y2    tot
    1  0.000  0.062  0.092  0.008  0.000  0.000  0.000  0.000  0.000  0.162
    2  0.000  0.062  0.092  0.008  0.000  0.000  0.000  0.000  0.000  0.162
tot    0.000  0.124  0.184  0.016  0.000  0.000  0.000  0.000  0.000  0.324
 
band    23 # energy   33.39863214 # occ.  0.00000000
 
ion      s     py     pz     px    dxy    dyz    dz2    dxz  x2-y2    tot
    1  0.008  0.004  0.000  0.036  0.000  0.000  0.000  0.000  0.000  0.048
    2  0.008  0.004  0.000  0.036  0.000  0.000  0.000  0.000  0.000  0.048
tot    0.016  0.009  0.000  0.071  0.000  0.000  0.000  0.000  0.000  0.096
 
band    24 # energy   34.92237560 # occ.  0.00000000
 
ion      s     py     pz     px    dxy    dyz    dz2    dxz  x2-y2    tot
    1  0.039  0.004  0.000  0.030  0.000  0.000  0.000  0.000  0.000  0.072
    2  0.039  0.004  0.000  0.030  0.000  0.000  0.000  0.000  0.000  0.072
tot    0.078  0.007  0.000  0.060  0.000  0.000  0.000  0.000  0.000  0.145
 

 k-point     4 :    0.37500000 0.00000000 0.00000000     weight = 0.01562500

band     1 # energy   -4.52881886 # occ.  2.00000000
 
ion      s     py     pz     px    dxy    dyz    dz2    dxz  x2-y2    tot
    1  0.212  0.002  0.000  0.013  0.000  0.000  0.000  0.000  0.000  0.226
    2  0.212  0.002  0.000  0.013  0.000  0.000  0.000  0.000  0.000  0.226
tot    0.424  0.003  0.000  0.025  0.000  0.000  0.000  0.000  0.000  0.453
 
band     2 # energy   -0.23667577 # occ.  2.00000000
 
ion      s     py     pz     px    dxy    dyz    dz2    dxz  x2-y2    tot
    1  0.106  0.011  0.000  0.086  0.000  0.000  0.000  0.000  0.000  0.203
    2  0.106  0.011  0.000  0.086  0.000  0.000  0.000  0.000  0.000  0.203
tot    0.212  0.022  0.000  0.173  0.000  0.000  0.000  0.000  0.000  0.407
 
band     3 # energy    4.63490608 # occ.  2.00000000
 
ion      s     py     pz     px    dxy    dyz    dz2    dxz  x2-y2    tot
    1  0.000  0.000  0.216  0.000  0.000  0.000  0.000  0.000  0.000  0.216
    2  0.000  0.000  0.216  0.000  0.000  0.000  0.000  0.000  0.000  0.216
tot    0.000  0.000  0.432  0.000  0.000  0.000  0.000  0.000  0.000  0.432
 
band     4 # energy    4.63490886 # occ.  2.00000000
 
ion      s     py     pz     px    dxy    dyz    dz2    dxz  x2-y2    tot
    1  0.000  0.192  0.000  0.024  0.000  0.000  0.000  0.000  0.000  0.216
    2  0.000  0.192  0.000  0.024  0.000  0.000  0.000  0.000  0.000  0.216
tot    0.000  0.384  0.000  0.048  0.000  0.000  0.000  0.000  0.000  0.432
 
band     5 # energy    7.28942619 # occ.  0.00000000
 
ion      s     py     pz     px    dxy    dyz    dz2    dxz  x2-y2    tot
    1  0.180  0.003  0.000  0.023  0.000  0.000  0.000  0.000  0.000  0.205
    2  0.180  0.003  0.000  0.023  0.000  0.000  0.000  0.000  0.000  0.205
tot    0.360  0.006  0.000  0.045  0.000  0.000  0.000  0.000  0.000  0.411
 
band     6 # energy    9.10931043 # occ.  0.00000000
 
ion      s     py     pz     px    dxy    dyz    dz2    dxz  x2-y2    tot
    1  0.000  0.093  0.000  0.012  0.000  0.000  0.000  0.000  0.000  0.105
    2  0.000  0.093  0.000  0.012  0.000  0.000  0.000  0.000  0.000  0.105
tot    0.000  0.187  0.000  0.023  0.000  0.000  0.000  0.000  0.000  0.210
 
band     7 # energy    9.10931912 # occ.  0.00000000
 
ion      s     py     pz     px    dxy    dyz    dz2    dxz  x2-y2    tot
    1  0.000  0.000  0.105  0.000  0.000  0.000  0.000  0.000  0.000  0.105
    2  0.000  0.000  0.105  0.000  0.000  0.000  0.000  0.000  0.000  0.105
tot    0.000  0.000  0.210  0.000  0.000  0.000  0.000  0.000  0.000  0.210
 
band     8 # energy   13.39177829 # occ.  0.00000000
 
ion      s     py     pz     px    dxy    dyz    dz2    dxz  x2-y2    tot
    1  0.004  0.009  0.000  0.069  0.000  0.000  0.000  0.000  0.000  0.082
    2  0.004  0.009  0.000  0.069  0.000  0.000  0.000  0.000  0.000  0.082
tot    0.008  0.017  0.000  0.139  0.000  0.000  0.000  0.000  0.000  0.163
 
band     9 # energy   14.23083372 # occ.  0.00000000
 
ion      s     py     pz     px    dxy    dyz    dz2    dxz  x2-y2    tot
    1  0.000  0.037  0.000  0.005  0.000  0.000  0.000  0.000  0.000  0.041
    2  0.000  0.037  0.000  0.005  0.000  0.000  0.000  0.000  0.000  0.041
tot    0.000  0.074  0.000  0.009  0.000  0.000  0.000  0.000  0.000  0.083
 
band    10 # energy   14.23083785 # occ.  0.00000000
 
ion      s     py     pz     px    dxy    dyz    dz2    dxz  x2-y2    tot
    1  0.000  0.000  0.041  0.000  0.000  0.000  0.000  0.000  0.000  0.041
    2  0.000  0.000  0.041  0.000  0.000  0.000  0.000  0.000  0.000  0.041
tot    0.000  0.000  0.083  0.000  0.000  0.000  0.000  0.000  0.000  0.083
 
band    11 # energy   15.22722809 # occ.  0.00000000
 
ion      s     py     pz     px    dxy    dyz    dz2    dxz  x2-y2    tot