<?xml version="1.0" encoding="ISO-8859-1"?>
<modeling>
 <generator>
  <i name="program" type="string">vasp </i>
  <i name="version" type="string">6.4.2  </i>
  <i name="subversion" type="string">20Jul23 (build Mar 15 2024 16:31:38) complex                          parallel </i>
  <i name="platform" type="string">LinuxIFC </i>
  <i name="date" type="string">2025 03 19 </i>
  <i name="time" type="string">15:22:15 </i>
 </generator>
 <incar>
  <i type="string" name="PREC">Accurate</i>
  <i type="string" name="ALGO">Fast</i>
  <i type="int" name="ISPIN">     1</i>
  <i type="int" name="ICHARG">    11</i>
  <i type="int" name="NELM">   200</i>
  <i name="EDIFF">      0.00001000</i>
  <i type="int" name="NSW">     0</i>
  <i type="int" name="ISYM">     2</i>
  <i name="ENCUT">    680.00000000</i>
  <i name="ENAUG">   1360.00000000</i>
  <i type="int" name="NBANDS">    15</i>
  <i type="int" name="NEDOS">  2000</i>
  <i type="logical" name="LREAL"> F  </i>
  <i type="int" name="ISMEAR">    -5</i>
  <i name="SIGMA">      0.05000000</i>
  <i type="logical" name="LWAVE"> T  </i>
  <i type="logical" name="LCHARG"> F  </i>
  <i type="logical" name="LVTOT"> T  </i>
  <i type="int" name="LORBIT">    11</i>
  <i type="logical" name="LELF"> F  </i>
  <i type="logical" name="LOPTICS"> T  </i>
  <i type="logical" name="LASPH"> T  </i>
  <i type="logical" name="LAECHG"> T  </i>
  <i name="CSHIFT">      0.00001000</i>
  <i type="string" name="GGA">Ps</i>
  <i type="logical" name="LMIXTAU"> T  </i>
 </incar>
 <primitive_cell>
  <structure name="primitive_cell" >
   <crystal>
    <varray name="basis" >
     <v>       3.33357300       0.00000000       1.92463900 </v>
     <v>       1.11119100       3.14292400       1.92463900 </v>
     <v>       0.00000000       0.00000000       3.84927800 </v>
    </varray>
    <i name="volume">     40.32952680 </i>
    <varray name="rec_basis" >
     <v>       0.29997843      -0.10605835       0.00000000 </v>
     <v>       0.00000000       0.31817505       0.00000000 </v>
     <v>      -0.14998922      -0.10605835       0.25978898 </v>
    </varray>
   </crystal>
   <varray name="positions" >
    <v>       0.87500000       0.87500000       0.87500000 </v>
    <v>       0.12500000       0.12500000       0.12500000 </v>
   </varray>
  </structure>
  <varray name="primitive_index" >
   <v type="int" >        1 </v>
   <v type="int" >        2 </v>
  </varray>
 </primitive_cell>
 <kpoints>
  <generation param="Gamma">
   <v type="int" name="divisions">       8        8        8 </v>
   <v name="usershift">      0.00000000       0.00000000       0.00000000 </v>
   <v name="genvec1">      0.12500000       0.00000000       0.00000000 </v>
   <v name="genvec2">      0.00000000       0.12500000       0.00000000 </v>
   <v name="genvec3">      0.00000000       0.00000000       0.12500000 </v>
   <v name="shift">      0.00000000       0.00000000       0.00000000 </v>
  </generation>
  <varray name="kpointlist" >
   <v>       0.00000000       0.00000000       0.00000000 </v>
   <v>       0.12500000       0.00000000       0.00000000 </v>
   <v>       0.25000000       0.00000000       0.00000000 </v>
   <v>       0.37500000       0.00000000       0.00000000 </v>
   <v>       0.50000000       0.00000000       0.00000000 </v>
   <v>       0.12500000       0.12500000       0.00000000 </v>
   <v>       0.25000000       0.12500000       0.00000000 </v>
   <v>       0.37500000       0.12500000       0.00000000 </v>
   <v>       0.50000000       0.12500000       0.00000000 </v>
   <v>      -0.37500000       0.12500000       0.00000000 </v>
   <v>      -0.25000000       0.12500000       0.00000000 </v>
   <v>      -0.12500000       0.12500000       0.00000000 </v>
   <v>       0.25000000       0.25000000       0.00000000 </v>
   <v>       0.37500000       0.25000000       0.00000000 </v>
   <v>       0.50000000       0.25000000       0.00000000 </v>
   <v>      -0.37500000       0.25000000       0.00000000 </v>
   <v>      -0.25000000       0.25000000       0.00000000 </v>
   <v>       0.37500000       0.37500000       0.00000000 </v>
   <v>       0.50000000       0.37500000       0.00000000 </v>
   <v>      -0.37500000       0.37500000       0.00000000 </v>
   <v>       0.50000000       0.50000000       0.00000000 </v>
   <v>       0.37500000       0.25000000       0.12500000 </v>
   <v>       0.50000000       0.25000000       0.12500000 </v>
   <v>      -0.37500000       0.25000000       0.12500000 </v>
   <v>       0.50000000       0.37500000       0.12500000 </v>
   <v>      -0.37500000       0.37500000       0.12500000 </v>
   <v>      -0.25000000       0.37500000       0.12500000 </v>
   <v>      -0.37500000       0.50000000       0.12500000 </v>
   <v>      -0.25000000       0.50000000       0.25000000 </v>
  </varray>
  <varray name="weights" >
   <v>       0.00195312 </v>
   <v>       0.01562500 </v>
   <v>       0.01562500 </v>
   <v>       0.01562500 </v>
   <v>       0.00781250 </v>
   <v>       0.01171875 </v>
   <v>       0.04687500 </v>
   <v>       0.04687500 </v>
   <v>       0.04687500 </v>
   <v>       0.04687500 </v>
   <v>       0.04687500 </v>
   <v>       0.02343750 </v>
   <v>       0.01171875 </v>
   <v>       0.04687500 </v>
   <v>       0.04687500 </v>
   <v>       0.04687500 </v>
   <v>       0.02343750 </v>
   <v>       0.01171875 </v>
   <v>       0.04687500 </v>
   <v>       0.02343750 </v>
   <v>       0.00585938 </v>
   <v>       0.04687500 </v>
   <v>       0.09375000 </v>
   <v>       0.04687500 </v>
   <v>       0.04687500 </v>
   <v>       0.09375000 </v>
   <v>       0.04687500 </v>
   <v>       0.02343750 </v>
   <v>       0.01171875 </v>
  </varray>
  <varray name="tetrahedronlist"  type="int" >
   <v type="int" >       48        2        3        7       12 </v>
   <v type="int" >       48        7       11       12       22 </v>
   <v type="int" >       24       11       11       12       22 </v>
   <v type="int" >       48        3        7       11       12 </v>
   <v type="int" >       48       11       17       22       23 </v>
   <v type="int" >       48       10       11       17       23 </v>
   <v type="int" >       24       11       11       17       22 </v>
   <v type="int" >       48       10       16       23       24 </v>
   <v type="int" >       48        9       10       16       24 </v>
   <v type="int" >       48       10       16       17       23 </v>
   <v type="int" >       48        9       15       23       24 </v>
   <v type="int" >       48        8        9       15       23 </v>
   <v type="int" >       48        9       15       16       24 </v>
   <v type="int" >       48        8       14       22       23 </v>
   <v type="int" >       48        7        8       14       22 </v>
   <v type="int" >       48        8       14       15       23 </v>
   <v type="int" >       24        7        7       13       22 </v>
   <v type="int" >       24        6        7        7       13 </v>
   <v type="int" >       48        7       13       14       22 </v>
   <v type="int" >       24        6        7        7       12 </v>
   <v type="int" >       48        2        6        7       12 </v>
   <v type="int" >       48        7        8       11       22 </v>
   <v type="int" >       48        3        7        8       11 </v>
   <v type="int" >       48       14       22       23       25 </v>
   <v type="int" >       24       22       23       23       25 </v>
   <v type="int" >       24       17       22       23       23 </v>
   <v type="int" >       48        8       11       22       23 </v>
   <v type="int" >       48       23       25       26       27 </v>
   <v type="int" >       48       23       24       26       27 </v>
   <v type="int" >       48       16       23       24       27 </v>
   <v type="int" >       24       23       23       25       27 </v>
   <v type="int" >       24       17       23       23       27 </v>
   <v type="int" >       48       16       17       23       27 </v>
   <v type="int" >       48       24       26       26       27 </v>
   <v type="int" >       48       15       23       24       26 </v>
   <v type="int" >       48       16       24       26       27 </v>
   <v type="int" >       48       15       16       24       26 </v>
   <v type="int" >       48       15       23       25       26 </v>
   <v type="int" >       48       14       15       23       25 </v>
   <v type="int" >       24       14       14       22       25 </v>
   <v type="int" >       24       13       14       14       22 </v>
   <v type="int" >       24        7        7       12       22 </v>
   <v type="int" >       48       14       15       19       25 </v>
   <v type="int" >       48       19       25       26       28 </v>
   <v type="int" >       24       25       26       26       28 </v>
   <v type="int" >       24       25       26       26       27 </v>
   <v type="int" >       48       15       19       25       26 </v>
   <v type="int" >       48       26       26       28       29 </v>
   <v type="int" >       96       26       26       27       29 </v>
   <v type="int" >       48        8        9       10       23 </v>
   <v type="int" >       48        8       10       11       23 </v>
   <v type="int" >       24       19       19       20       28 </v>
   <v type="int" >       48       19       20       26       28 </v>
   <v type="int" >       48       15       19       20       26 </v>
   <v type="int" >       24       20       26       26       28 </v>
   <v type="int" >       48        9        9       10       24 </v>
   <v type="int" >       48        9       10       23       24 </v>
   <v type="int" >       24        2        2        6       12 </v>
   <v type="int" >       48        3        4        8       11 </v>
   <v type="int" >       48        4        8       10       11 </v>
   <v type="int" >       24       16       16       17       27 </v>
   <v type="int" >       48       16       20       26       27 </v>
   <v type="int" >       48       15       16       20       26 </v>
   <v type="int" >       24       16       16       20       27 </v>
   <v type="int" >       24       14       14       18       25 </v>
   <v type="int" >       24       13       14       14       18 </v>
   <v type="int" >       48       14       18       19       25 </v>
   <v type="int" >       48        4        8        9       10 </v>
   <v type="int" >       24       20       26       26       27 </v>
   <v type="int" >       24       19       19       25       28 </v>
   <v type="int" >       24       18       19       19       25 </v>
   <v type="int" >       48        4        5        9       10 </v>
   <v type="int" >       48        5        9        9       10 </v>
   <v type="int" >       48       19       19       21       28 </v>
   <v type="int" >       24       18       19       19       21 </v>
   <v type="int" >       24        1        2        2        6 </v>
  </varray>
  <i name="volumeweight">      0.00032552 </i>
 </kpoints>
 <parameters>
  <separator name="general" >
   <i type="string" name="SYSTEM">unknown system</i>
   <i type="logical" name="LCOMPAT"> F  </i>
  </separator>
  <separator name="electronic" >
   <i type="string" name="PREC">accura</i>
   <i name="ENMAX">    680.00000000</i>
   <i name="ENAUG">   1360.00000000</i>
   <i name="EDIFF">      0.00001000</i>
   <i type="int" name="IALGO">    68</i>
   <i type="int" name="IWAVPR">    10</i>
   <i type="int" name="NBANDS">    24</i>
   <i type="int" name="NBANDSLOW">    -1</i>
   <i type="int" name="NBANDSHIGH">    -1</i>
   <i name="NELECT">      8.00000000</i>
   <i type="int" name="TURBO">     0</i>
   <i type="int" name="IRESTART">     0</i>
   <i type="int" name="NREBOOT">     0</i>
   <i type="int" name="NMIN">     0</i>
   <i name="EREF">      0.00000000</i>
   <separator name="electronic smearing" >
    <i type="int" name="ISMEAR">    -5</i>
    <i name="SIGMA">      0.05000000</i>
    <i name="KSPACING">      0.50000000</i>
    <i type="logical" name="KGAMMA"> T  </i>
    <i type="logical" name="KBLOWUP"> T  </i>
   </separator>
   <separator name="electronic projectors" >
    <i type="logical" name="LREAL"> F  </i>
    <v name="ROPT">      0.00000000</v>
    <i type="int" name="LMAXPAW">  -100</i>
    <i type="int" name="LMAXMIX">     2</i>
    <i type="logical" name="NLSPLINE"> F  </i>
   </separator>
   <separator name="electronic startup" >
    <i type="int" name="ISTART">     0</i>
    <i type="int" name="ICHARG">    11</i>
    <i type="int" name="INIWAV">     1</i>
   </separator>
   <separator name="electronic spin" >
    <i type="int" name="ISPIN">     1</i>
    <i type="logical" name="LNONCOLLINEAR"> F  </i>
    <v name="MAGMOM">      1.00000000      1.00000000</v>
    <i name="NUPDOWN">     -1.00000000</i>
    <i type="logical" name="LSORBIT"> F  </i>
    <v name="SAXIS">      0.00000000      0.00000000      1.00000000</v>
    <i type="logical" name="LSPIRAL"> F  </i>
    <v name="QSPIRAL">      0.00000000      0.00000000      0.00000000</v>
    <i type="logical" name="LZEROZ"> F  </i>
   </separator>
   <separator name="electronic exchange-correlation" >
    <i type="logical" name="LASPH"> T  </i>
    <i type="logical" name="LMETAGGA"> F  </i>
   </separator>
   <separator name="electronic convergence" >
    <i type="int" name="NELM">   200</i>
    <i type="int" name="NELMDL">    -5</i>
    <i type="int" name="NELMIN">     2</i>
    <i name="ENINI">    680.00000000</i>
    <separator name="electronic convergence detail" >
     <i type="logical" name="LDIAG"> T  </i>
     <i type="logical" name="LSUBROT"> F  </i>
     <i name="WEIMIN">      0.00000000</i>
     <i name="EBREAK">      0.00000010</i>
     <i name="DEPER">      0.30000000</i>
     <i type="int" name="NRMM">     4</i>
     <i name="TIME">      0.40000000</i>
    </separator>
   </separator>
   <separator name="electronic mixer" >
    <i name="AMIX">      0.40000000</i>
    <i name="BMIX">      1.00000000</i>
    <i name="AMIN">      0.10000000</i>
    <i name="AMIX_MAG">      1.60000000</i>
    <i name="BMIX_MAG">      1.00000000</i>
    <separator name="electronic mixer details" >
     <i type="int" name="IMIX">     4</i>
     <i type="logical" name="MIXFIRST"> F  </i>
     <i type="int" name="MAXMIX">   -45</i>
     <i name="WC">    100.00000000</i>
     <i type="int" name="INIMIX">     1</i>
     <i type="int" name="MIXPRE">     1</i>
     <i type="int" name="MREMOVE">     5</i>
    </separator>
   </separator>
   <separator name="electronic dipolcorrection" >
    <i type="logical" name="LDIPOL"> F  </i>
    <i type="logical" name="LMONO"> F  </i>
    <i type="int" name="IDIPOL">     0</i>
    <i name="EPSILON">      1.00000000</i>
    <v name="DIPOL">   -100.00000000   -100.00000000   -100.00000000</v>
    <i name="EFIELD">      0.00000000</i>
   </separator>
  </separator>
  <separator name="grids" >
   <i type="int" name="NGX">    36</i>
   <i type="int" name="NGY">    36</i>
   <i type="int" name="NGZ">    36</i>
   <i type="int" name="NGXF">    72</i>
   <i type="int" name="NGYF">    72</i>
   <i type="int" name="NGZF">    72</i>
   <i type="logical" name="ADDGRID"> F  </i>
  </separator>
  <separator name="ionic" >
   <i type="int" name="NSW">     0</i>
   <i type="int" name="IBRION">    -1</i>
   <i type="int" name="MDALGO">     0</i>
   <i type="int" name="ISIF">     2</i>
   <i name="PSTRESS">      0.00000000</i>
   <i name="EDIFFG">      0.00010000</i>
   <i type="int" name="NFREE">     0</i>
   <i name="POTIM">      0.50000000</i>
   <i name="SMASS">     -3.00000000</i>
   <i name="SCALEE">      1.00000000</i>
  </separator>
  <separator name="ionic md" >
   <i name="TEBEG">      0.00010000</i>
   <i name="TEEND">      0.00010000</i>
   <i type="int" name="NBLOCK">     1</i>
   <i type="int" name="KBLOCK">     1</i>
   <i type="int" name="NPACO">   256</i>
   <i name="APACO">     10.00000000</i>
  </separator>
  <separator name="symmetry" >
   <i type="int" name="ISYM">     2</i>
   <i name="SYMPREC">      0.00001000</i>
  </separator>
  <separator name="dos" >
   <i type="int" name="LORBIT">    11</i>
   <v name="RWIGS">     -1.00000000</v>
   <i type="int" name="NEDOS">  2000</i>
   <i name="EMIN">     10.00000000</i>
   <i name="EMAX">    -10.00000000</i>
   <i name="EFERMI">      0.00000000</i>
  </separator>
  <separator name="writing" >
   <i type="int" name="NWRITE">     2</i>
   <i type="logical" name="LWAVE"> T  </i>
   <i type="logical" name="LDOWNSAMPLE"> F  </i>
   <i type="logical" name="LCHARG"> F  </i>
   <i type="logical" name="LPARD"> F  </i>
   <i type="logical" name="LVTOT"> T  </i>
   <i type="logical" name="LVHAR"> F  </i>
   <i type="logical" name="LELF"> F  </i>
   <i type="logical" name="LOPTICS"> T  </i>
   <v name="STM">      0.00000000      0.00000000      0.00000000      0.00000000      0.00000000      0.00000000      0.00000000</v>
  </separator>
  <separator name="performance" >
   <i type="int" name="NPAR">    12</i>
   <i type="int" name="NSIM">     4</i>
   <i type="int" name="NBLK">    -1</i>
   <i type="logical" name="LPLANE"> T  </i>
   <i type="logical" name="LSCALAPACK"> T  </i>
   <i type="logical" name="LSCAAWARE"> T  </i>
   <i type="logical" name="LSCALU"> F  </i>
   <i type="logical" name="LASYNC"> F  </i>
   <i type="logical" name="LORBITALREAL"> F  </i>
  </separator>
  <separator name="miscellaneous" >
   <i type="int" name="IDIOT">     3</i>
   <i type="int" name="PHON_NSTRUCT">    -1</i>
   <i type="logical" name="LMUSIC"> F  </i>
   <v name="POMASS">     28.08500000</v>
   <v name="DARWINR">      0.00000000</v>
   <v name="DARWINV">      1.00000000</v>
   <i type="logical" name="LCORR"> T  </i>
  </separator>
  <i type="logical" name="GGA_COMPAT"> T  </i>
  <i type="logical" name="LBERRY"> F  </i>
  <i type="int" name="ICORELEVEL">     0</i>
  <i type="logical" name="LDAU"> F  </i>
  <i type="int" name="I_CONSTRAINED_M">     0</i>
  <separator name="electronic exchange-correlation" >
   <i type="string" name="GGA">PS</i>
   <i type="int" name="VOSKOWN">     0</i>
   <i type="logical" name="LHFCALC"> F  </i>
   <i type="string" name="PRECFOCK"></i>
   <i type="logical" name="LSYMGRAD"> F  </i>
   <i type="logical" name="LHFONE"> F  </i>
   <i type="logical" name="LRHFCALC"> F  </i>
   <i type="logical" name="LTHOMAS"> F  </i>
   <i type="logical" name="LMODELHF"> F  </i>
   <i type="logical" name="LFOCKACE"> F  </i>
   <i name="ENCUT4O">     -1.00000000</i>
   <i type="int" name="EXXOEP">     0</i>
   <i type="int" name="FOURORBIT">     0</i>
   <i name="AEXX">      0.00000000</i>
   <i name="HFALPHA">      0.00000000</i>
   <i name="MCALPHA">      0.00000000</i>
   <i name="ALDAX">      1.00000000</i>
   <i name="AGGAX">      1.00000000</i>
   <i name="ALDAC">      1.00000000</i>
   <i name="AGGAC">      1.00000000</i>
   <i type="int" name="NKREDX">     1</i>
   <i type="int" name="NKREDY">     1</i>
   <i type="int" name="NKREDZ">     1</i>
   <i type="logical" name="SHIFTRED"> F  </i>
   <i type="logical" name="ODDONLY"> F  </i>
   <i type="logical" name="EVENONLY"> F  </i>
   <i type="int" name="LMAXFOCK">     0</i>
   <i type="int" name="NMAXFOCKAE">     0</i>
   <i type="logical" name="LFOCKAEDFT"> F  </i>
   <i name="HFSCREEN">      0.00000000</i>
   <i name="HFSCREENC">      0.00000000</i>
   <i type="int" name="NBANDSGWLOW">     0</i>
  </separator>
  <separator name="vdW DFT" >
   <i type="logical" name="LUSE_VDW"> F  </i>
   <i type="int" name="IVDW_NL">     1</i>
   <i type="logical" name="LSPIN_VDW"> F  </i>
   <i name="Zab_VDW">     -0.84910000</i>
   <i name="PARAM1">      0.12340000</i>
   <i name="PARAM2">      1.00000000</i>
   <i name="PARAM3">      0.00000000</i>
  </separator>
  <separator name="model GW" >
   <i type="int" name="MODEL_GW">     0</i>
   <i name="MODEL_EPS0">     12.09885804</i>
   <i name="MODEL_ALPHA">      1.00000000</i>
  </separator>
  <separator name="linear response parameters" >
   <i type="logical" name="LEPSILON"> F  </i>
   <i type="logical" name="LRPA"> F  </i>
   <i type="logical" name="LNABLA"> F  </i>
   <i type="logical" name="LVEL"> F  </i>
   <i name="CSHIFT">      0.00001000</i>
   <i name="OMEGAMAX">     -1.00000000</i>
   <i name="DEG_THRESHOLD">      0.00200000</i>
   <i name="RTIME">     -0.10000000</i>
   <i name="WPLASMAI">      0.00000000</i>
   <v name="DFIELD">      0.00000000      0.00000000      0.00000000</v>
   <v name="WPLASMA">      0.00000000      0.00000000      0.00000000      0.00000000      0.00000000      0.00000000      0.00000000      0.00000000      0.00000000</v>
  </separator>
  <separator name="orbital magnetization" >
   <i type="logical" name="NUCIND"> F  </i>
   <v name="MAGPOS">      0.00000000      0.00000000      0.00000000</v>
   <i type="logical" name="LNICSALL"> T  </i>
   <i type="logical" name="ORBITALMAG"> F  </i>
   <i type="logical" name="LMAGBLOCH"> F  </i>
   <i type="logical" name="LCHIMAG"> F  </i>
   <i type="logical" name="LGAUGE"> T  </i>
   <i type="int" name="MAGATOM">     0</i>
   <v name="MAGDIPOL">      0.00000000      0.00000000      0.00000000</v>
   <v name="AVECCONST">      0.00000000      0.00000000      0.00000000</v>
  </separator>
  <separator name="response functions" >
   <i type="logical" name="LALL_IN_ONE"> F  </i>
   <i type="int" name="IALL_IN_ONE">    -1</i>
   <i type="int" name="NBANDS_WAVE">    -1</i>
   <i type="logical" name="LFINITE_TEMPERATURE"> F  </i>
   <i type="logical" name="LADDER"> F  </i>
   <i type="logical" name="LRPAFORCE"> F  </i>
   <i type="logical" name="LFXC"> F  </i>
   <i type="logical" name="LHARTREE"> T  </i>
   <i type="int" name="IBSE">     0</i>
   <v type="int" name="KPOINT">    -1     0     0     0</v>
   <i type="logical" name="LTCTC"> F  </i>
   <i type="logical" name="LTCTE"> F  </i>
   <i type="logical" name="LTETE"> F  </i>
   <i type="logical" name="LTRIPLET"> F  </i>
   <i type="logical" name="LFXCEPS"> F  </i>
   <i type="logical" name="LFXHEG"> F  </i>
   <i type="int" name="NATURALO">     2</i>
   <i type="logical" name="LHOLEGF"> F  </i>
   <i type="logical" name="L2ORDER"> F  </i>
   <i type="logical" name="LDMP1"> F  </i>
   <i type="logical" name="LMP2LT"> F  </i>
   <i type="logical" name="LSMP2LT"> F  </i>
   <i type="logical" name="LGWLF"> F  </i>
   <i name="ENCUTGW">     -1.60000002</i>
   <i name="ENCUTGWSOFT">     -1.60000002</i>
   <i name="ENCUTLF">     -1.00000000</i>
   <i type="logical" name="LESF_SPLINES"> F  </i>
   <i type="int" name="LMAXMP2">    -1</i>
   <i name="SCISSOR">      0.00000000</i>
   <i type="int" name="NOMEGA">     0</i>
   <i type="int" name="NOMEGAR">     0</i>
   <i type="int" name="NBANDSGW">    -1</i>
   <i type="int" name="NBANDSO">    -1</i>
   <i type="int" name="NBANDSV">    -1</i>
   <i type="int" name="NELMGW">     1</i>
   <i type="int" name="NELMHF">     1</i>
   <i type="int" name="DIM">     3</i>
   <i type="int" name="IESPILON">     4</i>
   <i type="int" name="ANTIRES">     0</i>
   <i name="OMEGAMAX">    -30.00000000</i>
   <i name="OMEGAMIN">    -30.00000000</i>
   <i name="OMEGATL">   -200.00000000</i>
   <i type="int" name="OMEGAGRID">     0</i>
   <i name="CSHIFT">      0.00001000</i>
   <i type="logical" name="LSELFENERGY"> F  </i>
   <i type="logical" name="LSPECTRAL"> F  </i>
   <i type="logical" name="LSPECTRALGW"> F  </i>
   <i type="logical" name="LSINGLES"> F  </i>
   <i type="logical" name="LFERMIGW"> F  </i>
   <i type="logical" name="ODDONLYGW"> F  </i>
   <i type="logical" name="EVENONLYGW"> F  </i>
   <i type="int" name="NKREDLFX">     1</i>
   <i type="int" name="NKREDLFY">     1</i>
   <i type="int" name="NKREDLFZ">     1</i>
   <i type="int" name="MAXMEM">  2800</i>
   <i type="int" name="TELESCOPE">     0</i>
   <i type="int" name="NTAUPAR">    -1</i>
   <i type="int" name="NOMEGAPAR">    -1</i>
   <i name="DAMP_NEWTON">      0.80000001</i>
   <i name="LAMBDA">      1.00000000</i>
  </separator>
  <separator name="External order field" >
   <i name="OFIELD_KAPPA">      0.00000000</i>
   <v name="OFIELD_K">      0.00000000      0.00000000      0.00000000</v>
   <i name="OFIELD_Q6_NEAR">      0.00000000</i>
   <i name="OFIELD_Q6_FAR">      0.00000000</i>
   <i name="OFIELD_A">      0.00000000</i>
  </separator>
  <separator name="optional k-points parameters" >
   <i type="int" name="KPOINTS_OPT_MODE">     1</i>
   <i type="logical" name="LKPOINTS_OPT"> F  </i>
  </separator>
 </parameters>
 <atominfo>
  <atoms>       2 </atoms>
  <types>       1 </types>
  <array name="atoms" >
   <dimension dim="1">ion</dimension>
   <field type="string">element</field>
   <field type="int">atomtype</field>
   <set>
    <rc><c>Si</c><c>   1</c></rc>
    <rc><c>Si</c><c>   1</c></rc>
   </set>
  </array>
  <array name="atomtypes" >
   <dimension dim="1">type</dimension>
   <field type="int">atomspertype</field>
   <field type="string">element</field>
   <field>mass</field>
   <field>valence</field>
   <field type="string">pseudopotential</field>
   <set>
    <rc><c>   2</c><c>Si</c><c>     28.08500000</c><c>      4.00000000</c><c>  PAW_PBE Si 05Jan2001                  </c></rc>
   </set>
  </array>
 </atominfo>
 <structure name="initialpos" >
  <crystal>
   <varray name="basis" >
    <v>       3.33357300       0.00000000       1.92463900 </v>
    <v>       1.11119100       3.14292400       1.92463900 </v>
    <v>       0.00000000       0.00000000       3.84927800 </v>
   </varray>
   <i name="volume">     40.32952680 </i>
   <varray name="rec_basis" >
    <v>       0.29997843      -0.10605835       0.00000000 </v>
    <v>       0.00000000       0.31817505       0.00000000 </v>
    <v>      -0.14998922      -0.10605835       0.25978898 </v>
   </varray>
  </crystal>
  <varray name="positions" >
   <v>       0.87500000       0.87500000       0.87500000 </v>
   <v>       0.12500000       0.12500000       0.12500000 </v>
  </varray>
 </structure>
 <calculation>
  <scstep>
   <time name="dav">    0.23    0.24</time>
   <time name="total">    0.30    0.31</time>
   <energy>
    <i name="alphaZ">      3.33880742 </i>
    <i name="ewald">   -227.98820653 </i>
    <i name="hartreedc">    -14.72033828 </i>
    <i name="XCdc">    -16.87721261 </i>
    <i name="pawpsdc">    856.79434957 </i>
    <i name="pawaedc">   -822.42772418 </i>
    <i name="eentropy">      0.00000000 </i>
    <i name="bandstr">     23.00173943 </i>
    <i name="atom">    205.15160006 </i>
    <i name="e_fr_energy">      6.27301488 </i>
    <i name="e_wo_entrp">      6.27301488 </i>
    <i name="e_0_energy">      6.27301488 </i>
   </energy>
  </scstep>
  <scstep>
   <time name="dav">    0.26    0.26</time>
   <time name="total">    0.26    0.26</time>
   <energy>
    <i name="e_fr_energy">    -11.16329697 </i>
    <i name="e_wo_entrp">    -11.16329697 </i>
    <i name="e_0_energy">    -11.16329697 </i>
   </energy>
  </scstep>
  <scstep>
   <time name="dav">    0.20    0.21</time>
   <time name="total">    0.20    0.22</time>
   <energy>
    <i name="e_fr_energy">    -11.48795011 </i>
    <i name="e_wo_entrp">    -11.48795011 </i>
    <i name="e_0_energy">    -11.48795011 </i>
   </energy>
  </scstep>
  <scstep>
   <time name="dav">    0.23    0.24</time>
   <time name="total">    0.23    0.25</time>
   <energy>
    <i name="e_fr_energy">    -11.48889549 </i>
    <i name="e_wo_entrp">    -11.48889549 </i>
    <i name="e_0_energy">    -11.48889549 </i>
   </energy>
  </scstep>
  <scstep>
   <time name="dav">    0.20    0.21</time>
   <time name="total">    0.20    0.22</time>
   <energy>
    <i name="e_fr_energy">    -11.48889897 </i>
    <i name="e_wo_entrp">    -11.48889897 </i>
    <i name="e_0_energy">    -11.48889897 </i>
   </energy>
  </scstep>
  <scstep>
   <time name="diag">    0.08    0.10</time>
   <time name="diis">    0.02    0.02</time>
   <time name="orth">    0.01    0.01</time>
   <time name="total">    0.12    0.14</time>
   <energy>
    <i name="alphaZ">      3.33880742 </i>
    <i name="ewald">   -227.98820653 </i>
    <i name="hartreedc">    -14.72033828 </i>
    <i name="XCdc">    -16.87721261 </i>
    <i name="pawpsdc">    856.79434957 </i>
    <i name="pawaedc">   -822.42772418 </i>
    <i name="eentropy">      0.00000000 </i>
    <i name="bandstr">      5.23982557 </i>
    <i name="atom">    205.15160006 </i>
    <i name="e_fr_energy">    -11.48889899 </i>
    <i name="e_wo_entrp">    -11.48889899 </i>
    <i name="e_0_energy">    -11.48889899 </i>
   </energy>
  </scstep>
  <structure>
   <crystal>
    <varray name="basis" >
     <v>       3.33357300       0.00000000       1.92463900 </v>
     <v>       1.11119100       3.14292400       1.92463900 </v>
     <v>       0.00000000       0.00000000       3.84927800 </v>
    </varray>
    <i name="volume">     40.32952680 </i>
    <varray name="rec_basis" >
     <v>       0.29997843      -0.10605835       0.00000000 </v>
     <v>       0.00000000       0.31817505       0.00000000 </v>
     <v>      -0.14998922      -0.10605835       0.25978898 </v>
    </varray>
   </crystal>
   <varray name="positions" >
    <v>       0.87500000       0.87500000       0.87500000 </v>
    <v>       0.12500000       0.12500000       0.12500000 </v>
   </varray>
  </structure>
  <varray name="forces" >
   <v>       0.00000000       0.00000000       0.00000000 </v>
   <v>      -0.00000000      -0.00000000      -0.00000000 </v>
  </varray>
  <varray name="stress" >
   <v>      -4.33067406      -0.00000000       0.00000000 </v>
   <v>      -0.00000000      -4.33067747       0.00000000 </v>
   <v>       0.00000000       0.00000000      -4.33067286 </v>
  </varray>
  <energy>
   <i name="e_fr_energy">    -11.48889899 </i>
   <i name="e_wo_entrp">    -11.48889899 </i>
   <i name="e_0_energy">    -11.48889899 </i>
  </energy>
  <time name="totalsc">    1.55    1.64</time>
  <eigenvalues>
   <array>
    <dimension dim="1">band</dimension>
    <dimension dim="2">kpoint</dimension>
    <dimension dim="3">spin</dimension>
    <field>eigene</field>
    <field>occ</field>
    <set>
     <set comment="spin 1">
      <set comment="kpoint 1">
       <r>   -6.2204    1.0000 </r>
       <r>    5.7214    1.0000 </r>
       <r>    5.7214    1.0000 </r>
       <r>    5.7214    1.0000 </r>
       <r>    8.2341    0.0000 </r>
       <r>    8.2341    0.0000 </r>
       <r>    8.2341    0.0000 </r>
       <r>    8.9641    0.0000 </r>
       <r>   13.4011    0.0000 </r>
       <r>   13.4039    0.0000 </r>
       <r>   13.4039    0.0000 </r>
       <r>   16.7916    0.0000 </r>
       <r>   16.7916    0.0000 </r>
       <r>   16.7916    0.0000 </r>
       <r>   20.7592    0.0000 </r>
       <r>   28.6351    0.0000 </r>
       <r>   28.6351    0.0000 </r>
       <r>   28.6351    0.0000 </r>
       <r>   29.7955    0.0000 </r>
       <r>   29.7955    0.0000 </r>
       <r>   31.2857    0.0000 </r>
       <r>   31.2857    0.0000 </r>
       <r>   31.2858    0.0000 </r>
       <r>   34.8164    0.0000 </r>
      </set>
      <set comment="kpoint 2">
       <r>   -6.0168    1.0000 </r>
       <r>    4.1106    1.0000 </r>
       <r>    5.4308    1.0000 </r>
       <r>    5.4308    1.0000 </r>
       <r>    8.1454    0.0000 </r>
       <r>    8.6593    0.0000 </r>
       <r>    8.6594    0.0000 </r>
       <r>   10.3273    0.0000 </r>
       <r>   12.9018    0.0000 </r>
       <r>   12.9018    0.0000 </r>
       <r>   14.2048    0.0000 </r>
       <r>   16.2082    0.0000 </r>
       <r>   17.9757    0.0000 </r>
       <r>   17.9757    0.0000 </r>
       <r>   22.0208    0.0000 </r>
       <r>   26.6401    0.0000 </r>
       <r>   26.6401    0.0000 </r>
       <r>   26.9200    0.0000 </r>
       <r>   29.4301    0.0000 </r>
       <r>   29.4301    0.0000 </r>
       <r>   31.8246    0.0000 </r>
       <r>   31.8246    0.0000 </r>
       <r>   32.7083    0.0000 </r>
       <r>   35.0021    0.0000 </r>
      </set>
      <set comment="kpoint 3">
       <r>   -5.4223    1.0000 </r>
       <r>    1.7819    1.0000 </r>
       <r>    4.9603    1.0000 </r>
       <r>    4.9603    1.0000 </r>
       <r>    7.6570    0.0000 </r>
       <r>    9.1722    0.0000 </r>
       <r>    9.1722    0.0000 </r>
       <r>   12.5110    0.0000 </r>
       <r>   12.8472    0.0000 </r>
       <r>   12.8472    0.0000 </r>
       <r>   14.4793    0.0000 </r>
       <r>   17.3414    0.0000 </r>
       <r>   20.2300    0.0000 </r>
       <r>   20.2300    0.0000 </r>
       <r>   23.4268    0.0000 </r>
       <r>   23.4268    0.0000 </r>
       <r>   23.5148    0.0000 </r>
       <r>   25.4937    0.0000 </r>
       <r>   29.6026    0.0000 </r>
       <r>   29.6026    0.0000 </r>
       <r>   32.1862    0.0000 </r>
       <r>   32.1862    0.0000 </r>
       <r>   33.3986    0.0000 </r>
       <r>   34.9224    0.0000 </r>
      </set>
      <set comment="kpoint 4">
       <r>   -4.5288    1.0000 </r>
       <r>   -0.2367    1.0000 </r>
       <r>    4.6349    1.0000 </r>
       <r>    4.6349    1.0000 </r>
       <r>    7.2894    0.0000 </r>
       <r>    9.1093    0.0000 </r>
       <r>    9.1093    0.0000 </r>
       <r>   13.3918    0.0000 </r>
       <r>   14.2308    0.0000 </r>
       <r>   14.2308    0.0000 </r>
       <r>   15.2272    0.0000 </r>
       <r>   19.3835    0.0000 </r>
       <r>   19.3835    0.0000 </r>
       <r>   19.5927    0.0000 </r>
       <r>   22.2269    0.0000 </r>
       <r>   24.0856    0.0000 </r>
       <r>   24.0856    0.0000 </r>
       <r>   28.3719    0.0000 </r>
       <r>   29.4006    0.0000 </r>
       <r>   29.4309    0.0000 </r>
       <r>   29.4309    0.0000 </r>
       <r>   32.3586    0.0000 </r>
       <r>   32.3587    0.0000 </r>
       <r>   33.8766    0.0000 </r>
      </set>
      <set comment="kpoint 5">
       <r>   -3.8885    1.0000 </r>
       <r>   -1.2609    1.0000 </r>
       <r>    4.5238    1.0000 </r>
       <r>    4.5238    1.0000 </r>
       <r>    7.1608    0.0000 </r>
       <r>    8.9955    0.0000 </r>
       <r>    8.9955    0.0000 </r>
       <r>   13.2234    0.0000 </r>
       <r>   16.2116    0.0000 </r>
       <r>   16.2116    0.0000 </r>
       <r>   16.8821    0.0000 </r>
       <r>   16.9557    0.0000 </r>
       <r>   16.9557    0.0000 </r>
       <r>   18.5576    0.0000 </r>
       <r>   24.9081    0.0000 </r>
       <r>   25.4929    0.0000 </r>
       <r>   27.1623    0.0000 </r>
       <r>   27.1623    0.0000 </r>
       <r>   27.3912    0.0000 </r>
       <r>   27.3913    0.0000 </r>
       <r>   31.1115    0.0000 </r>
       <r>   31.9818    0.0000 </r>
       <r>   31.9819    0.0000 </r>
       <r>   32.9991    0.0000 </r>
      </set>
      <set comment="kpoint 6">
       <r>   -5.9481    1.0000 </r>
       <r>    4.3779    1.0000 </r>
       <r>    4.9092    1.0000 </r>
       <r>    4.9092    1.0000 </r>
       <r>    7.6617    0.0000 </r>
       <r>    9.3769    0.0000 </r>
       <r>    9.3769    0.0000 </r>
       <r>   10.0095    0.0000 </r>
       <r>   12.1451    0.0000 </r>
       <r>   13.7052    0.0000 </r>
       <r>   14.5056    0.0000 </r>
       <r>   17.2674    0.0000 </r>
       <r>   17.2674    0.0000 </r>
       <r>   17.7430    0.0000 </r>
       <r>   22.6283    0.0000 </r>
       <r>   26.1459    0.0000 </r>
       <r>   26.1459    0.0000 </r>
       <r>   27.4342    0.0000 </r>
       <r>   28.2343    0.0000 </r>
       <r>   28.9904    0.0000 </r>
       <r>   32.0581    0.0000 </r>
       <r>   32.4124    0.0000 </r>
       <r>   32.4125    0.0000 </r>
       <r>   36.7718    0.0000 </r>
      </set>
      <set comment="kpoint 7">
       <r>   -5.4804    1.0000 </r>
       <r>    2.4877    1.0000 </r>
       <r>    4.3976    1.0000 </r>
       <r>    4.4679    1.0000 </r>
       <r>    7.7932    0.0000 </r>
       <r>    9.3586    0.0000 </r>
       <r>   10.1367    0.0000 </r>
       <r>   10.3747    0.0000 </r>
       <r>   13.1251    0.0000 </r>
       <r>   13.8555    0.0000 </r>
       <r>   15.5154    0.0000 </r>
       <r>   17.1001    0.0000 </r>
       <r>   18.7089    0.0000 </r>
       <r>   19.9622    0.0000 </r>
       <r>   23.1680    0.0000 </r>
       <r>   23.6398    0.0000 </r>
       <r>   24.7241    0.0000 </r>
       <r>   27.1131    0.0000 </r>
       <r>   27.1528    0.0000 </r>
       <r>   28.5773    0.0000 </r>
       <r>   31.8045    0.0000 </r>
       <r>   32.8050    0.0000 </r>
       <r>   33.7958    0.0000 </r>
       <r>   35.3203    0.0000 </r>
      </set>
      <set comment="kpoint 8">
       <r>   -4.6664    1.0000 </r>
       <r>    0.4282    1.0000 </r>
       <r>    3.8735    1.0000 </r>
       <r>    4.1312    1.0000 </r>
       <r>    7.8824    0.0000 </r>
       <r>    9.2896    0.0000 </r>
       <r>   10.1255    0.0000 </r>
       <r>   11.0884    0.0000 </r>
       <r>   14.8994    0.0000 </r>
       <r>   14.9757    0.0000 </r>
       <r>   15.5104    0.0000 </r>
       <r>   18.9727    0.0000 </r>
       <r>   19.0310    0.0000 </r>
       <r>   20.7822    0.0000 </r>
       <r>   22.2170    0.0000 </r>
       <r>   23.2082    0.0000 </r>
       <r>   24.1501    0.0000 </r>
       <r>   27.4660    0.0000 </r>
       <r>   28.0941    0.0000 </r>
       <r>   29.0742    0.0000 </r>
       <r>   30.2782    0.0000 </r>
       <r>   31.1094    0.0000 </r>
       <r>   33.0702    0.0000 </r>
       <r>   34.5664    0.0000 </r>
      </set>
      <set comment="kpoint 9">
       <r>   -3.8031    1.0000 </r>
       <r>   -1.0366    1.0000 </r>
       <r>    3.4272    1.0000 </r>
       <r>    4.1576    1.0000 </r>
       <r>    7.8262    0.0000 </r>
       <r>    9.1548    0.0000 </r>
       <r>    9.7574    0.0000 </r>
       <r>   12.9761    0.0000 </r>
       <r>   14.5411    0.0000 </r>
       <r>   16.1341    0.0000 </r>
       <r>   17.1045    0.0000 </r>
       <r>   17.2803    0.0000 </r>
       <r>   18.1018    0.0000 </r>
       <r>   20.6182    0.0000 </r>
       <r>   23.8498    0.0000 </r>
       <r>   25.2024    0.0000 </r>
       <r>   25.8194    0.0000 </r>
       <r>   26.6386    0.0000 </r>
       <r>   27.5129    0.0000 </r>
       <r>   27.8557    0.0000 </r>
       <r>   30.2421    0.0000 </r>
       <r>   31.4312    0.0000 </r>
       <r>   31.9141    0.0000 </r>
       <r>   33.1047    0.0000 </r>
      </set>
      <set comment="kpoint 10">
       <r>   -4.0487    1.0000 </r>
       <r>   -0.6651    1.0000 </r>
       <r>    3.2445    1.0000 </r>
       <r>    4.4556    1.0000 </r>
       <r>    7.9947    0.0000 </r>
       <r>    9.2610    0.0000 </r>
       <r>    9.5251    0.0000 </r>
       <r>   13.4925    0.0000 </r>
       <r>   13.7430    0.0000 </r>
       <r>   14.7797    0.0000 </r>
       <r>   16.7665    0.0000 </r>
       <r>   18.0488    0.0000 </r>
       <r>   19.8955    0.0000 </r>
       <r>   20.2460    0.0000 </r>
       <r>   22.4250    0.0000 </r>
       <r>   24.1746    0.0000 </r>
       <r>   26.0944    0.0000 </r>
       <r>   27.6919    0.0000 </r>
       <r>   27.9185    0.0000 </r>
       <r>   28.1253    0.0000 </r>
       <r>   30.2759    0.0000 </r>
       <r>   30.5436    0.0000 </r>
       <r>   32.9169    0.0000 </r>
       <r>   33.0458    0.0000 </r>
      </set>
      <set comment="kpoint 11">
       <r>   -4.9724    1.0000 </r>
       <r>    1.0873    1.0000 </r>
       <r>    3.3938    1.0000 </r>
       <r>    4.9484    1.0000 </r>
       <r>    8.3585    0.0000 </r>
       <r>    9.3396    0.0000 </r>
       <r>    9.5009    0.0000 </r>
       <r>   11.9023    0.0000 </r>
       <r>   12.1201    0.0000 </r>
       <r>   15.3542    0.0000 </r>
       <r>   15.7065    0.0000 </r>
       <r>   17.9636    0.0000 </r>
       <r>   19.5744    0.0000 </r>
       <r>   20.9625    0.0000 </r>
       <r>   22.0034    0.0000 </r>
       <r>   23.5948    0.0000 </r>
       <r>   24.3944    0.0000 </r>
       <r>   27.1838    0.0000 </r>
       <r>   27.5498    0.0000 </r>
       <r>   28.4719    0.0000 </r>
       <r>   31.5938    0.0000 </r>
       <r>   32.1024    0.0000 </r>
       <r>   32.8763    0.0000 </r>
       <r>   35.0220    0.0000 </r>
      </set>
      <set comment="kpoint 12">
       <r>   -5.6812    1.0000 </r>
       <r>    3.0282    1.0000 </r>
       <r>    4.0769    1.0000 </r>
       <r>    5.4302    1.0000 </r>
       <r>    8.6930    0.0000 </r>
       <r>    8.7922    0.0000 </r>
       <r>    9.0092    0.0000 </r>
       <r>   11.1665    0.0000 </r>
       <r>   11.9910    0.0000 </r>
       <r>   13.6770    0.0000 </r>
       <r>   15.2376    0.0000 </r>
       <r>   16.7194    0.0000 </r>
       <r>   17.9106    0.0000 </r>
       <r>   20.0560    0.0000 </r>
       <r>   23.2825    0.0000 </r>
       <r>   23.5710    0.0000 </r>
       <r>   26.4762    0.0000 </r>
       <r>   26.7176    0.0000 </r>
       <r>   27.3059    0.0000 </r>
       <r>   28.6343    0.0000 </r>
       <r>   32.0633    0.0000 </r>
       <r>   32.2985    0.0000 </r>
       <r>   34.3070    0.0000 </r>
       <r>   35.9355    0.0000 </r>
      </set>
      <set comment="kpoint 13">
       <r>   -5.1409    1.0000 </r>
       <r>    2.2007    1.0000 </r>
       <r>    3.8257    1.0000 </r>
       <r>    3.8257    1.0000 </r>
       <r>    6.7600    0.0000 </r>
       <r>    8.7454    0.0000 </r>
       <r>   11.4206    0.0000 </r>
       <r>   11.4206    0.0000 </r>
       <r>   13.6682    0.0000 </r>
       <r>   14.6072    0.0000 </r>
       <r>   16.9074    0.0000 </r>
       <r>   18.5789    0.0000 </r>
       <r>   18.5789    0.0000 </r>
       <r>   19.2318    0.0000 </r>
       <r>   22.9575    0.0000 </r>
       <r>   22.9575    0.0000 </r>
       <r>   23.9719    0.0000 </r>
       <r>   25.9217    0.0000 </r>
       <r>   26.4338    0.0000 </r>
       <r>   30.4001    0.0000 </r>
       <r>   31.8295    0.0000 </r>
       <r>   32.8677    0.0000 </r>
       <r>   32.8679    0.0000 </r>
       <r>   35.0164    0.0000 </r>
      </set>
      <set comment="kpoint 14">
       <r>   -4.4321    1.0000 </r>
       <r>    0.7810    1.0000 </r>
       <r>    3.0343    1.0000 </r>
       <r>    3.5084    1.0000 </r>
       <r>    6.9791    0.0000 </r>
       <r>    8.5114    0.0000 </r>
       <r>   11.6427    0.0000 </r>
       <r>   11.9259    0.0000 </r>
       <r>   15.6461    0.0000 </r>
       <r>   15.7826    0.0000 </r>
       <r>   17.1913    0.0000 </r>
       <r>   18.8390    0.0000 </r>
       <r>   19.2623    0.0000 </r>
       <r>   20.4044    0.0000 </r>
       <r>   21.4319    0.0000 </r>
       <r>   22.6198    0.0000 </r>
       <r>   23.9949    0.0000 </r>
       <r>   25.4499    0.0000 </r>
       <r>   27.4209    0.0000 </r>
       <r>   29.6706    0.0000 </r>
       <r>   30.6986    0.0000 </r>
       <r>   31.8610    0.0000 </r>
       <r>   31.9286    0.0000 </r>
       <r>   32.9008    0.0000 </r>
      </set>
      <set comment="kpoint 15">
       <r>   -3.5059    1.0000 </r>
       <r>   -0.6608    1.0000 </r>
       <r>    2.1645    1.0000 </r>
       <r>    3.5126    1.0000 </r>
       <r>    7.1406    0.0000 </r>
       <r>   10.0723    0.0000 </r>
       <r>   11.3802    0.0000 </r>
       <r>   11.5729    0.0000 </r>
       <r>   15.7907    0.0000 </r>
       <r>   16.1821    0.0000 </r>
       <r>   17.8041    0.0000 </r>
       <r>   18.2754    0.0000 </r>
       <r>   18.5607    0.0000 </r>
       <r>   22.3578    0.0000 </r>
       <r>   23.3201    0.0000 </r>
       <r>   24.1953    0.0000 </r>
       <r>   24.9082    0.0000 </r>
       <r>   25.1314    0.0000 </r>
       <r>   25.4626    0.0000 </r>
       <r>   28.4296    0.0000 </r>
       <r>   29.2826    0.0000 </r>
       <r>   30.7019    0.0000 </r>
       <r>   31.0690    0.0000 </r>
       <r>   33.2623    0.0000 </r>
      </set>
      <set comment="kpoint 16">
       <r>   -3.3003    1.0000 </r>
       <r>   -0.9204    1.0000 </r>
       <r>    1.7034    1.0000 </r>
       <r>    3.8322    1.0000 </r>
       <r>    7.4667    0.0000 </r>
       <r>   11.0886    0.0000 </r>
       <r>   11.1340    0.0000 </r>
       <r>   12.5822    0.0000 </r>
       <r>   13.6206    0.0000 </r>
       <r>   13.6290    0.0000 </r>
       <r>   18.0952    0.0000 </r>
       <r>   20.4613    0.0000 </r>
       <r>   20.6659    0.0000 </r>
       <r>   21.5985    0.0000 </r>
       <r>   22.0219    0.0000 </r>
       <r>   24.0056    0.0000 </r>
       <r>   25.0063    0.0000 </r>
       <r>   25.4744    0.0000 </r>
       <r>   27.3633    0.0000 </r>
       <r>   27.6163    0.0000 </r>
       <r>   30.2135    0.0000 </r>
       <r>   30.8598    0.0000 </r>
       <r>   31.3507    0.0000 </r>
       <r>   31.8437    0.0000 </r>
      </set>
      <set comment="kpoint 17">
       <r>   -4.1797    1.0000 </r>
       <r>    0.2412    1.0000 </r>
       <r>    1.9423    1.0000 </r>
       <r>    4.3924    1.0000 </r>
       <r>    8.0808    0.0000 </r>
       <r>   10.4493    0.0000 </r>
       <r>   10.7636    0.0000 </r>
       <r>   11.7498    0.0000 </r>
       <r>   12.0927    0.0000 </r>
       <r>   15.2366    0.0000 </r>
       <r>   18.1548    0.0000 </r>
       <r>   18.8169    0.0000 </r>
       <r>   18.9690    0.0000 </r>
       <r>   22.1850    0.0000 </r>
       <r>   22.6814    0.0000 </r>
       <r>   23.0051    0.0000 </r>
       <r>   24.3001    0.0000 </r>
       <r>   26.8273    0.0000 </r>
       <r>   27.2075    0.0000 </r>
       <r>   29.4388    0.0000 </r>
       <r>   30.1977    0.0000 </r>
       <r>   30.8319    0.0000 </r>
       <r>   32.3084    0.0000 </r>
       <r>   32.5834    0.0000 </r>
      </set>
      <set comment="kpoint 18">
       <r>   -3.8313    1.0000 </r>
       <r>   -0.0193    1.0000 </r>
       <r>    3.1102    1.0000 </r>
       <r>    3.1102    1.0000 </r>
       <r>    6.2345    0.0000 </r>
       <r>    7.1490    0.0000 </r>
       <r>   13.6862    0.0000 </r>
       <r>   13.6862    0.0000 </r>
       <r>   16.1044    0.0000 </r>
       <r>   16.3028    0.0000 </r>
       <r>   18.6449    0.0000 </r>
       <r>   18.6449    0.0000 </r>
       <r>   19.1392    0.0000 </r>
       <r>   20.8261    0.0000 </r>
       <r>   21.4633    0.0000 </r>
       <r>   22.3428    0.0000 </r>
       <r>   22.3428    0.0000 </r>
       <r>   24.3853    0.0000 </r>
       <r>   28.9233    0.0000 </r>
       <r>   29.1440    0.0000 </r>
       <r>   29.5980    0.0000 </r>
       <r>   29.5980    0.0000 </r>
       <r>   30.8985    0.0000 </r>
       <r>   32.7383    0.0000 </r>
      </set>
      <set comment="kpoint 19">
       <r>   -2.9352    1.0000 </r>
       <r>   -1.1006    1.0000 </r>
       <r>    2.2665    1.0000 </r>
       <r>    3.0345    1.0000 </r>
       <r>    6.5100    0.0000 </r>
       <r>    7.5905    0.0000 </r>
       <r>   13.9087    0.0000 </r>
       <r>   13.9802    0.0000 </r>
       <r>   16.3688    0.0000 </r>
       <r>   16.4496    0.0000 </r>
       <r>   17.9705    0.0000 </r>
       <r>   18.4455    0.0000 </r>
       <r>   20.4834    0.0000 </r>
       <r>   20.5829    0.0000 </r>
       <r>   21.4547    0.0000 </r>
       <r>   24.2071    0.0000 </r>
       <r>   24.3398    0.0000 </r>
       <r>   24.9088    0.0000 </r>
       <r>   26.3268    0.0000 </r>
       <r>   27.8168    0.0000 </r>
       <r>   28.2503    0.0000 </r>
       <r>   29.0324    0.0000 </r>
       <r>   29.6101    0.0000 </r>
       <r>   31.3873    0.0000 </r>
      </set>
      <set comment="kpoint 20">
       <r>   -2.4935    1.0000 </r>
       <r>   -1.4979    1.0000 </r>
       <r>    1.3904    1.0000 </r>
       <r>    3.2925    1.0000 </r>
       <r>    6.8197    0.0000 </r>
       <r>    9.7554    0.0000 </r>
       <r>   13.1135    0.0000 </r>
       <r>   13.6370    0.0000 </r>
       <r>   13.8393    0.0000 </r>
       <r>   14.1593    0.0000 </r>
       <r>   20.2560    0.0000 </r>
       <r>   20.5423    0.0000 </r>
       <r>   21.0972    0.0000 </r>
       <r>   21.2568    0.0000 </r>
       <r>   21.3955    0.0000 </r>
       <r>   22.6469    0.0000 </r>
       <r>   25.2345    0.0000 </r>
       <r>   25.4316    0.0000 </r>
       <r>   27.0693    0.0000 </r>
       <r>   27.0987    0.0000 </r>
       <r>   28.3795    0.0000 </r>
       <r>   28.5436    0.0000 </r>
       <r>   30.6724    0.0000 </r>
       <r>   31.4150    0.0000 </r>
      </set>
      <set comment="kpoint 21">
       <r>   -2.0853    1.0000 </r>
       <r>   -2.0853    1.0000 </r>
       <r>    2.8650    1.0000 </r>
       <r>    2.8650    1.0000 </r>
       <r>    6.3225    0.0000 </r>
       <r>    6.3225    0.0000 </r>
       <r>   15.7237    0.0000 </r>
       <r>   15.7237    0.0000 </r>
       <r>   16.6311    0.0000 </r>
       <r>   16.6311    0.0000 </r>
       <r>   18.1853    0.0000 </r>
       <r>   18.1853    0.0000 </r>
       <r>   18.5912    0.0000 </r>
       <r>   18.5912    0.0000 </r>
       <r>   24.3601    0.0000 </r>
       <r>   24.3601    0.0000 </r>
       <r>   25.2100    0.0000 </r>
       <r>   25.2100    0.0000 </r>
       <r>   25.7698    0.0000 </r>
       <r>   25.7699    0.0000 </r>
       <r>   27.0059    0.0000 </r>
       <r>   27.0059    0.0000 </r>
       <r>   31.0394    0.0000 </r>
       <r>   31.0395    0.0000 </r>
      </set>
      <set comment="kpoint 22">
       <r>   -4.8937    1.0000 </r>
       <r>    1.4289    1.0000 </r>
       <r>    2.9885    1.0000 </r>
       <r>    4.2876    1.0000 </r>
       <r>    8.0912    0.0000 </r>
       <r>    9.5373    0.0000 </r>
       <r>    9.8248    0.0000 </r>
       <r>   11.1580    0.0000 </r>
       <r>   13.4241    0.0000 </r>
       <r>   15.8829    0.0000 </r>
       <r>   16.6031    0.0000 </r>
       <r>   17.6515    0.0000 </r>
       <r>   19.4451    0.0000 </r>
       <r>   20.6077    0.0000 </r>
       <r>   21.4483    0.0000 </r>
       <r>   23.7457    0.0000 </r>
       <r>   24.9239    0.0000 </r>
       <r>   26.0605    0.0000 </r>
       <r>   27.2876    0.0000 </r>
       <r>   28.8907    0.0000 </r>
       <r>   30.8252    0.0000 </r>
       <r>   31.5832    0.0000 </r>
       <r>   33.3833    0.0000 </r>
       <r>   34.3387    0.0000 </r>
      </set>
      <set comment="kpoint 23">
       <r>   -4.0059    1.0000 </r>
       <r>   -0.1222    1.0000 </r>
       <r>    2.3794    1.0000 </r>
       <r>    3.7828    1.0000 </r>
       <r>    8.5131    0.0000 </r>
       <r>    9.1920    0.0000 </r>
       <r>   10.6450    0.0000 </r>
       <r>   11.5853    0.0000 </r>
       <r>   14.6488    0.0000 </r>
       <r>   15.3251    0.0000 </r>
       <r>   17.5434    0.0000 </r>
       <r>   18.5488    0.0000 </r>
       <r>   19.7956    0.0000 </r>
       <r>   20.6863    0.0000 </r>
       <r>   22.7970    0.0000 </r>
       <r>   23.8156    0.0000 </r>
       <r>   24.6004    0.0000 </r>
       <r>   26.5121    0.0000 </r>
       <r>   27.3750    0.0000 </r>
       <r>   28.3384    0.0000 </r>
       <r>   29.8141    0.0000 </r>
       <r>   31.1738    0.0000 </r>
       <r>   31.4909    0.0000 </r>
       <r>   32.7611    0.0000 </r>
      </set>
      <set comment="kpoint 24">
       <r>   -3.3516    1.0000 </r>
       <r>   -1.0696    1.0000 </r>
       <r>    2.2512    1.0000 </r>
       <r>    3.5520    1.0000 </r>
       <r>    8.7059    0.0000 </r>
       <r>    8.7613    0.0000 </r>
       <r>   11.5594    0.0000 </r>
       <r>   12.7389    0.0000 </r>
       <r>   13.0155    0.0000 </r>
       <r>   16.1809    0.0000 </r>
       <r>   17.2941    0.0000 </r>
       <r>   17.9524    0.0000 </r>
       <r>   21.1119    0.0000 </r>
       <r>   21.1658    0.0000 </r>
       <r>   23.6640    0.0000 </r>
       <r>   23.9927    0.0000 </r>
       <r>   25.0300    0.0000 </r>
       <r>   26.3532    0.0000 </r>
       <r>   26.5316    0.0000 </r>
       <r>   27.5643    0.0000 </r>
       <r>   30.4781    0.0000 </r>
       <r>   30.8981    0.0000 </r>
       <r>   30.9819    0.0000 </r>
       <r>   31.7999    0.0000 </r>
      </set>
      <set comment="kpoint 25">
       <r>   -3.6322    1.0000 </r>
       <r>   -0.2369    1.0000 </r>
       <r>    2.3390    1.0000 </r>
       <r>    2.9475    1.0000 </r>
       <r>    7.5803    0.0000 </r>
       <r>    8.2645    0.0000 </r>
       <r>   11.3949    0.0000 </r>
       <r>   13.6345    0.0000 </r>
       <r>   15.8108    0.0000 </r>
       <r>   15.8332    0.0000 </r>
       <r>   18.4920    0.0000 </r>
       <r>   18.9310    0.0000 </r>
       <r>   19.7449    0.0000 </r>
       <r>   20.1678    0.0000 </r>
       <r>   22.2140    0.0000 </r>
       <r>   22.6561    0.0000 </r>
       <r>   25.0710    0.0000 </r>
       <r>   25.5287    0.0000 </r>
       <r>   27.3730    0.0000 </r>
       <r>   27.3922    0.0000 </r>
       <r>   28.9685    0.0000 </r>
       <r>   29.8056    0.0000 </r>
       <r>   31.7657    0.0000 </r>
       <r>   33.0339    0.0000 </r>
      </set>
      <set comment="kpoint 26">
       <r>   -2.7567    1.0000 </r>
       <r>   -1.2032    1.0000 </r>
       <r>    1.6340    1.0000 </r>
       <r>    2.7444    1.0000 </r>
       <r>    8.0158    0.0000 </r>
       <r>    9.9063    0.0000 </r>
       <r>   10.9144    0.0000 </r>
       <r>   13.0643    0.0000 </r>
       <r>   14.0422    0.0000 </r>
       <r>   16.7129    0.0000 </r>
       <r>   17.8377    0.0000 </r>
       <r>   19.8291    0.0000 </r>
       <r>   20.9671    0.0000 </r>
       <r>   21.5931    0.0000 </r>
       <r>   23.0481    0.0000 </r>
       <r>   23.8652    0.0000 </r>
       <r>   24.3133    0.0000 </r>
       <r>   24.9975    0.0000 </r>
       <r>   26.5707    0.0000 </r>
       <r>   27.3136    0.0000 </r>
       <r>   28.2873    0.0000 </r>
       <r>   29.6669    0.0000 </r>
       <r>   30.5019    0.0000 </r>
       <r>   33.0342    0.0000 </r>
      </set>
      <set comment="kpoint 27">
       <r>   -3.1067    1.0000 </r>
       <r>   -0.8413    1.0000 </r>
       <r>    1.4655    1.0000 </r>
       <r>    3.1224    1.0000 </r>
       <r>    8.4980    0.0000 </r>
       <r>   10.1806    0.0000 </r>
       <r>   10.8407    0.0000 </r>
       <r>   12.6540    0.0000 </r>
       <r>   13.5100    0.0000 </r>
       <r>   14.8762    0.0000 </r>
       <r>   19.6769    0.0000 </r>
       <r>   19.8316    0.0000 </r>
       <r>   20.1258    0.0000 </r>
       <r>   21.9079    0.0000 </r>
       <r>   22.1327    0.0000 </r>
       <r>   23.9603    0.0000 </r>
       <r>   24.6650    0.0000 </r>
       <r>   25.5485    0.0000 </r>
       <r>   26.6869    0.0000 </r>
       <r>   27.5912    0.0000 </r>
       <r>   28.8470    0.0000 </r>
       <r>   30.0511    0.0000 </r>
       <r>   31.3901    0.0000 </r>
       <r>   32.8876    0.0000 </r>
      </set>
      <set comment="kpoint 28">
       <r>   -2.0060    1.0000 </r>
       <r>   -2.0060    1.0000 </r>
       <r>    2.2857    1.0000 </r>
       <r>    2.2857    1.0000 </r>
       <r>    7.5957    0.0000 </r>
       <r>    7.5957    0.0000 </r>
       <r>   13.4747    0.0000 </r>
       <r>   13.4747    0.0000 </r>
       <r>   16.2084    0.0000 </r>
       <r>   16.2084    0.0000 </r>
       <r>   18.4901    0.0000 </r>
       <r>   18.4901    0.0000 </r>
       <r>   21.1664    0.0000 </r>
       <r>   21.1664    0.0000 </r>
       <r>   22.9083    0.0000 </r>
       <r>   22.9083    0.0000 </r>
       <r>   24.5696    0.0000 </r>
       <r>   24.5696    0.0000 </r>
       <r>   27.2551    0.0000 </r>
       <r>   27.2551    0.0000 </r>
       <r>   28.5605    0.0000 </r>
       <r>   28.5605    0.0000 </r>
       <r>   29.5904    0.0000 </r>
       <r>   29.5905    0.0000 </r>
      </set>
      <set comment="kpoint 29">
       <r>   -1.9184    1.0000 </r>
       <r>   -1.9184    1.0000 </r>
       <r>    1.8422    1.0000 </r>
       <r>    1.8423    1.0000 </r>
       <r>    9.8928    0.0000 </r>
       <r>    9.8928    0.0000 </r>
       <r>   10.6404    0.0000 </r>
       <r>   10.6404    0.0000 </r>
       <r>   16.2117    0.0000 </r>
       <r>   16.2117    0.0000 </r>
       <r>   18.6483    0.0000 </r>
       <r>   18.6483    0.0000 </r>
       <r>   21.9530    0.0000 </r>
       <r>   21.9530    0.0000 </r>
       <r>   24.0739    0.0000 </r>
       <r>   24.0739    0.0000 </r>
       <r>   24.5049    0.0000 </r>
       <r>   24.5049    0.0000 </r>
       <r>   25.4220    0.0000 </r>
       <r>   25.4220    0.0000 </r>
       <r>   29.1798    0.0000 </r>
       <r>   29.1798    0.0000 </r>
       <r>   33.0243    0.0000 </r>
       <r>   33.0634    0.0000 </r>
      </set>
     </set>
    </set>
   </array>
  </eigenvalues>
  <separator name="orbital magnetization" >
   <v name="MAGDIPOLOUT">      0.00000000      0.00000000      0.00000000</v>
  </separator>
  <dielectricfunction comment="density-density">
   <imag>
    <array>
     <dimension dim="1">gridpoints</dimension>
     <field>energy</field>
     <field>xx</field>
     <field>yy</field>
     <field>zz</field>
     <field>xy</field>
     <field>yz</field>
     <field>zx</field>
     <set>
      <r>     0.0000     0.0000     0.0000     0.0000     0.0000     0.0000     0.0000 </r>
      <r>     0.0258     0.0000     0.0000     0.0000     0.0000     0.0000     0.0000 </r>
      <r>     0.0516     0.0000     0.0000     0.0000     0.0000     0.0000     0.0000 </r>
      <r>     0.0774     0.0000     0.0000     0.0000     0.0000     0.0000     0.0000 </r>
      <r>     0.1032     0.0000     0.0000     0.0000     0.0000     0.0000     0.0000 </r>
      <r>     0.1290     0.0000     0.0000     0.0000     0.0000     0.0000     0.0000 </r>
      <r>     0.1548     0.0000     0.0000     0.0000     0.0000     0.0000     0.0000 </r>
      <r>     0.1807     0.0000     0.0000     0.0000     0.0000     0.0000     0.0000 </r>
      <r>     0.2065     0.0000     0.0000     0.0000     0.0000     0.0000     0.0000 </r>
      <r>     0.2323     0.0000     0.0000     0.0000     0.0000     0.0000     0.0000 </r>
      <r>     0.2581     0.0000     0.0000     0.0000     0.0000     0.0000     0.0000 </r>
      <r>     0.2839     0.0000     0.0000     0.0000     0.0000     0.0000     0.0000 </r>
      <r>     0.3097     0.0000     0.0000     0.0000     0.0000     0.0000     0.0000 </r>
      <r>     0.3355     0.0000     0.0000     0.0000     0.0000     0.0000     0.0000 </r>
      <r>     0.3613     0.0000     0.0000     0.0000     0.0000     0.0000     0.0000 </r>
      <r>     0.3871     0.0000     0.0000     0.0000     0.0000     0.0000     0.0000 </r>
      <r>     0.4129     0.0000     0.0000     0.0000     0.0000     0.0000     0.0000 </r>
      <r>     0.4387     0.0000     0.0000     0.0000     0.0000     0.0000     0.0000 </r>
      <r>     0.4645     0.0000     0.0000     0.0000     0.0000     0.0000     0.0000 </r>
      <r>     0.4904     0.0000     0.0000     0.0000     0.0000     0.0000     0.0000 </r>
      <r>     0.5162     0.0000     0.0000     0.0000     0.0000     0.0000     0.0000 </r>
      <r>     0.5420     0.0000     0.0000     0.0000     0.0000     0.0000     0.0000 </r>
      <r>     0.5678     0.0000     0.0000     0.0000     0.0000     0.0000     0.0000 </r>
      <r>     0.5936     0.0000     0.0000     0.0000     0.0000     0.0000     0.0000 </r>
      <r>     0.6194     0.0000     0.0000     0.0000     0.0000     0.0000     0.0000 </r>
      <r>     0.6452     0.0000     0.0000     0.0000     0.0000     0.0000     0.0000 </r>
      <r>     0.6710     0.0000     0.0000     0.0000     0.0000     0.0000     0.0000 </r>
      <r>     0.6968     0.0000     0.0000     0.0000     0.0000     0.0000     0.0000 </r>
      <r>     0.7226     0.0000     0.0000     0.0000     0.0000     0.0000     0.0000 </r>
      <r>     0.7484     0.0000     0.0000     0.0000     0.0000     0.0000     0.0000 </r>
      <r>     0.7742     0.0000     0.0000     0.0000     0.0000     0.0000     0.0000 </r>
      <r>     0.8001     0.0000     0.0000     0.0000     0.0000     0.0000     0.0000 </r>
      <r>     0.8259     0.0000     0.0000     0.0000     0.0000     0.0000     0.0000 </r>
      <r>     0.8517     0.0000     0.0000     0.0000     0.0000     0.0000     0.0000 </r>
      <r>     0.8775     0.0000     0.0000     0.0000     0.0000     0.0000     0.0000 </r>
      <r>     0.9033     0.0000     0.0000     0.0000     0.0000     0.0000     0.0000 </r>
      <r>     0.9291     0.0000     0.0000     0.0000     0.0000     0.0000     0.0000 </r>
      <r>     0.9549     0.0000     0.0000     0.0000     0.0000     0.0000     0.0000 </r>
      <r>     0.9807     0.0000     0.0000     0.0000     0.0000     0.0000     0.0000 </r>
      <r>     1.0065     0.0000     0.0000     0.0000     0.0000     0.0000     0.0000 </r>
      <r>     1.0323     0.0000     0.0000     0.0000     0.0000     0.0000     0.0000 </r>
      <r>     1.0581     0.0000     0.0000     0.0000     0.0000     0.0000     0.0000 </r>
      <r>     1.0839     0.0000     0.0000     0.0000     0.0000     0.0000     0.0000 </r>
      <r>     1.1098     0.0000     0.0000     0.0000     0.0000     0.0000     0.0000 </r>
      <r>     1.1356     0.0000     0.0000     0.0000     0.0000     0.0000     0.0000 </r>
      <r>     1.1614     0.0000     0.0000     0.0000     0.0000     0.0000     0.0000 </r>
      <r>     1.1872     0.0000     0.0000     0.0000     0.0000     0.0000     0.0000 </r>
      <r>     1.2130     0.0000     0.0000     0.0000     0.0000     0.0000     0.0000 </r>
      <r>     1.2388     0.0000     0.0000     0.0000     0.0000     0.0000     0.0000 </r>
      <r>     1.2646     0.0000     0.0000     0.0000     0.0000     0.0000     0.0000 </r>
      <r>     1.2904     0.0000     0.0000     0.0000     0.0000     0.0000     0.0000 </r>
      <r>     1.3162     0.0000     0.0000     0.0000     0.0000     0.0000     0.0000 </r>
      <r>     1.3420     0.0000     0.0000     0.0000     0.0000     0.0000     0.0000 </r>
      <r>     1.3678     0.0000     0.0000     0.0000     0.0000     0.0000     0.0000 </r>
      <r>     1.3936     0.0000     0.0000     0.0000     0.0000     0.0000     0.0000 </r>
      <r>     1.4195     0.0000     0.0000     0.0000     0.0000     0.0000     0.0000 </r>
      <r>     1.4453     0.0000     0.0000     0.0000     0.0000     0.0000     0.0000 </r>
      <r>     1.4711     0.0000     0.0000     0.0000     0.0000     0.0000     0.0000 </r>
      <r>     1.4969     0.0000     0.0000     0.0000     0.0000     0.0000     0.0000 </r>
      <r>     1.5227     0.0000     0.0000     0.0000     0.0000     0.0000     0.0000 </r>
      <r>     1.5485     0.0000     0.0000     0.0000     0.0000     0.0000     0.0000 </r>
      <r>     1.5743     0.0000     0.0000     0.0000     0.0000     0.0000     0.0000 </r>
      <r>     1.6001     0.0000     0.0000     0.0000     0.0000     0.0000     0.0000 </r>
      <r>     1.6259     0.0000     0.0000     0.0000     0.0000     0.0000     0.0000 </r>
      <r>     1.6517     0.0000     0.0000     0.0000     0.0000     0.0000     0.0000 </r>
      <r>     1.6775     0.0000     0.0000     0.0000     0.0000     0.0000     0.0000 </r>
      <r>     1.7033     0.0000     0.0000     0.0000     0.0000     0.0000     0.0000 </r>
      <r>     1.7292     0.0000     0.0000     0.0000     0.0000     0.0000     0.0000 </r>
      <r>     1.7550     0.0000     0.0000     0.0000     0.0000     0.0000     0.0000 </r>
      <r>     1.7808     0.0000     0.0000     0.0000     0.0000     0.0000     0.0000 </r>
      <r>     1.8066     0.0000     0.0000     0.0000     0.0000     0.0000     0.0000 </r>
      <r>     1.8324     0.0000     0.0000     0.0000     0.0000     0.0000     0.0000 </r>
      <r>     1.8582     0.0000     0.0000     0.0000     0.0000     0.0000     0.0000 </r>
      <r>     1.8840     0.0000     0.0000     0.0000     0.0000     0.0000     0.0000 </r>
      <r>     1.9098     0.0000     0.0000     0.0000     0.0000     0.0000     0.0000 </r>
      <r>     1.9356     0.0000     0.0000     0.0000     0.0000     0.0000     0.0000 </r>
      <r>     1.9614     0.0000     0.0000     0.0000     0.0000     0.0000     0.0000 </r>
      <r>     1.9872     0.0000     0.0000     0.0000     0.0000     0.0000     0.0000 </r>
      <r>     2.0130     0.0000     0.0000     0.0000     0.0000     0.0000     0.0000 </r>
      <r>     2.0389     0.0000     0.0000     0.0000     0.0000     0.0000     0.0000 </r>
      <r>     2.0647     0.0000     0.0000     0.0000     0.0000     0.0000     0.0000 </r>
      <r>     2.0905     0.0000     0.0000     0.0000     0.0000     0.0000     0.0000 </r>
      <r>     2.1163     0.0000     0.0000     0.0000     0.0000     0.0000     0.0000 </r>
      <r>     2.1421     0.0000     0.0000     0.0000     0.0000     0.0000     0.0000 </r>
      <r>     2.1679     0.0000     0.0000     0.0000     0.0000     0.0000     0.0000 </r>
      <r>     2.1937     0.0000     0.0000     0.0000     0.0000     0.0000     0.0000 </r>
      <r>     2.2195     0.0000     0.0000     0.0000     0.0000     0.0000     0.0000 </r>
      <r>     2.2453     0.0000     0.0000     0.0000     0.0000     0.0000     0.0000 </r>
      <r>     2.2711     0.0000     0.0000     0.0000     0.0000     0.0000     0.0000 </r>
      <r>     2.2969     0.0000     0.0000     0.0000     0.0000     0.0000     0.0000 </r>
      <r>     2.3227     0.0000     0.0000     0.0000     0.0000     0.0000     0.0000 </r>
      <r>     2.3486     0.0000     0.0000     0.0000     0.0000     0.0000     0.0000 </r>
      <r>     2.3744     0.0000     0.0000     0.0000     0.0000     0.0000     0.0000 </r>
      <r>     2.4002     0.0000     0.0000     0.0000     0.0000     0.0000     0.0000 </r>
      <r>     2.4260     0.0000     0.0000     0.0000     0.0000     0.0000     0.0000 </r>
      <r>     2.4518     0.0000     0.0000     0.0000     0.0000     0.0000     0.0000 </r>
      <r>     2.4776     0.0000     0.0000     0.0000     0.0000     0.0000     0.0000 </r>
      <r>     2.5034     0.0000     0.0000     0.0000     0.0000     0.0000     0.0000 </r>
      <r>     2.5292     0.0895     0.0895     0.0895     0.0000    -0.0000    -0.0000 </r>
      <r>     2.5550     0.5874     0.5874     0.5874     0.0000    -0.0000    -0.0000 </r>
      <r>     2.5808     1.5219     1.5219     1.5219     0.0000    -0.0000    -0.0000 </r>
      <r>     2.6066     2.8929     2.8930     2.8929     0.0000    -0.0000    -0.0000 </r>
      <r>     2.6324     4.7006     4.7006     4.7006     0.0000    -0.0000    -0.0000 </r>
      <r>     2.6582     7.0713     7.0713     7.0713     0.0000    -0.0000    -0.0000 </r>
      <r>     2.6841    10.1195    10.1196    10.1195     0.0000    -0.0000    -0.0000 </r>
      <r>     2.7099    13.8581    13.8581    13.8581     0.0000    -0.0000    -0.0000 </r>
      <r>     2.7357     8.1058     8.1058     8.1058     0.0000    -0.0000    -0.0000 </r>
      <r>     2.7615     7.5093     7.5093     7.5093     0.0000    -0.0000    -0.0000 </r>
      <r>     2.7873     8.7727     8.7727     8.7727     0.0000    -0.0000    -0.0000 </r>
      <r>     2.8131    10.0271    10.0272    10.0271     0.0000    -0.0000    -0.0000 </r>
      <r>     2.8389    11.2725    11.2725    11.2725     0.0000    -0.0000    -0.0000 </r>
      <r>     2.8647    12.5089    12.5089    12.5089     0.0000    -0.0000    -0.0000 </r>
      <r>     2.8905    13.7362    13.7362    13.7362     0.0000    -0.0000    -0.0000 </r>
      <r>     2.9163    14.9544    14.9545    14.9544     0.0000    -0.0000    -0.0000 </r>
      <r>     2.9421    16.1630    16.1630    16.1630     0.0000    -0.0000    -0.0000 </r>
      <r>     2.9679    17.3508    17.3508    17.3508     0.0000    -0.0000    -0.0000 </r>
      <r>     2.9938    18.5142    18.5142    18.5142     0.0000    -0.0000    -0.0000 </r>
      <r>     3.0196    19.6533    19.6533    19.6533     0.0000    -0.0000    -0.0000 </r>
      <r>     3.0454    20.7679    20.7679    20.7679     0.0000    -0.0000    -0.0000 </r>
      <r>     3.0712    21.8581    21.8581    21.8581     0.0000    -0.0000    -0.0000 </r>
      <r>     3.0970    22.9239    22.9239    22.9239     0.0000    -0.0000    -0.0000 </r>
      <r>     3.1228    23.9653    23.9653    23.9653     0.0000    -0.0000    -0.0000 </r>
      <r>     3.1486    24.9781    24.9781    24.9781     0.0000    -0.0000    -0.0000 </r>
      <r>     3.1744    25.9570    25.9570    25.9569     0.0000    -0.0000    -0.0000 </r>
      <r>     3.2002    26.9019    26.9019    26.9019     0.0000    -0.0000    -0.0000 </r>
      <r>     3.2260    27.8129    27.8129    27.8129     0.0000    -0.0000    -0.0000 </r>
      <r>     3.2518    28.7554    28.7554    28.7554     0.0000    -0.0000    -0.0000 </r>
      <r>     3.2776    29.6785    29.6785    29.6785     0.0000    -0.0000    -0.0000 </r>
      <r>     3.3035    30.7206    30.7206    30.7206     0.0000    -0.0000    -0.0000 </r>
      <r>     3.3293    31.9278    31.9278    31.9277     0.0000    -0.0000    -0.0000 </r>
      <r>     3.3551    33.3755    33.3755    33.3755     0.0000    -0.0000    -0.0000 </r>
      <r>     3.3809    34.8719    34.8719    34.8719     0.0000    -0.0000    -0.0000 </r>
      <r>     3.4067    36.4843    36.4844    36.4843     0.0000    -0.0000    -0.0000 </r>
      <r>     3.4325    37.6078    37.6079    37.6078     0.0000    -0.0000    -0.0000 </r>
      <r>     3.4583    38.6263    38.6263    38.6263     0.0000    -0.0000    -0.0000 </r>
      <r>     3.4841    37.1245    37.1245    37.1245     0.0000    -0.0000    -0.0000 </r>
      <r>     3.5099    38.4403    38.4403    38.4402     0.0000    -0.0000    -0.0000 </r>
      <r>     3.5357    39.4976    39.4977    39.4976     0.0000    -0.0000    -0.0000 </r>
      <r>     3.5615    40.5335    40.5336    40.5335     0.0000    -0.0000    -0.0000 </r>
      <r>     3.5873    41.6876    41.6876    41.6876     0.0000    -0.0000    -0.0000 </r>
      <r>     3.6132    42.9624    42.9624    42.9623     0.0000    -0.0000    -0.0000 </r>
      <r>     3.6390    44.8708    44.8708    44.8708     0.0000    -0.0000    -0.0000 </r>
      <r>     3.6648    46.3310    46.3310    46.3309     0.0000    -0.0000    -0.0000 </r>
      <r>     3.6906    45.9900    45.9901    45.9900     0.0000    -0.0000    -0.0000 </r>
      <r>     3.7164    44.9746    44.9746    44.9745     0.0000    -0.0000    -0.0000 </r>
      <r>     3.7422    43.6281    43.6281    43.6281     0.0000    -0.0000    -0.0000 </r>
      <r>     3.7680    42.1055    42.1056    42.1055     0.0000    -0.0000    -0.0000 </r>
      <r>     3.7938    40.9410    40.9410    40.9409     0.0000    -0.0000    -0.0000 </r>
      <r>     3.8196    40.1035    40.1035    40.1035     0.0000    -0.0000    -0.0000 </r>
      <r>     3.8454    39.3063    39.3063    39.3063     0.0000    -0.0000    -0.0000 </r>
      <r>     3.8712    38.5217    38.5217    38.5217     0.0000    -0.0000    -0.0000 </r>
      <r>     3.8970    37.7497    37.7497    37.7497     0.0000    -0.0000    -0.0000 </r>
      <r>     3.9229    36.9903    36.9903    36.9903     0.0000    -0.0000    -0.0000 </r>
      <r>     3.9487    36.2448    36.2448    36.2448     0.0000    -0.0000    -0.0000 </r>
      <r>     3.9745    35.5079    35.5080    35.5079     0.0000    -0.0000    -0.0000 </r>
      <r>     4.0003    34.7643    34.7643    34.7643     0.0000    -0.0000    -0.0000 </r>
      <r>     4.0261    34.0179    34.0179    34.0179     0.0000    -0.0000    -0.0000 </r>
      <r>     4.0519    33.2848    33.2849    33.2848     0.0000    -0.0000    -0.0000 </r>
      <r>     4.0777    32.5630    32.5631    32.5630     0.0000    -0.0000    -0.0000 </r>
      <r>     4.1035    31.8507    31.8507    31.8507     0.0000    -0.0000    -0.0000 </r>
      <r>     4.1293    31.1477    31.1478    31.1477     0.0000    -0.0000    -0.0000 </r>
      <r>     4.1551    30.4542    30.4542    30.4542     0.0000    -0.0000    -0.0000 </r>
      <r>     4.1809    29.7701    29.7702    29.7701     0.0000    -0.0000    -0.0000 </r>
      <r>     4.2067    29.0955    29.0955    29.0955     0.0000    -0.0000    -0.0000 </r>
      <r>     4.2326    28.4370    28.4370    28.4369     0.0000    -0.0000    -0.0000 </r>
      <r>     4.2584    27.7914    27.7915    27.7914     0.0000    -0.0000    -0.0000 </r>
      <r>     4.2842    27.1671    27.1671    27.1670     0.0000    -0.0000    -0.0000 </r>
      <r>     4.3100    26.5770    26.5770    26.5770     0.0000    -0.0000    -0.0000 </r>
      <r>     4.3358    26.0213    26.0213    26.0213     0.0000    -0.0000    -0.0000 </r>
      <r>     4.3616    25.4999    25.5000    25.4999     0.0000    -0.0000    -0.0000 </r>
      <r>     4.3874    25.0129    25.0129    25.0129     0.0000    -0.0000    -0.0000 </r>
      <r>     4.4132    24.4808    24.4808    24.4808     0.0000    -0.0000    -0.0000 </r>
      <r>     4.4390    23.9079    23.9079    23.9078     0.0000    -0.0000    -0.0000 </r>
      <r>     4.4648    23.3408    23.3408    23.3408     0.0000    -0.0000    -0.0000 </r>
      <r>     4.4906    22.9383    22.9383    22.9383     0.0000    -0.0000    -0.0000 </r>
      <r>     4.5164    22.6131    22.6132    22.6131     0.0000    -0.0000    -0.0000 </r>
      <r>     4.5423    22.2906    22.2906    22.2906     0.0000    -0.0000    -0.0000 </r>
      <r>     4.5681    21.9330    21.9331    21.9330     0.0000    -0.0000    -0.0000 </r>
      <r>     4.5939    21.5638    21.5638    21.5638     0.0000    -0.0000    -0.0000 </r>
      <r>     4.6197    21.2075    21.2075    21.2075     0.0000    -0.0000    -0.0000 </r>
      <r>     4.6455    20.8671    20.8671    20.8671     0.0000    -0.0000    -0.0000 </r>
      <r>     4.6713    20.5661    20.5661    20.5661     0.0000    -0.0000    -0.0000 </r>
      <r>     4.6971    20.3086    20.3087    20.3086     0.0000    -0.0000    -0.0000 </r>
      <r>     4.7229    20.0946    20.0946    20.0946     0.0000    -0.0000    -0.0000 </r>
      <r>     4.7487    19.8502    19.8502    19.8502     0.0000    -0.0000    -0.0000 </r>
      <r>     4.7745    19.5824    19.5824    19.5824     0.0000    -0.0000    -0.0000 </r>
      <r>     4.8003    19.3117    19.3117    19.3116     0.0000    -0.0000    -0.0000 </r>
      <r>     4.8261    19.0455    19.0455    19.0455     0.0000    -0.0000    -0.0000 </r>
      <r>     4.8519    18.7990    18.7991    18.7990     0.0000    -0.0000    -0.0000 </r>
      <r>     4.8778    18.5728    18.5728    18.5728     0.0000    -0.0000    -0.0000 </r>
      <r>     4.9036    18.6701    18.6701    18.6701     0.0000    -0.0000    -0.0000 </r>
      <r>     4.9294    19.0141    19.0142    19.0141     0.0000    -0.0000    -0.0000 </r>
      <r>     4.9552    19.0461    19.0461    19.0461     0.0000    -0.0000    -0.0000 </r>
      <r>     4.9810    19.0227    19.0227    19.0227     0.0000    -0.0000    -0.0000 </r>
      <r>     5.0068    18.8303    18.8303    18.8303     0.0000    -0.0000    -0.0000 </r>
      <r>     5.0326    18.2580    18.2580    18.2580     0.0000    -0.0000    -0.0000 </r>
      <r>     5.0584    17.7299    17.7300    17.7299     0.0000    -0.0000    -0.0000 </r>
      <r>     5.0842    17.2463    17.2463    17.2463     0.0000    -0.0000    -0.0000 </r>
      <r>     5.1100    16.8062    16.8062    16.8062     0.0000    -0.0000    -0.0000 </r>
      <r>     5.1358    16.3890    16.3890    16.3890     0.0000    -0.0000    -0.0000 </r>
      <r>     5.1616    15.9979    15.9979    15.9979     0.0000    -0.0000    -0.0000 </r>
      <r>     5.1875    15.7858    15.7858    15.7858     0.0000    -0.0000    -0.0000 </r>
      <r>     5.2133    15.8035    15.8036    15.8035     0.0000    -0.0000    -0.0000 </r>
      <r>     5.2391    16.0549    16.0549    16.0549     0.0000    -0.0000    -0.0000 </r>
      <r>     5.2649    16.5614    16.5614    16.5614     0.0000    -0.0000    -0.0000 </r>
      <r>     5.2907    14.4737    14.4737    14.4737     0.0000    -0.0000    -0.0000 </r>
      <r>     5.3165    12.6483    12.6483    12.6483     0.0000    -0.0000    -0.0000 </r>
      <r>     5.3423    11.6444    11.6444    11.6444     0.0000    -0.0000    -0.0000 </r>
      <r>     5.3681    10.7738    10.7739    10.7738     0.0000    -0.0000    -0.0000 </r>
      <r>     5.3939    10.0795    10.0796    10.0795     0.0000    -0.0000    -0.0000 </r>
      <r>     5.4197     9.5073     9.5074     9.5073     0.0000    -0.0000    -0.0000 </r>
      <r>     5.4455     9.4036     9.4037     9.4036     0.0000    -0.0000    -0.0000 </r>
      <r>     5.4713     9.2835     9.2835     9.2835     0.0000    -0.0000    -0.0000 </r>
      <r>     5.4972     9.1495     9.1495     9.1495     0.0000    -0.0000    -0.0000 </r>
      <r>     5.5230     9.0142     9.0142     9.0142     0.0000    -0.0000    -0.0000 </r>
      <r>     5.5488     8.8782     8.8782     8.8782     0.0000    -0.0000    -0.0000 </r>
      <r>     5.5746     8.7387     8.7387     8.7387     0.0000    -0.0000    -0.0000 </r>
      <r>     5.6004     8.5961     8.5961     8.5961     0.0000    -0.0000    -0.0000 </r>
      <r>     5.6262     8.4853     8.4854     8.4853     0.0000    -0.0000    -0.0000 </r>
      <r>     5.6520     8.3732     8.3732     8.3732     0.0000    -0.0000    -0.0000 </r>
      <r>     5.6778     8.2592     8.2592     8.2592     0.0000    -0.0000    -0.0000 </r>
      <r>     5.7036     8.1463     8.1463     8.1463     0.0000    -0.0000    -0.0000 </r>
      <r>     5.7294     8.0375     8.0375     8.0375     0.0000    -0.0000    -0.0000 </r>
      <r>     5.7552     7.9400     7.9400     7.9400     0.0000    -0.0000    -0.0000 </r>
      <r>     5.7810     7.8396     7.8396     7.8396     0.0000    -0.0000    -0.0000 </r>
      <r>     5.8069     7.7366     7.7366     7.7366     0.0000    -0.0000    -0.0000 </r>
      <r>     5.8327     7.6309     7.6309     7.6309     0.0000    -0.0000    -0.0000 </r>
      <r>     5.8585     7.5225     7.5225     7.5225     0.0000    -0.0000    -0.0000 </r>
      <r>     5.8843     7.4116     7.4116     7.4116     0.0000    -0.0000    -0.0000 </r>
      <r>     5.9101     7.3022     7.3022     7.3022     0.0000    -0.0000    -0.0000 </r>
      <r>     5.9359     7.2218     7.2218     7.2218     0.0000    -0.0000    -0.0000 </r>
      <r>     5.9617     7.1379     7.1379     7.1379     0.0000    -0.0000    -0.0000 </r>
      <r>     5.9875     7.0464     7.0464     7.0464     0.0000    -0.0000    -0.0000 </r>
      <r>     6.0133     6.9463     6.9463     6.9463     0.0000    -0.0000    -0.0000 </r>
      <r>     6.0391     6.8450     6.8450     6.8450     0.0000    -0.0000    -0.0000 </r>
      <r>     6.0649     6.7444     6.7444     6.7444     0.0000    -0.0000    -0.0000 </r>
      <r>     6.0907     6.6429     6.6429     6.6429     0.0000    -0.0000    -0.0000 </r>
      <r>     6.1166     6.5377     6.5377     6.5377     0.0000    -0.0000    -0.0000 </r>
      <r>     6.1424     6.3975     6.3975     6.3975     0.0000    -0.0000    -0.0000 </r>
      <r>     6.1682     6.2711     6.2711     6.2711     0.0000    -0.0000    -0.0000 </r>
      <r>     6.1940     6.1366     6.1366     6.1366     0.0000    -0.0000    -0.0000 </r>
      <r>     6.2198     5.9953     5.9953     5.9953     0.0000    -0.0000    -0.0000 </r>
      <r>     6.2456     5.8538     5.8538     5.8538     0.0000    -0.0000    -0.0000 </r>
      <r>     6.2714     5.6949     5.6949     5.6949     0.0000    -0.0000    -0.0000 </r>
      <r>     6.2972     5.4947     5.4947     5.4947     0.0000    -0.0000    -0.0000 </r>
      <r>     6.3230     5.2523     5.2523     5.2523     0.0000    -0.0000    -0.0000 </r>
      <r>     6.3488     5.0981     5.0981     5.0981     0.0000    -0.0000    -0.0000 </r>
      <r>     6.3746     4.9888     4.9888     4.9888     0.0000    -0.0000    -0.0000 </r>
      <r>     6.4004     4.9072     4.9072     4.9072     0.0000    -0.0000    -0.0000 </r>
      <r>     6.4263     4.8195     4.8195     4.8195     0.0000    -0.0000    -0.0000 </r>
[...]
       </set>
       <set comment="band 12">
        <r>  0.0080  0.0510  0.0154  0.0068  0.0000  0.0000  0.0000  0.0000  0.0000 </r>
        <r>  0.0080  0.0510  0.0154  0.0068  0.0000  0.0000  0.0000  0.0000  0.0000 </r>
       </set>
       <set comment="band 13">
        <r>  0.0126  0.0333  0.0301  0.0221  0.0000  0.0000  0.0000  0.0000  0.0000 </r>
        <r>  0.0126  0.0333  0.0301  0.0221  0.0000  0.0000  0.0000  0.0000  0.0000 </r>
       </set>
       <set comment="band 14">
        <r>  0.0152  0.0001  0.0042  0.1037  0.0000  0.0000  0.0000  0.0000  0.0000 </r>
        <r>  0.0152  0.0001  0.0042  0.1037  0.0000  0.0000  0.0000  0.0000  0.0000 </r>
       </set>
       <set comment="band 15">
        <r>  0.0126  0.0016  0.0090  0.0104  0.0000  0.0000  0.0000  0.0000  0.0000 </r>
        <r>  0.0126  0.0016  0.0090  0.0104  0.0000  0.0000  0.0000  0.0000  0.0000 </r>
       </set>
       <set comment="band 16">
        <r>  0.0249  0.0028  0.0045  0.0089  0.0000  0.0000  0.0000  0.0000  0.0000 </r>
        <r>  0.0249  0.0028  0.0045  0.0089  0.0000  0.0000  0.0000  0.0000  0.0000 </r>
       </set>
       <set comment="band 17">
        <r>  0.0054  0.0725  0.0143  0.0121  0.0000  0.0000  0.0000  0.0000  0.0000 </r>
        <r>  0.0054  0.0725  0.0143  0.0121  0.0000  0.0000  0.0000  0.0000  0.0000 </r>
       </set>
       <set comment="band 18">
        <r>  0.0155  0.0281  0.0002  0.0393  0.0000  0.0000  0.0000  0.0000  0.0000 </r>
        <r>  0.0155  0.0281  0.0002  0.0393  0.0000  0.0000  0.0000  0.0000  0.0000 </r>
       </set>
       <set comment="band 19">
        <r>  0.0089  0.0072  0.0277  0.0013  0.0000  0.0000  0.0000  0.0000  0.0000 </r>
        <r>  0.0089  0.0072  0.0277  0.0013  0.0000  0.0000  0.0000  0.0000  0.0000 </r>
       </set>
       <set comment="band 20">
        <r>  0.0096  0.0186  0.0451  0.0009  0.0000  0.0000  0.0000  0.0000  0.0000 </r>
        <r>  0.0096  0.0186  0.0451  0.0009  0.0000  0.0000  0.0000  0.0000  0.0000 </r>
       </set>
       <set comment="band 21">
        <r>  0.0163  0.0166  0.0001  0.0149  0.0000  0.0000  0.0000  0.0000  0.0000 </r>
        <r>  0.0163  0.0166  0.0001  0.0149  0.0000  0.0000  0.0000  0.0000  0.0000 </r>
       </set>
       <set comment="band 22">
        <r>  0.0039  0.0062  0.0018  0.0027  0.0000  0.0000  0.0000  0.0000  0.0000 </r>
        <r>  0.0039  0.0062  0.0018  0.0027  0.0000  0.0000  0.0000  0.0000  0.0000 </r>
       </set>
       <set comment="band 23">
        <r>  0.0109  0.0276  0.0359  0.0006  0.0000  0.0000  0.0000  0.0000  0.0000 </r>
        <r>  0.0109  0.0276  0.0359  0.0006  0.0000  0.0000  0.0000  0.0000  0.0000 </r>
       </set>
       <set comment="band 24">
        <r>  0.0014  0.0069  0.0037  0.0079  0.0000  0.0000  0.0000  0.0000  0.0000 </r>
        <r>  0.0014  0.0066  0.0034  0.0079  0.0000  0.0000  0.0000  0.0000  0.0000 </r>
       </set>
      </set>
      <set comment="kpoint 27">
       <set comment="band 1">
        <r>  0.2110  0.0145  0.0022  0.0111  0.0000  0.0000  0.0000  0.0000  0.0000 </r>
        <r>  0.2110  0.0145  0.0022  0.0111  0.0000  0.0000  0.0000  0.0000  0.0000 </r>
       </set>
       <set comment="band 2">
        <r>  0.1798  0.0285  0.0023  0.0320  0.0000  0.0000  0.0000  0.0000  0.0000 </r>
        <r>  0.1798  0.0285  0.0023  0.0320  0.0000  0.0000  0.0000  0.0000  0.0000 </r>
       </set>
       <set comment="band 3">
        <r>  0.0065  0.0780  0.0009  0.0720  0.0000  0.0000  0.0000  0.0000  0.0000 </r>
        <r>  0.0065  0.0780  0.0009  0.0720  0.0000  0.0000  0.0000  0.0000  0.0000 </r>
       </set>
       <set comment="band 4">
        <r>  0.0038  0.0066  0.1600  0.0129  0.0000  0.0000  0.0000  0.0000  0.0000 </r>
        <r>  0.0038  0.0066  0.1600  0.0129  0.0000  0.0000  0.0000  0.0000  0.0000 </r>
       </set>
       <set comment="band 5">
        <r>  0.0377  0.0137  0.0413  0.0219  0.0000  0.0000  0.0000  0.0000  0.0000 </r>
        <r>  0.0377  0.0137  0.0413  0.0219  0.0000  0.0000  0.0000  0.0000  0.0000 </r>
       </set>
       <set comment="band 6">
        <r>  0.0179  0.0113  0.0762  0.0198  0.0000  0.0000  0.0000  0.0000  0.0000 </r>
        <r>  0.0179  0.0113  0.0762  0.0198  0.0000  0.0000  0.0000  0.0000  0.0000 </r>
       </set>
       <set comment="band 7">
        <r>  0.0448  0.0450  0.0010  0.0363  0.0000  0.0000  0.0000  0.0000  0.0000 </r>
        <r>  0.0448  0.0450  0.0010  0.0363  0.0000  0.0000  0.0000  0.0000  0.0000 </r>
       </set>
       <set comment="band 8">
        <r>  0.0182  0.0588  0.0064  0.0364  0.0000  0.0000  0.0000  0.0000  0.0000 </r>
        <r>  0.0182  0.0588  0.0064  0.0364  0.0000  0.0000  0.0000  0.0000  0.0000 </r>
       </set>
       <set comment="band 9">
        <r>  0.0136  0.0335  0.0612  0.0611  0.0000  0.0000  0.0000  0.0000  0.0000 </r>
        <r>  0.0136  0.0335  0.0612  0.0611  0.0000  0.0000  0.0000  0.0000  0.0000 </r>
       </set>
       <set comment="band 10">
        <r>  0.0293  0.0439  0.0118  0.0258  0.0000  0.0000  0.0000  0.0000  0.0000 </r>
        <r>  0.0293  0.0439  0.0118  0.0258  0.0000  0.0000  0.0000  0.0000  0.0000 </r>
       </set>
       <set comment="band 11">
        <r>  0.0171  0.0036  0.0040  0.0072  0.0000  0.0000  0.0000  0.0000  0.0000 </r>
        <r>  0.0171  0.0036  0.0040  0.0072  0.0000  0.0000  0.0000  0.0000  0.0000 </r>
       </set>
       <set comment="band 12">
        <r>  0.0010  0.0628  0.0020  0.0806  0.0000  0.0000  0.0000  0.0000  0.0000 </r>
        <r>  0.0010  0.0628  0.0020  0.0806  0.0000  0.0000  0.0000  0.0000  0.0000 </r>
       </set>
       <set comment="band 13">
        <r>  0.0064  0.0249  0.0289  0.0224  0.0000  0.0000  0.0000  0.0000  0.0000 </r>
        <r>  0.0064  0.0249  0.0289  0.0224  0.0000  0.0000  0.0000  0.0000  0.0000 </r>
       </set>
       <set comment="band 14">
        <r>  0.0153  0.0671  0.0013  0.0386  0.0000  0.0000  0.0000  0.0000  0.0000 </r>
        <r>  0.0153  0.0671  0.0013  0.0386  0.0000  0.0000  0.0000  0.0000  0.0000 </r>
       </set>
       <set comment="band 15">
        <r>  0.0343  0.0058  0.0420  0.0036  0.0000  0.0000  0.0000  0.0000  0.0000 </r>
        <r>  0.0343  0.0058  0.0420  0.0036  0.0000  0.0000  0.0000  0.0000  0.0000 </r>
       </set>
       <set comment="band 16">
        <r>  0.0102  0.0242  0.0009  0.0402  0.0000  0.0000  0.0000  0.0000  0.0000 </r>
        <r>  0.0102  0.0242  0.0009  0.0402  0.0000  0.0000  0.0000  0.0000  0.0000 </r>
       </set>
       <set comment="band 17">
        <r>  0.0029  0.0268  0.0033  0.0155  0.0000  0.0000  0.0000  0.0000  0.0000 </r>
        <r>  0.0029  0.0268  0.0033  0.0155  0.0000  0.0000  0.0000  0.0000  0.0000 </r>
       </set>
       <set comment="band 18">
        <r>  0.0086  0.0289  0.0400  0.0484  0.0000  0.0000  0.0000  0.0000  0.0000 </r>
        <r>  0.0086  0.0289  0.0400  0.0484  0.0000  0.0000  0.0000  0.0000  0.0000 </r>
       </set>
       <set comment="band 19">
        <r>  0.0068  0.0065  0.0133  0.0033  0.0000  0.0000  0.0000  0.0000  0.0000 </r>
        <r>  0.0068  0.0065  0.0133  0.0033  0.0000  0.0000  0.0000  0.0000  0.0000 </r>
       </set>
       <set comment="band 20">
        <r>  0.0176  0.0101  0.0074  0.0074  0.0000  0.0000  0.0000  0.0000  0.0000 </r>
        <r>  0.0176  0.0101  0.0074  0.0074  0.0000  0.0000  0.0000  0.0000  0.0000 </r>
       </set>
       <set comment="band 21">
        <r>  0.0084  0.0034  0.0336  0.0036  0.0000  0.0000  0.0000  0.0000  0.0000 </r>
        <r>  0.0084  0.0034  0.0336  0.0036  0.0000  0.0000  0.0000  0.0000  0.0000 </r>
       </set>
       <set comment="band 22">
        <r>  0.0079  0.0018  0.0030  0.0009  0.0000  0.0000  0.0000  0.0000  0.0000 </r>
        <r>  0.0079  0.0018  0.0030  0.0009  0.0000  0.0000  0.0000  0.0000  0.0000 </r>
       </set>
       <set comment="band 23">
        <r>  0.0060  0.0193  0.0482  0.0115  0.0000  0.0000  0.0000  0.0000  0.0000 </r>
        <r>  0.0060  0.0193  0.0482  0.0115  0.0000  0.0000  0.0000  0.0000  0.0000 </r>
       </set>
       <set comment="band 24">
        <r>  0.0371  0.0021  0.0056  0.0016  0.0000  0.0000  0.0000  0.0000  0.0000 </r>
        <r>  0.0371  0.0021  0.0057  0.0015  0.0000  0.0000  0.0000  0.0000  0.0000 </r>
       </set>
      </set>
      <set comment="kpoint 28">
       <set comment="band 1">
        <r>  0.1985  0.0145  0.0028  0.0263  0.0000  0.0000  0.0000  0.0000  0.0000 </r>
        <r>  0.1984  0.0145  0.0028  0.0263  0.0000  0.0000  0.0000  0.0000  0.0000 </r>
       </set>
       <set comment="band 2">
        <r>  0.1984  0.0145  0.0019  0.0272  0.0000  0.0000  0.0000  0.0000  0.0000 </r>
        <r>  0.1985  0.0145  0.0019  0.0272  0.0000  0.0000  0.0000  0.0000  0.0000 </r>
       </set>
       <set comment="band 3">
        <r>  0.0028  0.0627  0.0369  0.0703  0.0000  0.0000  0.0000  0.0000  0.0000 </r>
        <r>  0.0029  0.0627  0.0369  0.0703  0.0000  0.0000  0.0000  0.0000  0.0000 </r>
       </set>
       <set comment="band 4">
        <r>  0.0029  0.0506  0.1165  0.0029  0.0000  0.0000  0.0000  0.0000  0.0000 </r>
        <r>  0.0028  0.0506  0.1165  0.0029  0.0000  0.0000  0.0000  0.0000  0.0000 </r>
       </set>
       <set comment="band 5">
        <r>  0.0398  0.0350  0.0007  0.0305  0.0000  0.0000  0.0000  0.0000  0.0000 </r>
        <r>  0.0397  0.0350  0.0007  0.0305  0.0000  0.0000  0.0000  0.0000  0.0000 </r>
       </set>
       <set comment="band 6">
        <r>  0.0397  0.0091  0.0412  0.0158  0.0000  0.0000  0.0000  0.0000  0.0000 </r>
        <r>  0.0398  0.0091  0.0412  0.0158  0.0000  0.0000  0.0000  0.0000  0.0000 </r>
       </set>
       <set comment="band 7">
        <r>  0.0212  0.0649  0.0544  0.0052  0.0000  0.0000  0.0000  0.0000  0.0000 </r>
        <r>  0.0213  0.0649  0.0544  0.0052  0.0000  0.0000  0.0000  0.0000  0.0000 </r>
       </set>
       <set comment="band 8">
        <r>  0.0213  0.0181  0.0413  0.0651  0.0000  0.0000  0.0000  0.0000  0.0000 </r>
        <r>  0.0212  0.0181  0.0412  0.0651  0.0000  0.0000  0.0000  0.0000  0.0000 </r>
       </set>
       <set comment="band 9">
        <r>  0.0005  0.0600  0.0494  0.0145  0.0000  0.0000  0.0000  0.0000  0.0000 </r>
        <r>  0.0004  0.0607  0.0502  0.0152  0.0000  0.0000  0.0000  0.0000  0.0000 </r>
       </set>
       <set comment="band 10">
        <r>  0.0004  0.0234  0.0548  0.0480  0.0000  0.0000  0.0000  0.0000  0.0000 </r>
        <r>  0.0005  0.0226  0.0540  0.0473  0.0000  0.0000  0.0000  0.0000  0.0000 </r>
       </set>
       <set comment="band 11">
        <r>  0.0246  0.0317  0.0083  0.0547  0.0000  0.0000  0.0000  0.0000  0.0000 </r>
        <r>  0.0244  0.0320  0.0083  0.0552  0.0000  0.0000  0.0000  0.0000  0.0000 </r>
       </set>
       <set comment="band 12">
        <r>  0.0244  0.0317  0.0069  0.0570  0.0000  0.0000  0.0000  0.0000  0.0000 </r>
        <r>  0.0246  0.0314  0.0069  0.0564  0.0000  0.0000  0.0000  0.0000  0.0000 </r>
       </set>
       <set comment="band 13">
        <r>  0.0112  0.0661  0.0239  0.0291  0.0000  0.0000  0.0000  0.0000  0.0000 </r>
        <r>  0.0112  0.0661  0.0239  0.0291  0.0000  0.0000  0.0000  0.0000  0.0000 </r>
       </set>
       <set comment="band 14">
        <r>  0.0112  0.0133  0.0141  0.0918  0.0000  0.0000  0.0000  0.0000  0.0000 </r>
        <r>  0.0112  0.0133  0.0141  0.0918  0.0000  0.0000  0.0000  0.0000  0.0000 </r>
       </set>
       <set comment="band 15">
        <r>  0.0030  0.0035  0.0094  0.0062  0.0000  0.0000  0.0000  0.0000  0.0000 </r>
        <r>  0.0030  0.0035  0.0094  0.0062  0.0000  0.0000  0.0000  0.0000  0.0000 </r>
       </set>
       <set comment="band 16">
        <r>  0.0030  0.0093  0.0042  0.0056  0.0000  0.0000  0.0000  0.0000  0.0000 </r>
        <r>  0.0030  0.0093  0.0042  0.0056  0.0000  0.0000  0.0000  0.0000  0.0000 </r>
       </set>
       <set comment="band 17">
        <r>  0.0335  0.0127  0.0031  0.0037  0.0000  0.0000  0.0000  0.0000  0.0000 </r>
        <r>  0.0337  0.0127  0.0031  0.0037  0.0000  0.0000  0.0000  0.0000  0.0000 </r>
       </set>
       <set comment="band 18">
        <r>  0.0336  0.0003  0.0126  0.0067  0.0000  0.0000  0.0000  0.0000  0.0000 </r>
        <r>  0.0335  0.0003  0.0126  0.0067  0.0000  0.0000  0.0000  0.0000  0.0000 </r>
       </set>
       <set comment="band 19">
        <r>  0.0007  0.0400  0.0000  0.0200  0.0000  0.0000  0.0000  0.0000  0.0000 </r>
        <r>  0.0007  0.0400  0.0000  0.0200  0.0000  0.0000  0.0000  0.0000  0.0000 </r>
       </set>
       <set comment="band 20">
        <r>  0.0007  0.0000  0.0598  0.0002  0.0000  0.0000  0.0000  0.0000  0.0000 </r>
        <r>  0.0007  0.0000  0.0598  0.0002  0.0000  0.0000  0.0000  0.0000  0.0000 </r>
       </set>
       <set comment="band 21">
        <r>  0.0326  0.0292  0.0008  0.0210  0.0000  0.0000  0.0000  0.0000  0.0000 </r>
        <r>  0.0267  0.0299  0.0001  0.0232  0.0000  0.0000  0.0000  0.0000  0.0000 </r>
       </set>
       <set comment="band 22">
        <r>  0.0267  0.0056  0.0335  0.0142  0.0000  0.0000  0.0000  0.0000  0.0000 </r>
        <r>  0.0326  0.0048  0.0342  0.0121  0.0000  0.0000  0.0000  0.0000  0.0000 </r>
       </set>
       <set comment="band 23">
        <r>  0.0006  0.0057  0.0026  0.0027  0.0000  0.0000  0.0000  0.0000  0.0000 </r>
        <r>  0.0004  0.0050  0.0016  0.0024  0.0000  0.0000  0.0000  0.0000  0.0000 </r>
       </set>
       <set comment="band 24">
        <r>  0.0004  0.0010  0.0074  0.0006  0.0000  0.0000  0.0000  0.0000  0.0000 </r>
        <r>  0.0006  0.0017  0.0084  0.0010  0.0000  0.0000  0.0000  0.0000  0.0000 </r>
       </set>
      </set>
      <set comment="kpoint 29">
       <set comment="band 1">
        <r>  0.2051  0.0139  0.0104  0.0174  0.0000  0.0000  0.0000  0.0000  0.0000 </r>
        <r>  0.2050  0.0139  0.0104  0.0174  0.0000  0.0000  0.0000  0.0000  0.0000 </r>
       </set>
       <set comment="band 2">
        <r>  0.2050  0.0139  0.0104  0.0174  0.0000  0.0000  0.0000  0.0000  0.0000 </r>
        <r>  0.2051  0.0139  0.0104  0.0174  0.0000  0.0000  0.0000  0.0000  0.0000 </r>
       </set>
       <set comment="band 3">
        <r>  0.0000  0.0017  0.1034  0.0540  0.0000  0.0000  0.0000  0.0000  0.0000 </r>
        <r>  0.0000  0.0016  0.1034  0.0540  0.0000  0.0000  0.0000  0.0000  0.0000 </r>
       </set>
       <set comment="band 4">
        <r>  0.0000  0.1044  0.0102  0.0444  0.0000  0.0000  0.0000  0.0000  0.0000 </r>
        <r>  0.0000  0.1044  0.0102  0.0444  0.0000  0.0000  0.0000  0.0000  0.0000 </r>
       </set>
       <set comment="band 5">
        <r>  0.0000  0.0321  0.0409  0.0143  0.0000  0.0000  0.0000  0.0000  0.0000 </r>
        <r>  0.0000  0.0321  0.0409  0.0143  0.0000  0.0000  0.0000  0.0000  0.0000 </r>
       </set>
       <set comment="band 6">
        <r>  0.0000  0.0261  0.0464  0.0149  0.0000  0.0000  0.0000  0.0000  0.0000 </r>
        <r>  0.0000  0.0261  0.0463  0.0149  0.0000  0.0000  0.0000  0.0000  0.0000 </r>
       </set>
       <set comment="band 7">
        <r>  0.0619  0.0344  0.0258  0.0430  0.0000  0.0000  0.0000  0.0000  0.0000 </r>
        <r>  0.0619  0.0344  0.0258  0.0431  0.0000  0.0000  0.0000  0.0000  0.0000 </r>
       </set>
       <set comment="band 8">
        <r>  0.0619  0.0344  0.0258  0.0431  0.0000  0.0000  0.0000  0.0000  0.0000 </r>
        <r>  0.0619  0.0344  0.0258  0.0430  0.0000  0.0000  0.0000  0.0000  0.0000 </r>
       </set>
       <set comment="band 9">
        <r>  0.0000  0.0851  0.0073  0.0431  0.0000  0.0000  0.0000  0.0000  0.0000 </r>
        <r>  0.0000  0.0854  0.0074  0.0437  0.0000  0.0000  0.0000  0.0000  0.0000 </r>
       </set>
       <set comment="band 10">
        <r>  0.0000  0.0056  0.0799  0.0510  0.0000  0.0000  0.0000  0.0000  0.0000 </r>
        <r>  0.0000  0.0052  0.0798  0.0504  0.0000  0.0000  0.0000  0.0000  0.0000 </r>
       </set>
       <set comment="band 11">
        <r>  0.0260  0.0349  0.0262  0.0436  0.0000  0.0000  0.0000  0.0000  0.0000 </r>
        <r>  0.0251  0.0361  0.0271  0.0452  0.0000  0.0000  0.0000  0.0000  0.0000 </r>
       </set>
       <set comment="band 12">
        <r>  0.0251  0.0361  0.0271  0.0452  0.0000  0.0000  0.0000  0.0000  0.0000 </r>
        <r>  0.0260  0.0349  0.0262  0.0436  0.0000  0.0000  0.0000  0.0000  0.0000 </r>
       </set>
       <set comment="band 13">
        <r>  0.0000  0.0149  0.0033  0.0112  0.0000  0.0000  0.0000  0.0000  0.0000 </r>
        <r>  0.0000  0.0149  0.0033  0.0112  0.0000  0.0000  0.0000  0.0000  0.0000 </r>
       </set>
       <set comment="band 14">
        <r>  0.0000  0.0046  0.0126  0.0121  0.0000  0.0000  0.0000  0.0000  0.0000 </r>
        <r>  0.0000  0.0046  0.0126  0.0121  0.0000  0.0000  0.0000  0.0000  0.0000 </r>
       </set>
       <set comment="band 15">
        <r>  0.0296  0.0077  0.0057  0.0096  0.0000  0.0000  0.0000  0.0000  0.0000 </r>
        <r>  0.0296  0.0077  0.0057  0.0096  0.0000  0.0000  0.0000  0.0000  0.0000 </r>
       </set>
       <set comment="band 16">
        <r>  0.0296  0.0077  0.0057  0.0096  0.0000  0.0000  0.0000  0.0000  0.0000 </r>
        <r>  0.0296  0.0077  0.0057  0.0096  0.0000  0.0000  0.0000  0.0000  0.0000 </r>
       </set>
       <set comment="band 17">
        <r>  0.0000  0.0902  0.0077  0.0422  0.0000  0.0000  0.0000  0.0000  0.0000 </r>
        <r>  0.0000  0.0902  0.0077  0.0422  0.0000  0.0000  0.0000  0.0000  0.0000 </r>
       </set>
       <set comment="band 18">
        <r>  0.0000  0.0032  0.0865  0.0503  0.0000  0.0000  0.0000  0.0000  0.0000 </r>
        <r>  0.0000  0.0032  0.0865  0.0503  0.0000  0.0000  0.0000  0.0000  0.0000 </r>
       </set>
       <set comment="band 19">
        <r>  0.0248  0.0070  0.0052  0.0087  0.0000  0.0000  0.0000  0.0000  0.0000 </r>
        <r>  0.0235  0.0074  0.0055  0.0092  0.0000  0.0000  0.0000  0.0000  0.0000 </r>
       </set>
       <set comment="band 20">
        <r>  0.0235  0.0074  0.0055  0.0092  0.0000  0.0000  0.0000  0.0000  0.0000 </r>
        <r>  0.0248  0.0070  0.0052  0.0087  0.0000  0.0000  0.0000  0.0000  0.0000 </r>
       </set>
       <set comment="band 21">
        <r>  0.0000  0.0292  0.0183  0.0049  0.0000  0.0000  0.0000  0.0000  0.0000 </r>
        <r>  0.0000  0.0379  0.0321  0.0085  0.0000  0.0000  0.0000  0.0000  0.0000 </r>
       </set>
       <set comment="band 22">
        <r>  0.0000  0.0144  0.0442  0.0199  0.0000  0.0000  0.0000  0.0000  0.0000 </r>
        <r>  0.0000  0.0057  0.0303  0.0163  0.0000  0.0000  0.0000  0.0000  0.0000 </r>
       </set>
       <set comment="band 23">
        <r>  0.0002  0.0015  0.0079  0.0058  0.0000  0.0000  0.0000  0.0000  0.0000 </r>
        <r>  0.0001  0.0007  0.0060  0.0060  0.0000  0.0000  0.0000  0.0000  0.0000 </r>
       </set>
       <set comment="band 24">
        <r>  0.0000  0.0133  0.0047  0.0014  0.0000  0.0000  0.0000  0.0000  0.0000 </r>
        <r>  0.0000  0.0132  0.0086  0.0014  0.0000  0.0000  0.0000  0.0000  0.0000 </r>
       </set>
      </set>
     </set>
    </set>
   </array>
  </projected>
 </calculation>
 <structure name="finalpos" >
  <crystal>
   <varray name="basis" >
    <v>       3.33357300       0.00000000       1.92463900 </v>
    <v>       1.11119100       3.14292400       1.92463900 </v>
    <v>       0.00000000       0.00000000       3.84927800 </v>
   </varray>
   <i name="volume">     40.32952680 </i>
   <varray name="rec_basis" >
    <v>       0.29997843      -0.10605835       0.00000000 </v>
    <v>       0.00000000       0.31817505       0.00000000 </v>
    <v>      -0.14998922      -0.10605835       0.25978898 </v>
   </varray>
  </crystal>
  <varray name="positions" >
   <v>       0.87500000       0.87500000       0.87500000 </v>
   <v>       0.12500000       0.12500000       0.12500000 </v>
  </varray>
 </structure>
</modeling>
