<?xml version="1.0" encoding="ISO-8859-1"?>
<modeling>
 <generator>
  <i name="program" type="string">vasp </i>
  <i name="version" type="string">6.4.2  </i>
  <i name="subversion" type="string">20Jul23 (build Mar 15 2024 16:31:38) complex                          parallel </i>
  <i name="platform" type="string">LinuxIFC </i>
  <i name="date" type="string">2025 03 26 </i>
  <i name="time" type="string">18:03:25 </i>
 </generator>
 <incar>
  <i type="string" name="PREC">Accurate</i>
  <i type="string" name="ALGO">Normal</i>
  <i type="int" name="ISPIN">     2</i>
  <i type="int" name="NELM">   200</i>
  <i name="EDIFF">      0.00001000</i>
  <i type="int" name="NSW">     0</i>
  <i name="ENCUT">    680.00000000</i>
  <i name="ENAUG">   1360.00000000</i>
  <v name="MAGMOM">      0.60000000      0.60000000      0.60000000      0.60000000      0.60000000      0.60000000      0.60000000      0.60000000</v>
  <i type="logical" name="LREAL"> F  </i>
  <i type="int" name="ISMEAR">     0</i>
  <i name="SIGMA">      0.01000000</i>
  <i type="int" name="LMAXMIX">     4</i>
  <i type="logical" name="LWAVE"> T  </i>
  <i type="logical" name="LCHARG"> T  </i>
  <i type="logical" name="LVTOT"> T  </i>
  <i type="int" name="LORBIT">    11</i>
  <i type="logical" name="LELF"> F  </i>
  <i type="logical" name="LASPH"> T  </i>
  <i type="logical" name="LAECHG"> T  </i>
  <i name="HFSCREEN">      0.20000000</i>
  <i type="logical" name="LHFCALC"> T  </i>
  <i type="string" name="GGA">Pe</i>
  <i type="string" name="PRECFOCK">Fast</i>
  <i type="logical" name="LDAU"> F  </i>
  <i type="logical" name="LMIXTAU"> T  </i>
 </incar>
 <primitive_cell>
  <structure name="primitive_cell" >
   <crystal>
    <varray name="basis" >
     <v>       5.10874036       0.00000000      -2.30030869 </v>
     <v>      -1.03575852       5.00264257      -2.30030916 </v>
     <v>       0.00000000       0.00000000       6.82313837 </v>
    </varray>
    <i name="volume">    174.38032574 </i>
    <varray name="rec_basis" >
     <v>       0.19574297       0.04052707       0.00000000 </v>
     <v>       0.00000000       0.19989435       0.00000000 </v>
     <v>       0.06599152       0.08105414       0.14656012 </v>
    </varray>
   </crystal>
   <varray name="positions" >
    <v>       0.50000000       0.50000000       1.00000000 </v>
    <v>       0.75000000       0.25000000       0.50000000 </v>
    <v>       0.00000000       0.00000000       0.00000000 </v>
    <v>       0.25000000       0.75000000       0.50000000 </v>
    <v>       0.37121578       0.37500000       0.25000000 </v>
    <v>       0.12500000       0.62878422       0.75000000 </v>
    <v>       0.62500000       0.12121578       0.75000000 </v>
    <v>       0.87878422       0.87500000       0.25000000 </v>
   </varray>
  </structure>
  <varray name="primitive_index" >
   <v type="int" >        1 </v>
   <v type="int" >        2 </v>
   <v type="int" >        3 </v>
   <v type="int" >        4 </v>
   <v type="int" >        5 </v>
   <v type="int" >        6 </v>
   <v type="int" >        7 </v>
   <v type="int" >        8 </v>
  </varray>
 </primitive_cell>
 <kpoints>
  <varray name="kpointlist" >
   <v>       0.00000000       0.00000000       0.00000000 </v>
  </varray>
  <varray name="weights" >
   <v>       1.00000000 </v>
  </varray>
 </kpoints>
 <parameters>
  <separator name="general" >
   <i type="string" name="SYSTEM">unknown system</i>
   <i type="logical" name="LCOMPAT"> F  </i>
  </separator>
  <separator name="electronic" >
   <i type="string" name="PREC">accura</i>
   <i name="ENMAX">    680.00000000</i>
   <i name="ENAUG">   1360.00000000</i>
   <i name="EDIFF">      0.00001000</i>
   <i type="int" name="IALGO">    38</i>
   <i type="int" name="IWAVPR">    10</i>
   <i type="int" name="NBANDS">    48</i>
   <i type="int" name="NBANDSLOW">    -1</i>
   <i type="int" name="NBANDSHIGH">    -1</i>
   <i name="NELECT">     72.00000000</i>
   <i type="int" name="TURBO">     0</i>
   <i type="int" name="IRESTART">     0</i>
   <i type="int" name="NREBOOT">     0</i>
   <i type="int" name="NMIN">     0</i>
   <i name="EREF">      0.00000000</i>
   <separator name="electronic smearing" >
    <i type="int" name="ISMEAR">     0</i>
    <i name="SIGMA">      0.01000000</i>
    <i name="KSPACING">      0.50000000</i>
    <i type="logical" name="KGAMMA"> T  </i>
    <i type="logical" name="KBLOWUP"> T  </i>
   </separator>
   <separator name="electronic projectors" >
    <i type="logical" name="LREAL"> F  </i>
    <v name="ROPT">      0.00000000      0.00000000      0.00000000</v>
    <i type="int" name="LMAXPAW">  -100</i>
    <i type="int" name="LMAXMIX">     4</i>
    <i type="logical" name="NLSPLINE"> F  </i>
   </separator>
   <separator name="electronic startup" >
    <i type="int" name="ISTART">     0</i>
    <i type="int" name="ICHARG">     2</i>
    <i type="int" name="INIWAV">     1</i>
   </separator>
   <separator name="electronic spin" >
    <i type="int" name="ISPIN">     2</i>
    <i type="logical" name="LNONCOLLINEAR"> F  </i>
    <v name="MAGMOM">      0.60000000      0.60000000      0.60000000      0.60000000      0.60000000      0.60000000      0.60000000      0.60000000</v>
    <i name="NUPDOWN">     -1.00000000</i>
    <i type="logical" name="LSORBIT"> F  </i>
    <v name="SAXIS">      0.00000000      0.00000000      1.00000000</v>
    <i type="logical" name="LSPIRAL"> F  </i>
    <v name="QSPIRAL">      0.00000000      0.00000000      0.00000000</v>
    <i type="logical" name="LZEROZ"> F  </i>
   </separator>
   <separator name="electronic exchange-correlation" >
    <i type="logical" name="LASPH"> T  </i>
    <i type="logical" name="LMETAGGA"> F  </i>
   </separator>
   <separator name="electronic convergence" >
    <i type="int" name="NELM">   200</i>
    <i type="int" name="NELMDL">    -5</i>
    <i type="int" name="NELMIN">     2</i>
    <i name="ENINI">    680.00000000</i>
    <separator name="electronic convergence detail" >
     <i type="logical" name="LDIAG"> T  </i>
     <i type="logical" name="LSUBROT"> F  </i>
     <i name="WEIMIN">      0.00000000</i>
     <i name="EBREAK">      0.00000005</i>
     <i name="DEPER">      0.30000000</i>
     <i type="int" name="NRMM">     4</i>
     <i name="TIME">      0.40000000</i>
    </separator>
   </separator>
   <separator name="electronic mixer" >
    <i name="AMIX">      0.40000000</i>
    <i name="BMIX">      1.00000000</i>
    <i name="AMIN">      0.10000000</i>
    <i name="AMIX_MAG">      1.60000000</i>
    <i name="BMIX_MAG">      1.00000000</i>
    <separator name="electronic mixer details" >
     <i type="int" name="IMIX">     1</i>
     <i type="logical" name="MIXFIRST"> F  </i>
     <i type="int" name="MAXMIX">   -45</i>
     <i name="WC">    100.00000000</i>
     <i type="int" name="INIMIX">     1</i>
     <i type="int" name="MIXPRE">     1</i>
     <i type="int" name="MREMOVE">     5</i>
    </separator>
   </separator>
   <separator name="electronic dipolcorrection" >
    <i type="logical" name="LDIPOL"> F  </i>
    <i type="logical" name="LMONO"> F  </i>
    <i type="int" name="IDIPOL">     0</i>
    <i name="EPSILON">      1.00000000</i>
    <v name="DIPOL">   -100.00000000   -100.00000000   -100.00000000</v>
    <i name="EFIELD">      0.00000000</i>
   </separator>
  </separator>
  <separator name="grids" >
   <i type="int" name="NGX">    48</i>
   <i type="int" name="NGY">    48</i>
   <i type="int" name="NGZ">    60</i>
   <i type="int" name="NGXF">    96</i>
   <i type="int" name="NGYF">    96</i>
   <i type="int" name="NGZF">   120</i>
   <i type="logical" name="ADDGRID"> F  </i>
  </separator>
  <separator name="ionic" >
   <i type="int" name="NSW">     0</i>
   <i type="int" name="IBRION">    -1</i>
   <i type="int" name="MDALGO">     0</i>
   <i type="int" name="ISIF">     0</i>
   <i name="PSTRESS">      0.00000000</i>
   <i name="EDIFFG">      0.00010000</i>
   <i type="int" name="NFREE">     0</i>
   <i name="POTIM">      0.50000000</i>
   <i name="SMASS">     -3.00000000</i>
   <i name="SCALEE">      1.00000000</i>
  </separator>
  <separator name="ionic md" >
   <i name="TEBEG">      0.00010000</i>
   <i name="TEEND">      0.00010000</i>
   <i type="int" name="NBLOCK">     1</i>
   <i type="int" name="KBLOCK">     1</i>
   <i type="int" name="NPACO">   256</i>
   <i name="APACO">     10.00000000</i>
  </separator>
  <separator name="symmetry" >
   <i type="int" name="ISYM">     3</i>
   <i name="SYMPREC">      0.00001000</i>
  </separator>
  <separator name="dos" >
   <i type="int" name="LORBIT">    11</i>
   <v name="RWIGS">     -1.00000000     -1.00000000     -1.00000000</v>
   <i type="int" name="NEDOS">   301</i>
   <i name="EMIN">     10.00000000</i>
   <i name="EMAX">    -10.00000000</i>
   <i name="EFERMI">      0.00000000</i>
  </separator>
  <separator name="writing" >
   <i type="int" name="NWRITE">     2</i>
   <i type="logical" name="LWAVE"> T  </i>
   <i type="logical" name="LDOWNSAMPLE"> F  </i>
   <i type="logical" name="LCHARG"> T  </i>
   <i type="logical" name="LPARD"> F  </i>
   <i type="logical" name="LVTOT"> T  </i>
   <i type="logical" name="LVHAR"> F  </i>
   <i type="logical" name="LELF"> F  </i>
   <i type="logical" name="LOPTICS"> F  </i>
   <v name="STM">      0.00000000      0.00000000      0.00000000      0.00000000      0.00000000      0.00000000      0.00000000</v>
  </separator>
  <separator name="performance" >
   <i type="int" name="NPAR">    12</i>
   <i type="int" name="NSIM">     4</i>
   <i type="int" name="NBLK">    -1</i>
   <i type="logical" name="LPLANE"> T  </i>
   <i type="logical" name="LSCALAPACK"> T  </i>
   <i type="logical" name="LSCAAWARE"> F  </i>
   <i type="logical" name="LSCALU"> F  </i>
   <i type="logical" name="LASYNC"> F  </i>
   <i type="logical" name="LORBITALREAL"> F  </i>
  </separator>
  <separator name="miscellaneous" >
   <i type="int" name="IDIOT">     3</i>
   <i type="int" name="PHON_NSTRUCT">    -1</i>
   <i type="logical" name="LMUSIC"> F  </i>
   <v name="POMASS">     69.72300000     63.54600000     78.96000000</v>
   <v name="DARWINR">      0.00000000      0.00000000      0.00000000</v>
   <v name="DARWINV">      1.00000000      1.00000000      1.00000000</v>
   <i type="logical" name="LCORR"> T  </i>
  </separator>
  <i type="logical" name="GGA_COMPAT"> T  </i>
  <i type="logical" name="LBERRY"> F  </i>
  <i type="int" name="ICORELEVEL">     0</i>
  <i type="logical" name="LDAU"> F  </i>
  <i type="int" name="I_CONSTRAINED_M">     0</i>
  <separator name="electronic exchange-correlation" >
   <i type="string" name="GGA">PE</i>
   <i type="int" name="VOSKOWN">     0</i>
   <i type="logical" name="LHFCALC"> T  </i>
   <i type="string" name="PRECFOCK">fast</i>
   <i type="logical" name="LSYMGRAD"> F  </i>
   <i type="logical" name="LHFONE"> F  </i>
   <i type="logical" name="LRHFCALC"> F  </i>
   <i type="logical" name="LTHOMAS"> F  </i>
   <i type="logical" name="LMODELHF"> F  </i>
   <i type="logical" name="LFOCKACE"> T  </i>
   <i name="ENCUT4O">     -1.00000000</i>
   <i type="int" name="EXXOEP">     0</i>
   <i type="int" name="FOURORBIT">     0</i>
   <i name="AEXX">      0.25000000</i>
   <i name="HFALPHA">     -1.00000000</i>
   <i name="MCALPHA">      0.00000000</i>
   <i name="ALDAX">      0.75000000</i>
   <i name="AGGAX">      0.75000000</i>
   <i name="ALDAC">      1.00000000</i>
   <i name="AGGAC">      1.00000000</i>
   <i type="int" name="NKREDX">     1</i>
   <i type="int" name="NKREDY">     1</i>
   <i type="int" name="NKREDZ">     1</i>
   <i type="logical" name="SHIFTRED"> F  </i>
   <i type="logical" name="ODDONLY"> F  </i>
   <i type="logical" name="EVENONLY"> F  </i>
   <i type="int" name="LMAXFOCK">     4</i>
   <i type="int" name="NMAXFOCKAE">     1</i>
   <i type="logical" name="LFOCKAEDFT"> F  </i>
   <i name="HFSCREEN">      0.20000000</i>
   <i name="HFSCREENC">      0.20000000</i>
   <i type="int" name="NBANDSGWLOW">     1</i>
  </separator>
  <separator name="vdW DFT" >
   <i type="logical" name="LUSE_VDW"> F  </i>
   <i type="int" name="IVDW_NL">     1</i>
   <i type="logical" name="LSPIN_VDW"> F  </i>
   <i name="Zab_VDW">     -0.84910000</i>
   <i name="PARAM1">      0.12340000</i>
   <i name="PARAM2">      1.00000000</i>
   <i name="PARAM3">      0.00000000</i>
  </separator>
  <separator name="model GW" >
   <i type="int" name="MODEL_GW">     0</i>
   <i name="MODEL_EPS0">     13.07852443</i>
   <i name="MODEL_ALPHA">      1.00000000</i>
  </separator>
  <separator name="linear response parameters" >
   <i type="logical" name="LEPSILON"> F  </i>
   <i type="logical" name="LRPA"> F  </i>
   <i type="logical" name="LNABLA"> F  </i>
   <i type="logical" name="LVEL"> F  </i>
   <i name="CSHIFT">      0.10000000</i>
   <i name="OMEGAMAX">     -1.00000000</i>
   <i name="DEG_THRESHOLD">      0.00200000</i>
   <i name="RTIME">     -0.10000000</i>
   <i name="WPLASMAI">      0.00000000</i>
   <v name="DFIELD">      0.00000000      0.00000000      0.00000000</v>
   <v name="WPLASMA">      0.00000000      0.00000000      0.00000000      0.00000000      0.00000000      0.00000000      0.00000000      0.00000000      0.00000000</v>
  </separator>
  <separator name="orbital magnetization" >
   <i type="logical" name="NUCIND"> F  </i>
   <v name="MAGPOS">      0.00000000      0.00000000      0.00000000</v>
   <i type="logical" name="LNICSALL"> T  </i>
   <i type="logical" name="ORBITALMAG"> F  </i>
   <i type="logical" name="LMAGBLOCH"> F  </i>
   <i type="logical" name="LCHIMAG"> F  </i>
   <i type="logical" name="LGAUGE"> T  </i>
   <i type="int" name="MAGATOM">     0</i>
   <v name="MAGDIPOL">      0.00000000      0.00000000      0.00000000</v>
   <v name="AVECCONST">      0.00000000      0.00000000      0.00000000</v>
  </separator>
  <separator name="response functions" >
   <i type="logical" name="LALL_IN_ONE"> F  </i>
   <i type="int" name="IALL_IN_ONE">    -1</i>
   <i type="int" name="NBANDS_WAVE">    -1</i>
   <i type="logical" name="LFINITE_TEMPERATURE"> F  </i>
   <i type="logical" name="LADDER"> F  </i>
   <i type="logical" name="LRPAFORCE"> F  </i>
   <i type="logical" name="LFXC"> F  </i>
   <i type="logical" name="LHARTREE"> T  </i>
   <i type="int" name="IBSE">     0</i>
   <v type="int" name="KPOINT">    -1     0     0     0</v>
   <i type="logical" name="LTCTC"> F  </i>
   <i type="logical" name="LTCTE"> F  </i>
   <i type="logical" name="LTETE"> F  </i>
   <i type="logical" name="LTRIPLET"> F  </i>
   <i type="logical" name="LFXCEPS"> F  </i>
   <i type="logical" name="LFXHEG"> F  </i>
   <i type="int" name="NATURALO">     2</i>
   <i type="logical" name="LHOLEGF"> F  </i>
   <i type="logical" name="L2ORDER"> F  </i>
   <i type="logical" name="LDMP1"> F  </i>
   <i type="logical" name="LMP2LT"> F  </i>
   <i type="logical" name="LSMP2LT"> F  </i>
   <i type="logical" name="LGWLF"> F  </i>
   <i name="ENCUTGW">     -1.60000002</i>
   <i name="ENCUTGWSOFT">     -1.60000002</i>
   <i name="ENCUTLF">     -1.00000000</i>
   <i type="logical" name="LESF_SPLINES"> F  </i>
   <i type="int" name="LMAXMP2">    -1</i>
   <i name="SCISSOR">      0.00000000</i>
   <i type="int" name="NOMEGA">     0</i>
   <i type="int" name="NOMEGAR">     0</i>
   <i type="int" name="NBANDSGW">    -1</i>
   <i type="int" name="NBANDSO">    -1</i>
   <i type="int" name="NBANDSV">    -1</i>
   <i type="int" name="NELMGW">     1</i>
   <i type="int" name="NELMHF">     1</i>
   <i type="int" name="DIM">     3</i>
   <i type="int" name="IESPILON">     4</i>
   <i type="int" name="ANTIRES">     0</i>
   <i name="OMEGAMAX">    -30.00000000</i>
   <i name="OMEGAMIN">    -30.00000000</i>
   <i name="OMEGATL">   -200.00000000</i>
   <i type="int" name="OMEGAGRID">     0</i>
   <i name="CSHIFT">     -0.10000000</i>
   <i type="logical" name="LSELFENERGY"> F  </i>
   <i type="logical" name="LSPECTRAL"> F  </i>
   <i type="logical" name="LSPECTRALGW"> F  </i>
   <i type="logical" name="LSINGLES"> F  </i>
   <i type="logical" name="LFERMIGW"> F  </i>
   <i type="logical" name="ODDONLYGW"> F  </i>
   <i type="logical" name="EVENONLYGW"> F  </i>
   <i type="int" name="NKREDLFX">     1</i>
   <i type="int" name="NKREDLFY">     1</i>
   <i type="int" name="NKREDLFZ">     1</i>
   <i type="int" name="MAXMEM">  2800</i>
   <i type="int" name="TELESCOPE">     0</i>
   <i type="int" name="NTAUPAR">    -1</i>
   <i type="int" name="NOMEGAPAR">    -1</i>
   <i name="DAMP_NEWTON">      0.80000001</i>
   <i name="LAMBDA">      1.00000000</i>
  </separator>
  <separator name="External order field" >
   <i name="OFIELD_KAPPA">      0.00000000</i>
   <v name="OFIELD_K">      0.00000000      0.00000000      0.00000000</v>
   <i name="OFIELD_Q6_NEAR">      0.00000000</i>
   <i name="OFIELD_Q6_FAR">      0.00000000</i>
   <i name="OFIELD_A">      0.00000000</i>
  </separator>
  <separator name="optional k-points parameters" >
   <i type="int" name="KPOINTS_OPT_MODE">     1</i>
   <i type="logical" name="LKPOINTS_OPT"> F  </i>
  </separator>
 </parameters>
 <atominfo>
  <atoms>       8 </atoms>
  <types>       3 </types>
  <array name="atoms" >
   <dimension dim="1">ion</dimension>
   <field type="string">element</field>
   <field type="int">atomtype</field>
   <set>
    <rc><c>Ga</c><c>   1</c></rc>
    <rc><c>Ga</c><c>   1</c></rc>
    <rc><c>Cu</c><c>   2</c></rc>
    <rc><c>Cu</c><c>   2</c></rc>
    <rc><c>Se</c><c>   3</c></rc>
    <rc><c>Se</c><c>   3</c></rc>
    <rc><c>Se</c><c>   3</c></rc>
    <rc><c>Se</c><c>   3</c></rc>
   </set>
  </array>
  <array name="atomtypes" >
   <dimension dim="1">type</dimension>
   <field type="int">atomspertype</field>
   <field type="string">element</field>
   <field>mass</field>
   <field>valence</field>
   <field type="string">pseudopotential</field>
   <set>
    <rc><c>   2</c><c>Ga</c><c>     69.72300000</c><c>     13.00000000</c><c>  PAW_PBE Ga_d 06Jul2010                </c></rc>
    <rc><c>   2</c><c>Cu</c><c>     63.54600000</c><c>     11.00000000</c><c>  PAW_PBE Cu 22Jun2005                  </c></rc>
    <rc><c>   4</c><c>Se</c><c>     78.96000000</c><c>      6.00000000</c><c>  PAW_PBE Se 06Sep2000                  </c></rc>
   </set>
  </array>
 </atominfo>
 <structure name="initialpos" >
  <crystal>
   <varray name="basis" >
    <v>       5.10874036       0.00000000      -2.30030869 </v>
    <v>      -1.03575852       5.00264257      -2.30030916 </v>
    <v>       0.00000000       0.00000000       6.82313837 </v>
   </varray>
   <i name="volume">    174.38032574 </i>
   <varray name="rec_basis" >
    <v>       0.19574297       0.04052707       0.00000000 </v>
    <v>       0.00000000       0.19989435       0.00000000 </v>
    <v>       0.06599152       0.08105414       0.14656012 </v>
   </varray>
  </crystal>
  <varray name="positions" >
   <v>       0.50000000       0.50000000       0.00000000 </v>
   <v>       0.75000000       0.25000000       0.50000000 </v>
   <v>       0.00000000       0.00000000       0.00000000 </v>
   <v>       0.25000000       0.75000000       0.50000000 </v>
   <v>       0.37121578       0.37500000       0.25000000 </v>
   <v>       0.12500000       0.62878422       0.75000000 </v>
   <v>       0.62500000       0.12121578       0.75000000 </v>
   <v>       0.87878422       0.87500000       0.25000000 </v>
  </varray>
 </structure>
 <calculation>
  <scstep>
   <time name="dav">    0.20    0.92</time>
   <time name="total">    0.72    1.51</time>
   <energy>
    <i name="alphaZ">    236.66789905 </i>
    <i name="ewald">  -4863.29910036 </i>
    <i name="hartreedc">  -2637.76833053 </i>
    <i name="XCdc">    177.07437661 </i>
    <i name="pawpsdc">   6503.67618105 </i>
    <i name="pawaedc"> -11078.28736089 </i>
    <i name="eentropy">     -0.00000000 </i>
    <i name="bandstr">    319.97813024 </i>
    <i name="atom">   8093.15734121 </i>
    <i name="e_fr_energy">  -3248.80086362 </i>
    <i name="e_wo_entrp">  -3248.80086362 </i>
    <i name="e_0_energy">  -3248.80086362 </i>
   </energy>
  </scstep>
  <scstep>
   <time name="dav">    0.05    0.14</time>
   <time name="total">    0.05    0.14</time>
   <energy>
    <i name="e_fr_energy">  -3876.62256565 </i>
    <i name="e_wo_entrp">  -3876.62256565 </i>
    <i name="e_0_energy">  -3876.62256565 </i>
   </energy>
  </scstep>
  <scstep>
   <time name="dav">    0.04    0.18</time>
   <time name="total">    0.04    0.18</time>
   <energy>
    <i name="e_fr_energy">  -3982.52551199 </i>
    <i name="e_wo_entrp">  -3982.52551199 </i>
    <i name="e_0_energy">  -3982.52551199 </i>
   </energy>
  </scstep>
  <scstep>
   <time name="dav">    0.04    0.06</time>
   <time name="total">    0.04    0.06</time>
   <energy>
    <i name="e_fr_energy">  -3989.01582497 </i>
    <i name="e_wo_entrp">  -3989.01582497 </i>
    <i name="e_0_energy">  -3989.01582497 </i>
   </energy>
  </scstep>
  <scstep>
   <time name="dav">    0.19    0.19</time>
   <time name="total">    1.41    1.45</time>
   <energy>
    <i name="e_fr_energy">    -36.71303894 </i>
    <i name="e_wo_entrp">    -36.71303894 </i>
    <i name="e_0_energy">    -36.71303894 </i>
   </energy>
  </scstep>
  <scstep>
   <time name="dav">    0.11    0.11</time>
   <time name="total">    1.32    1.34</time>
   <energy>
    <i name="e_fr_energy">    -36.43236599 </i>
    <i name="e_wo_entrp">    -36.43236599 </i>
    <i name="e_0_energy">    -36.43236599 </i>
   </energy>
  </scstep>
  <scstep>
   <time name="dav">    0.12    0.12</time>
   <time name="total">    1.33    1.36</time>
   <energy>
    <i name="e_fr_energy">    -36.46555202 </i>
    <i name="e_wo_entrp">    -36.46555202 </i>
    <i name="e_0_energy">    -36.46555202 </i>
   </energy>
  </scstep>
  <scstep>
   <time name="dav">    0.11    0.11</time>
   <time name="total">    1.33    1.34</time>
   <energy>
    <i name="e_fr_energy">    -36.53384018 </i>
    <i name="e_wo_entrp">    -36.53384018 </i>
    <i name="e_0_energy">    -36.53384018 </i>
   </energy>
  </scstep>
  <scstep>
   <time name="dav">    0.11    0.11</time>
   <time name="total">    1.32    1.34</time>
   <energy>
    <i name="e_fr_energy">    -36.54558387 </i>
    <i name="e_wo_entrp">    -36.54558387 </i>
    <i name="e_0_energy">    -36.54558387 </i>
   </energy>
  </scstep>
  <scstep>
   <time name="dav">    0.11    0.11</time>
   <time name="total">    1.32    1.34</time>
   <energy>
    <i name="e_fr_energy">    -36.54923013 </i>
    <i name="e_wo_entrp">    -36.54923013 </i>
    <i name="e_0_energy">    -36.54923013 </i>
   </energy>
  </scstep>
  <scstep>
   <time name="dav">    0.11    0.11</time>
   <time name="total">    1.32    1.34</time>
   <energy>
    <i name="e_fr_energy">    -36.55135570 </i>
    <i name="e_wo_entrp">    -36.55135570 </i>
    <i name="e_0_energy">    -36.55135570 </i>
   </energy>
  </scstep>
  <scstep>
   <time name="dav">    0.11    0.11</time>
   <time name="total">    1.32    1.34</time>
   <energy>
    <i name="e_fr_energy">    -36.55229119 </i>
    <i name="e_wo_entrp">    -36.55229119 </i>
    <i name="e_0_energy">    -36.55229119 </i>
   </energy>
  </scstep>
  <scstep>
   <time name="dav">    0.13    0.13</time>
   <time name="total">    1.34    1.36</time>
   <energy>
    <i name="e_fr_energy">    -36.55269850 </i>
    <i name="e_wo_entrp">    -36.55269850 </i>
    <i name="e_0_energy">    -36.55269850 </i>
   </energy>
  </scstep>
  <scstep>
   <time name="dav">    0.12    0.12</time>
   <time name="total">    1.33    1.35</time>
   <energy>
    <i name="e_fr_energy">    -36.55287992 </i>
    <i name="e_wo_entrp">    -36.55287992 </i>
    <i name="e_0_energy">    -36.55287992 </i>
   </energy>
  </scstep>
  <scstep>
   <time name="dav">    0.12    0.12</time>
   <time name="total">    1.34    1.36</time>
   <energy>
    <i name="e_fr_energy">    -36.55296466 </i>
    <i name="e_wo_entrp">    -36.55296466 </i>
    <i name="e_0_energy">    -36.55296466 </i>
   </energy>
  </scstep>
  <scstep>
   <time name="dav">    0.11    0.11</time>
   <time name="total">    1.35    1.35</time>
   <energy>
    <i name="e_fr_energy">    -36.55300466 </i>
    <i name="e_wo_entrp">    -36.55300466 </i>
    <i name="e_0_energy">    -36.55300466 </i>
   </energy>
  </scstep>
  <scstep>
   <time name="dav">    0.10    0.10</time>
   <time name="total">    1.32    1.34</time>
   <energy>
    <i name="e_fr_energy">    -36.55302350 </i>
    <i name="e_wo_entrp">    -36.55302350 </i>
    <i name="e_0_energy">    -36.55302350 </i>
   </energy>
  </scstep>
  <scstep>
   <time name="dav">    0.11    0.11</time>
   <time name="total">    1.31    1.33</time>
   <energy>
    <i name="alphaZ">    236.66789905 </i>
    <i name="ewald">  -4863.29910036 </i>
    <i name="hartreedc">  -2613.39944992 </i>
    <i name="XCdc">    131.87256936 </i>
    <i name="pawpsdc">   8044.64593993 </i>
    <i name="pawaedc">  -8845.54010388 </i>
    <i name="eentropy">     -0.00000000 </i>
    <i name="bandstr">   -390.55152033 </i>
    <i name="atom">   8093.15734121 </i>
    <i name="e_fr_energy">    -36.55303248 </i>
    <i name="e_wo_entrp">    -36.55303248 </i>
    <i name="e_0_energy">    -36.55303248 </i>
   </energy>
  </scstep>
  <structure>
   <crystal>
    <varray name="basis" >
     <v>       5.10874036       0.00000000      -2.30030869 </v>
     <v>      -1.03575852       5.00264257      -2.30030916 </v>
     <v>       0.00000000       0.00000000       6.82313837 </v>
    </varray>
    <i name="volume">    174.38032574 </i>
    <varray name="rec_basis" >
     <v>       0.19574297       0.04052707       0.00000000 </v>
     <v>       0.00000000       0.19989435       0.00000000 </v>
     <v>       0.06599152       0.08105414       0.14656012 </v>
    </varray>
   </crystal>
   <varray name="positions" >
    <v>       0.50000000       0.50000000       0.00000000 </v>
    <v>       0.75000000       0.25000000       0.50000000 </v>
    <v>       0.00000000       0.00000000       0.00000000 </v>
    <v>       0.25000000       0.75000000       0.50000000 </v>
    <v>       0.37121578       0.37500000       0.25000000 </v>
    <v>       0.12500000       0.62878422       0.75000000 </v>
    <v>       0.62500000       0.12121578       0.75000000 </v>
    <v>       0.87878422       0.87500000       0.25000000 </v>
   </varray>
  </structure>
  <varray name="forces" >
   <v>       0.00000000      -0.00000000       0.00000000 </v>
   <v>      -0.00000000      -0.00000000       0.00000000 </v>
   <v>       0.00000000      -0.00000000       0.00000000 </v>
   <v>       0.00000000      -0.00000000       0.00000000 </v>
   <v>       0.41926998      -0.00000000      -0.18878438 </v>
   <v>       0.08500382      -0.41056262       0.18878442 </v>
   <v>      -0.08500382       0.41056262      -0.18878442 </v>
   <v>      -0.41926998      -0.00000000       0.18878438 </v>
  </varray>
  <energy>
   <i name="e_fr_energy">    -36.55303248 </i>
   <i name="e_wo_entrp">    -36.55303248 </i>
   <i name="e_0_energy">    -36.55303248 </i>
  </energy>
  <time name="totalsc">   23.94   25.29</time>
  <eigenvalues>
   <array>
    <dimension dim="1">band</dimension>
    <dimension dim="2">kpoint</dimension>
    <dimension dim="3">spin</dimension>
    <field>eigene</field>
    <field>occ</field>
    <set>
     <set comment="spin 1">
      <set comment="kpoint 1">
       <r>  -14.8174    1.0000 </r>
       <r>  -14.8174    1.0000 </r>
       <r>  -14.8074    1.0000 </r>
       <r>  -14.7252    1.0000 </r>
       <r>  -14.7232    1.0000 </r>
       <r>  -14.7232    1.0000 </r>
       <r>  -14.6654    1.0000 </r>
       <r>  -14.6629    1.0000 </r>
       <r>  -14.6556    1.0000 </r>
       <r>  -14.6535    1.0000 </r>
       <r>  -12.3080    1.0000 </r>
       <r>  -10.6027    1.0000 </r>
       <r>  -10.6027    1.0000 </r>
       <r>  -10.5708    1.0000 </r>
       <r>   -4.7843    1.0000 </r>
       <r>   -3.2734    1.0000 </r>
       <r>   -1.8392    1.0000 </r>
       <r>   -1.6425    1.0000 </r>
       <r>   -1.6076    1.0000 </r>
       <r>   -1.1423    1.0000 </r>
       <r>   -1.1423    1.0000 </r>
       <r>   -0.6614    1.0000 </r>
       <r>   -0.6614    1.0000 </r>
       <r>   -0.4921    1.0000 </r>
       <r>   -0.4921    1.0000 </r>
       <r>   -0.4479    1.0000 </r>
       <r>    0.4052    1.0000 </r>
       <r>    0.4483    1.0000 </r>
       <r>    0.5334    1.0000 </r>
       <r>    0.8230    1.0000 </r>
       <r>    0.9642    1.0000 </r>
       <r>    0.9642    1.0000 </r>
       <r>    1.0474    1.0000 </r>
       <r>    2.9738    1.0000 </r>
       <r>    2.9738    1.0000 </r>
       <r>    3.1193    1.0000 </r>
       <r>    4.8799    0.0000 </r>
       <r>    6.3126    0.0000 </r>
       <r>    6.7679    0.0000 </r>
       <r>    8.4836    0.0000 </r>
       <r>    8.4836    0.0000 </r>
       <r>    8.9189    0.0000 </r>
       <r>    9.3014    0.0000 </r>
       <r>    9.3014    0.0000 </r>
       <r>    9.5513    0.0000 </r>
       <r>    9.9061    0.0000 </r>
       <r>   11.1687    0.0000 </r>
       <r>   11.2014    0.0000 </r>
      </set>
     </set>
     <set comment="spin 2">
      <set comment="kpoint 1">
       <r>  -14.8177    1.0000 </r>
       <r>  -14.8177    1.0000 </r>
       <r>  -14.8077    1.0000 </r>
       <r>  -14.7255    1.0000 </r>
       <r>  -14.7235    1.0000 </r>
       <r>  -14.7235    1.0000 </r>
       <r>  -14.6657    1.0000 </r>
       <r>  -14.6632    1.0000 </r>
       <r>  -14.6559    1.0000 </r>
       <r>  -14.6537    1.0000 </r>
       <r>  -12.3085    1.0000 </r>
       <r>  -10.6031    1.0000 </r>
       <r>  -10.6031    1.0000 </r>
       <r>  -10.5711    1.0000 </r>
       <r>   -4.7848    1.0000 </r>
       <r>   -3.2739    1.0000 </r>
       <r>   -1.8397    1.0000 </r>
       <r>   -1.6430    1.0000 </r>
       <r>   -1.6081    1.0000 </r>
       <r>   -1.1428    1.0000 </r>
       <r>   -1.1428    1.0000 </r>
       <r>   -0.6617    1.0000 </r>
       <r>   -0.6617    1.0000 </r>
       <r>   -0.4925    1.0000 </r>
       <r>   -0.4925    1.0000 </r>
       <r>   -0.4483    1.0000 </r>
       <r>    0.4049    1.0000 </r>
       <r>    0.4480    1.0000 </r>
       <r>    0.5331    1.0000 </r>
       <r>    0.8227    1.0000 </r>
       <r>    0.9638    1.0000 </r>
       <r>    0.9638    1.0000 </r>
       <r>    1.0471    1.0000 </r>
       <r>    2.9734    1.0000 </r>
       <r>    2.9734    1.0000 </r>
       <r>    3.1189    1.0000 </r>
       <r>    4.8793    0.0000 </r>
       <r>    6.3117    0.0000 </r>
       <r>    6.7673    0.0000 </r>
       <r>    8.4830    0.0000 </r>
       <r>    8.4830    0.0000 </r>
       <r>    8.9183    0.0000 </r>
       <r>    9.3005    0.0000 </r>
       <r>    9.3005    0.0000 </r>
       <r>    9.5507    0.0000 </r>
       <r>    9.9056    0.0000 </r>
       <r>   11.1681    0.0000 </r>
       <r>   11.1876    0.0000 </r>
      </set>
     </set>
    </set>
   </array>
  </eigenvalues>
  <separator name="orbital magnetization" >
   <v name="MAGDIPOLOUT">      0.00000000      0.00000000      0.00000000</v>
  </separator>
  <dos>
   <i name="efermi">      3.17671767 </i>
   <total>
    <array>
     <dimension dim="1">gridpoints</dimension>
     <dimension dim="2">spin</dimension>
     <field>energy</field>
     <field>total</field>
     <field>integrated</field>
     <set>
      <set comment="spin 1">
       <r>   -16.1186     0.0000     0.0000 </r>
       <r>   -16.0232     0.0000     0.0000 </r>
       <r>   -15.9278     0.0000     0.0000 </r>
       <r>   -15.8324     0.0000     0.0000 </r>
       <r>   -15.7370     0.0000     0.0000 </r>
       <r>   -15.6416     0.0000     0.0000 </r>
       <r>   -15.5462     0.0000     0.0000 </r>
       <r>   -15.4508     0.0000     0.0000 </r>
       <r>   -15.3554     0.0000     0.0000 </r>
       <r>   -15.2600     0.0000     0.0000 </r>
       <r>   -15.1646     0.0000     0.0000 </r>
       <r>   -15.0692     0.0000     0.0000 </r>
       <r>   -14.9738     0.0000     0.0000 </r>
       <r>   -14.8784     0.0000     0.0000 </r>
       <r>   -14.7830    31.4425     2.9997 </r>
       <r>   -14.6876    31.4571     6.0011 </r>
       <r>   -14.5922    41.9155    10.0000 </r>
       <r>   -14.4968     0.0000    10.0000 </r>
       <r>   -14.4014     0.0000    10.0000 </r>
       <r>   -14.3060     0.0000    10.0000 </r>
       <r>   -14.2106     0.0000    10.0000 </r>
       <r>   -14.1152     0.0000    10.0000 </r>
       <r>   -14.0198     0.0000    10.0000 </r>
       <r>   -13.9243     0.0000    10.0000 </r>
       <r>   -13.8289     0.0000    10.0000 </r>
       <r>   -13.7335     0.0000    10.0000 </r>
       <r>   -13.6381     0.0000    10.0000 </r>
       <r>   -13.5427     0.0000    10.0000 </r>
       <r>   -13.4473     0.0000    10.0000 </r>
       <r>   -13.3519     0.0000    10.0000 </r>
       <r>   -13.2565     0.0000    10.0000 </r>
       <r>   -13.1611     0.0000    10.0000 </r>
       <r>   -13.0657     0.0000    10.0000 </r>
       <r>   -12.9703     0.0000    10.0000 </r>
       <r>   -12.8749     0.0000    10.0000 </r>
       <r>   -12.7795     0.0000    10.0000 </r>
       <r>   -12.6841     0.0000    10.0000 </r>
       <r>   -12.5887     0.0000    10.0000 </r>
       <r>   -12.4933     0.0000    10.0000 </r>
       <r>   -12.3979     0.0000    10.0000 </r>
       <r>   -12.3025     8.2136    10.7836 </r>
       <r>   -12.2071     0.0000    11.0000 </r>
       <r>   -12.1117     0.0000    11.0000 </r>
       <r>   -12.0163     0.0000    11.0000 </r>
       <r>   -11.9209     0.0000    11.0000 </r>
       <r>   -11.8255     0.0000    11.0000 </r>
       <r>   -11.7301     0.0000    11.0000 </r>
       <r>   -11.6347     0.0000    11.0000 </r>
       <r>   -11.5393     0.0000    11.0000 </r>
       <r>   -11.4439     0.0000    11.0000 </r>
       <r>   -11.3485     0.0000    11.0000 </r>
       <r>   -11.2531     0.0000    11.0000 </r>
       <r>   -11.1576     0.0000    11.0000 </r>
       <r>   -11.0622     0.0000    11.0000 </r>
       <r>   -10.9668     0.0000    11.0000 </r>
       <r>   -10.8714     0.0000    11.0000 </r>
       <r>   -10.7760     0.0000    11.0000 </r>
       <r>   -10.6806     0.0000    11.0000 </r>
       <r>   -10.5852    21.0388    13.0072 </r>
       <r>   -10.4898     0.0000    14.0000 </r>
       <r>   -10.3944     0.0000    14.0000 </r>
       <r>   -10.2990     0.0000    14.0000 </r>
       <r>   -10.2036     0.0000    14.0000 </r>
       <r>   -10.1082     0.0000    14.0000 </r>
       <r>   -10.0128     0.0000    14.0000 </r>
       <r>    -9.9174     0.0000    14.0000 </r>
       <r>    -9.8220     0.0000    14.0000 </r>
       <r>    -9.7266     0.0000    14.0000 </r>
       <r>    -9.6312     0.0000    14.0000 </r>
       <r>    -9.5358     0.0000    14.0000 </r>
       <r>    -9.4404     0.0000    14.0000 </r>
       <r>    -9.3450     0.0000    14.0000 </r>
       <r>    -9.2496     0.0000    14.0000 </r>
       <r>    -9.1542     0.0000    14.0000 </r>
       <r>    -9.0588     0.0000    14.0000 </r>
       <r>    -8.9634     0.0000    14.0000 </r>
       <r>    -8.8680     0.0000    14.0000 </r>
       <r>    -8.7726     0.0000    14.0000 </r>
       <r>    -8.6772     0.0000    14.0000 </r>
       <r>    -8.5818     0.0000    14.0000 </r>
       <r>    -8.4864     0.0000    14.0000 </r>
       <r>    -8.3909     0.0000    14.0000 </r>
       <r>    -8.2955     0.0000    14.0000 </r>
       <r>    -8.2001     0.0000    14.0000 </r>
       <r>    -8.1047     0.0000    14.0000 </r>
       <r>    -8.0093     0.0000    14.0000 </r>
       <r>    -7.9139     0.0000    14.0000 </r>
       <r>    -7.8185     0.0000    14.0000 </r>
       <r>    -7.7231     0.0000    14.0000 </r>
       <r>    -7.6277     0.0000    14.0000 </r>
       <r>    -7.5323     0.0000    14.0000 </r>
       <r>    -7.4369     0.0000    14.0000 </r>
       <r>    -7.3415     0.0000    14.0000 </r>
       <r>    -7.2461     0.0000    14.0000 </r>
       <r>    -7.1507     0.0000    14.0000 </r>
       <r>    -7.0553     0.0000    14.0000 </r>
       <r>    -6.9599     0.0000    14.0000 </r>
       <r>    -6.8645     0.0000    14.0000 </r>
       <r>    -6.7691     0.0000    14.0000 </r>
       <r>    -6.6737     0.0000    14.0000 </r>
       <r>    -6.5783     0.0000    14.0000 </r>
       <r>    -6.4829     0.0000    14.0000 </r>
       <r>    -6.3875     0.0000    14.0000 </r>
       <r>    -6.2921     0.0000    14.0000 </r>
       <r>    -6.1967     0.0000    14.0000 </r>
       <r>    -6.1013     0.0000    14.0000 </r>
       <r>    -6.0059     0.0000    14.0000 </r>
       <r>    -5.9105     0.0000    14.0000 </r>
       <r>    -5.8151     0.0000    14.0000 </r>
       <r>    -5.7197     0.0000    14.0000 </r>
       <r>    -5.6242     0.0000    14.0000 </r>
       <r>    -5.5288     0.0000    14.0000 </r>
       <r>    -5.4334     0.0000    14.0000 </r>
       <r>    -5.3380     0.0000    14.0000 </r>
       <r>    -5.2426     0.0000    14.0000 </r>
       <r>    -5.1472     0.0000    14.0000 </r>
       <r>    -5.0518     0.0000    14.0000 </r>
       <r>    -4.9564     0.0000    14.0000 </r>
       <r>    -4.8610     0.0000    14.0000 </r>
       <r>    -4.7656    10.4391    14.9959 </r>
       <r>    -4.6702     0.0000    15.0000 </r>
       <r>    -4.5748     0.0000    15.0000 </r>
       <r>    -4.4794     0.0000    15.0000 </r>
       <r>    -4.3840     0.0000    15.0000 </r>
       <r>    -4.2886     0.0000    15.0000 </r>
       <r>    -4.1932     0.0000    15.0000 </r>
       <r>    -4.0978     0.0000    15.0000 </r>
       <r>    -4.0024     0.0000    15.0000 </r>
       <r>    -3.9070     0.0000    15.0000 </r>
       <r>    -3.8116     0.0000    15.0000 </r>
       <r>    -3.7162     0.0000    15.0000 </r>
       <r>    -3.6208     0.0000    15.0000 </r>
       <r>    -3.5254     0.0000    15.0000 </r>
       <r>    -3.4300     0.0000    15.0000 </r>
       <r>    -3.3346     0.0000    15.0000 </r>
       <r>    -3.2392    10.4818    16.0000 </r>
       <r>    -3.1438     0.0000    16.0000 </r>
       <r>    -3.0484     0.0000    16.0000 </r>
       <r>    -2.9530     0.0000    16.0000 </r>
       <r>    -2.8575     0.0000    16.0000 </r>
       <r>    -2.7621     0.0000    16.0000 </r>
       <r>    -2.6667     0.0000    16.0000 </r>
       <r>    -2.5713     0.0000    16.0000 </r>
       <r>    -2.4759     0.0000    16.0000 </r>
       <r>    -2.3805     0.0000    16.0000 </r>
       <r>    -2.2851     0.0000    16.0000 </r>
       <r>    -2.1897     0.0000    16.0000 </r>
       <r>    -2.0943     0.0000    16.0000 </r>
       <r>    -1.9989     0.0000    16.0000 </r>
       <r>    -1.9035     0.0000    16.0000 </r>
       <r>    -1.8081    10.4817    17.0000 </r>
       <r>    -1.7127     0.0000    17.0000 </r>
       <r>    -1.6173    11.3716    18.0849 </r>
       <r>    -1.5219     0.0000    19.0000 </r>
       <r>    -1.4265     0.0000    19.0000 </r>
       <r>    -1.3311     0.0000    19.0000 </r>
       <r>    -1.2357     0.0000    19.0000 </r>
       <r>    -1.1403    12.8205    20.2231 </r>
       <r>    -1.0449     0.0000    21.0000 </r>
       <r>    -0.9495     0.0000    21.0000 </r>
       <r>    -0.8541     0.0000    21.0000 </r>
       <r>    -0.7587     0.0000    21.0000 </r>
       <r>    -0.6633     8.2879    21.7907 </r>
       <r>    -0.5679     0.0000    23.0000 </r>
       <r>    -0.4725    20.9085    24.9947 </r>
       <r>    -0.3771    10.4791    26.0000 </r>
       <r>    -0.2817     0.0000    26.0000 </r>
       <r>    -0.1863     0.0000    26.0000 </r>
       <r>    -0.0908     0.0000    26.0000 </r>
       <r>     0.0046     0.0000    26.0000 </r>
       <r>     0.1000     0.0000    26.0000 </r>
       <r>     0.1954     0.0000    26.0000 </r>
       <r>     0.2908     0.0000    26.0000 </r>
       <r>     0.3862     0.0371    26.0035 </r>
       <r>     0.4816    20.9265    28.0000 </r>
       <r>     0.5770    10.4818    29.0000 </r>
       <r>     0.6724     0.0000    29.0000 </r>
       <r>     0.7678     0.0000    29.0000 </r>
       <r>     0.8632    10.4818    30.0000 </r>
       <r>     0.9586     4.4478    30.4243 </r>
       <r>     1.0540     8.6297    32.8233 </r>
       <r>     1.1494     0.0000    33.0000 </r>
       <r>     1.2448     0.0000    33.0000 </r>
       <r>     1.3402     0.0000    33.0000 </r>
       <r>     1.4356     0.0000    33.0000 </r>
       <r>     1.5310     0.0000    33.0000 </r>
       <r>     1.6264     0.0000    33.0000 </r>
       <r>     1.7218     0.0000    33.0000 </r>
       <r>     1.8172     0.0000    33.0000 </r>
       <r>     1.9126     0.0000    33.0000 </r>
       <r>     2.0080     0.0000    33.0000 </r>
       <r>     2.1034     0.0000    33.0000 </r>
       <r>     2.1988     0.0000    33.0000 </r>
       <r>     2.2942     0.0000    33.0000 </r>
       <r>     2.3896     0.0000    33.0000 </r>
       <r>     2.4850     0.0000    33.0000 </r>
       <r>     2.5804     0.0000    33.0000 </r>
       <r>     2.6758     0.0000    33.0000 </r>
       <r>     2.7713     0.0000    33.0000 </r>
       <r>     2.8667     0.0000    33.0000 </r>
       <r>     2.9621     1.0132    33.0967 </r>
       <r>     3.0575     0.0000    35.0000 </r>
       <r>     3.1529    10.4818    36.0000 </r>
       <r>     3.2483     0.0000    36.0000 </r>
       <r>     3.3437     0.0000    36.0000 </r>
       <r>     3.4391     0.0000    36.0000 </r>
       <r>     3.5345     0.0000    36.0000 </r>
       <r>     3.6299     0.0000    36.0000 </r>
       <r>     3.7253     0.0000    36.0000 </r>
       <r>     3.8207     0.0000    36.0000 </r>
       <r>     3.9161     0.0000    36.0000 </r>
       <r>     4.0115     0.0000    36.0000 </r>
       <r>     4.1069     0.0000    36.0000 </r>
       <r>     4.2023     0.0000    36.0000 </r>
       <r>     4.2977     0.0000    36.0000 </r>
       <r>     4.3931     0.0000    36.0000 </r>
       <r>     4.4885     0.0000    36.0000 </r>
       <r>     4.5839     0.0000    36.0000 </r>
       <r>     4.6793     0.0000    36.0000 </r>
       <r>     4.7747     0.0000    36.0000 </r>
       <r>     4.8701     0.8710    36.0831 </r>
       <r>     4.9655     0.0000    37.0000 </r>
       <r>     5.0609     0.0000    37.0000 </r>
       <r>     5.1563     0.0000    37.0000 </r>
       <r>     5.2517     0.0000    37.0000 </r>
       <r>     5.3471     0.0000    37.0000 </r>
       <r>     5.4425     0.0000    37.0000 </r>
       <r>     5.5380     0.0000    37.0000 </r>
       <r>     5.6334     0.0000    37.0000 </r>
       <r>     5.7288     0.0000    37.0000 </r>
       <r>     5.8242     0.0000    37.0000 </r>
       <r>     5.9196     0.0000    37.0000 </r>
       <r>     6.0150     0.0000    37.0000 </r>
       <r>     6.1104     0.0000    37.0000 </r>
       <r>     6.2058     0.0000    37.0000 </r>
       <r>     6.3012     0.5512    37.0526 </r>
       <r>     6.3966     0.0000    38.0000 </r>
       <r>     6.4920     0.0000    38.0000 </r>
       <r>     6.5874     0.0000    38.0000 </r>
       <r>     6.6828     0.0000    38.0000 </r>
       <r>     6.7782     9.7132    38.9267 </r>
       <r>     6.8736     0.0000    39.0000 </r>
       <r>     6.9690     0.0000    39.0000 </r>
       <r>     7.0644     0.0000    39.0000 </r>
       <r>     7.1598     0.0000    39.0000 </r>
       <r>     7.2552     0.0000    39.0000 </r>
       <r>     7.3506     0.0000    39.0000 </r>
       <r>     7.4460     0.0000    39.0000 </r>
       <r>     7.5414     0.0000    39.0000 </r>
       <r>     7.6368     0.0000    39.0000 </r>
       <r>     7.7322     0.0000    39.0000 </r>
       <r>     7.8276     0.0000    39.0000 </r>
       <r>     7.9230     0.0000    39.0000 </r>
       <r>     8.0184     0.0000    39.0000 </r>
       <r>     8.1138     0.0000    39.0000 </r>
       <r>     8.2092     0.0000    39.0000 </r>
       <r>     8.3047     0.0000    39.0000 </r>
       <r>     8.4001     0.0000    39.0000 </r>
       <r>     8.4955    19.9781    40.9060 </r>
       <r>     8.5909     0.0000    41.0000 </r>
       <r>     8.6863     0.0000    41.0000 </r>
       <r>     8.7817     0.0000    41.0000 </r>
       <r>     8.8771     0.0000    41.0000 </r>
       <r>     8.9725    10.4818    42.0000 </r>
       <r>     9.0679     0.0000    42.0000 </r>
       <r>     9.1633     0.0000    42.0000 </r>
       <r>     9.2587     0.0000    42.0000 </r>
       <r>     9.3541    20.9636    44.0000 </r>
       <r>     9.4495     0.0000    44.0000 </r>
       <r>     9.5449     1.9200    44.1832 </r>
       <r>     9.6403     0.0000    45.0000 </r>
       <r>     9.7357     0.0000    45.0000 </r>
       <r>     9.8311     0.0000    45.0000 </r>
       <r>     9.9265    10.4615    45.9981 </r>
       <r>    10.0219     0.0000    46.0000 </r>
       <r>    10.1173     0.0000    46.0000 </r>
       <r>    10.2127     0.0000    46.0000 </r>
       <r>    10.3081     0.0000    46.0000 </r>
       <r>    10.4035     0.0000    46.0000 </r>
       <r>    10.4989     0.0000    46.0000 </r>
       <r>    10.5943     0.0000    46.0000 </r>
       <r>    10.6897     0.0000    46.0000 </r>
       <r>    10.7851     0.0000    46.0000 </r>
       <r>    10.8805     0.0000    46.0000 </r>
       <r>    10.9759     0.0000    46.0000 </r>
       <r>    11.0714     0.0000    46.0000 </r>
       <r>    11.1668     4.1321    46.3942 </r>
       <r>    11.2622    10.4818    48.0000 </r>
       <r>    11.3576     0.0000    48.0000 </r>
       <r>    11.4530     0.0000    48.0000 </r>
       <r>    11.5484     0.0000    48.0000 </r>
       <r>    11.6438     0.0000    48.0000 </r>
       <r>    11.7392     0.0000    48.0000 </r>
       <r>    11.8346     0.0000    48.0000 </r>
       <r>    11.9300     0.0000    48.0000 </r>
       <r>    12.0254     0.0000    48.0000 </r>
       <r>    12.1208     0.0000    48.0000 </r>
       <r>    12.2162     0.0000    48.0000 </r>
       <r>    12.3116     0.0000    48.0000 </r>
       <r>    12.4070     0.0000    48.0000 </r>
       <r>    12.5024     0.0000    48.0000 </r>
      </set>
      <set comment="spin 2">
       <r>   -16.1186     0.0000     0.0000 </r>
       <r>   -16.0232     0.0000     0.0000 </r>
       <r>   -15.9278     0.0000     0.0000 </r>
       <r>   -15.8324     0.0000     0.0000 </r>
       <r>   -15.7370     0.0000     0.0000 </r>
       <r>   -15.6416     0.0000     0.0000 </r>
       <r>   -15.5462     0.0000     0.0000 </r>
       <r>   -15.4508     0.0000     0.0000 </r>
       <r>   -15.3554     0.0000     0.0000 </r>
       <r>   -15.2600     0.0000     0.0000 </r>
       <r>   -15.1646     0.0000     0.0000 </r>
       <r>   -15.0692     0.0000     0.0000 </r>
       <r>   -14.9738     0.0000     0.0000 </r>
       <r>   -14.8784     0.0000     0.0000 </r>
       <r>   -14.7830    31.4429     2.9998 </r>
       <r>   -14.6876    31.4588     6.0013 </r>
       <r>   -14.5922    41.9138    10.0000 </r>
       <r>   -14.4968     0.0000    10.0000 </r>
       <r>   -14.4014     0.0000    10.0000 </r>
       <r>   -14.3060     0.0000    10.0000 </r>
       <r>   -14.2106     0.0000    10.0000 </r>
       <r>   -14.1152     0.0000    10.0000 </r>
       <r>   -14.0198     0.0000    10.0000 </r>
       <r>   -13.9243     0.0000    10.0000 </r>
       <r>   -13.8289     0.0000    10.0000 </r>
       <r>   -13.7335     0.0000    10.0000 </r>
       <r>   -13.6381     0.0000    10.0000 </r>
       <r>   -13.5427     0.0000    10.0000 </r>
       <r>   -13.4473     0.0000    10.0000 </r>
       <r>   -13.3519     0.0000    10.0000 </r>
       <r>   -13.2565     0.0000    10.0000 </r>
       <r>   -13.1611     0.0000    10.0000 </r>
       <r>   -13.0657     0.0000    10.0000 </r>
       <r>   -12.9703     0.0000    10.0000 </r>
       <r>   -12.8749     0.0000    10.0000 </r>
       <r>   -12.7795     0.0000    10.0000 </r>
       <r>   -12.6841     0.0000    10.0000 </r>
       <r>   -12.5887     0.0000    10.0000 </r>
       <r>   -12.4933     0.0000    10.0000 </r>
       <r>   -12.3979     0.0000    10.0000 </r>
       <r>   -12.3025     8.3917    10.8006 </r>
       <r>   -12.2071     0.0000    11.0000 </r>
       <r>   -12.1117     0.0000    11.0000 </r>
       <r>   -12.0163     0.0000    11.0000 </r>
       <r>   -11.9209     0.0000    11.0000 </r>
       <r>   -11.8255     0.0000    11.0000 </r>
       <r>   -11.7301     0.0000    11.0000 </r>
       <r>   -11.6347     0.0000    11.0000 </r>
       <r>   -11.5393     0.0000    11.0000 </r>
       <r>   -11.4439     0.0000    11.0000 </r>
       <r>   -11.3485     0.0000    11.0000 </r>
       <r>   -11.2531     0.0000    11.0000 </r>
       <r>   -11.1576     0.0000    11.0000 </r>
       <r>   -11.0622     0.0000    11.0000 </r>
       <r>   -10.9668     0.0000    11.0000 </r>
       <r>   -10.8714     0.0000    11.0000 </r>
       <r>   -10.7760     0.0000    11.0000 </r>
       <r>   -10.6806     0.0000    11.0000 </r>
       <r>   -10.5852    21.0855    13.0116 </r>
       <r>   -10.4898     0.0000    14.0000 </r>
       <r>   -10.3944     0.0000    14.0000 </r>
       <r>   -10.2990     0.0000    14.0000 </r>
       <r>   -10.2036     0.0000    14.0000 </r>
       <r>   -10.1082     0.0000    14.0000 </r>
       <r>   -10.0128     0.0000    14.0000 </r>
       <r>    -9.9174     0.0000    14.0000 </r>
       <r>    -9.8220     0.0000    14.0000 </r>
       <r>    -9.7266     0.0000    14.0000 </r>
       <r>    -9.6312     0.0000    14.0000 </r>
       <r>    -9.5358     0.0000    14.0000 </r>
       <r>    -9.4404     0.0000    14.0000 </r>
       <r>    -9.3450     0.0000    14.0000 </r>
       <r>    -9.2496     0.0000    14.0000 </r>
       <r>    -9.1542     0.0000    14.0000 </r>
       <r>    -9.0588     0.0000    14.0000 </r>
       <r>    -8.9634     0.0000    14.0000 </r>
       <r>    -8.8680     0.0000    14.0000 </r>
       <r>    -8.7726     0.0000    14.0000 </r>
       <r>    -8.6772     0.0000    14.0000 </r>
       <r>    -8.5818     0.0000    14.0000 </r>
       <r>    -8.4864     0.0000    14.0000 </r>
       <r>    -8.3909     0.0000    14.0000 </r>
       <r>    -8.2955     0.0000    14.0000 </r>
       <r>    -8.2001     0.0000    14.0000 </r>
       <r>    -8.1047     0.0000    14.0000 </r>
       <r>    -8.0093     0.0000    14.0000 </r>
       <r>    -7.9139     0.0000    14.0000 </r>
       <r>    -7.8185     0.0000    14.0000 </r>
       <r>    -7.7231     0.0000    14.0000 </r>
       <r>    -7.6277     0.0000    14.0000 </r>
       <r>    -7.5323     0.0000    14.0000 </r>
       <r>    -7.4369     0.0000    14.0000 </r>
       <r>    -7.3415     0.0000    14.0000 </r>
       <r>    -7.2461     0.0000    14.0000 </r>
       <r>    -7.1507     0.0000    14.0000 </r>
       <r>    -7.0553     0.0000    14.0000 </r>
       <r>    -6.9599     0.0000    14.0000 </r>
       <r>    -6.8645     0.0000    14.0000 </r>
       <r>    -6.7691     0.0000    14.0000 </r>
       <r>    -6.6737     0.0000    14.0000 </r>
       <r>    -6.5783     0.0000    14.0000 </r>
       <r>    -6.4829     0.0000    14.0000 </r>
       <r>    -6.3875     0.0000    14.0000 </r>
       <r>    -6.2921     0.0000    14.0000 </r>
       <r>    -6.1967     0.0000    14.0000 </r>
       <r>    -6.1013     0.0000    14.0000 </r>
       <r>    -6.0059     0.0000    14.0000 </r>
       <r>    -5.9105     0.0000    14.0000 </r>
       <r>    -5.8151     0.0000    14.0000 </r>
       <r>    -5.7197     0.0000    14.0000 </r>
       <r>    -5.6242     0.0000    14.0000 </r>
       <r>    -5.5288     0.0000    14.0000 </r>
       <r>    -5.4334     0.0000    14.0000 </r>
       <r>    -5.3380     0.0000    14.0000 </r>
       <r>    -5.2426     0.0000    14.0000 </r>
       <r>    -5.1472     0.0000    14.0000 </r>
       <r>    -5.0518     0.0000    14.0000 </r>
       <r>    -4.9564     0.0000    14.0000 </r>
       <r>    -4.8610     0.0000    14.0000 </r>
       <r>    -4.7656    10.4466    14.9966 </r>
       <r>    -4.6702     0.0000    15.0000 </r>
       <r>    -4.5748     0.0000    15.0000 </r>
       <r>    -4.4794     0.0000    15.0000 </r>
       <r>    -4.3840     0.0000    15.0000 </r>
       <r>    -4.2886     0.0000    15.0000 </r>
       <r>    -4.1932     0.0000    15.0000 </r>
       <r>    -4.0978     0.0000    15.0000 </r>
       <r>    -4.0024     0.0000    15.0000 </r>
       <r>    -3.9070     0.0000    15.0000 </r>
       <r>    -3.8116     0.0000    15.0000 </r>
       <r>    -3.7162     0.0000    15.0000 </r>
       <r>    -3.6208     0.0000    15.0000 </r>
       <r>    -3.5254     0.0000    15.0000 </r>
       <r>    -3.4300     0.0000    15.0000 </r>
       <r>    -3.3346     0.0000    15.0000 </r>
       <r>    -3.2392    10.4818    16.0000 </r>
       <r>    -3.1438     0.0000    16.0000 </r>
       <r>    -3.0484     0.0000    16.0000 </r>
       <r>    -2.9530     0.0000    16.0000 </r>
       <r>    -2.8575     0.0000    16.0000 </r>
       <r>    -2.7621     0.0000    16.0000 </r>
       <r>    -2.6667     0.0000    16.0000 </r>
       <r>    -2.5713     0.0000    16.0000 </r>
       <r>    -2.4759     0.0000    16.0000 </r>
       <r>    -2.3805     0.0000    16.0000 </r>
       <r>    -2.2851     0.0000    16.0000 </r>
       <r>    -2.1897     0.0000    16.0000 </r>
       <r>    -2.0943     0.0000    16.0000 </r>
       <r>    -1.9989     0.0000    16.0000 </r>
       <r>    -1.9035     0.0000    16.0000 </r>
       <r>    -1.8081    10.4818    17.0000 </r>
       <r>    -1.7127     0.0000    17.0000 </r>
       <r>    -1.6173    11.4887    18.0961 </r>
       <r>    -1.5219     0.0000    19.0000 </r>
       <r>    -1.4265     0.0000    19.0000 </r>
       <r>    -1.3311     0.0000    19.0000 </r>
       <r>    -1.2357     0.0000    19.0000 </r>
       <r>    -1.1403    13.3800    20.2765 </r>
       <r>    -1.0449     0.0000    21.0000 </r>
       <r>    -0.9495     0.0000    21.0000 </r>
       <r>    -0.8541     0.0000    21.0000 </r>
       <r>    -0.7587     0.0000    21.0000 </r>
       <r>    -0.6633     8.6900    21.8291 </r>
       <r>    -0.5679     0.0000    23.0000 </r>
       <r>    -0.4725    20.9183    24.9957 </r>
       <r>    -0.3771    10.4785    26.0000 </r>
       <r>    -0.2817     0.0000    26.0000 </r>
       <r>    -0.1863     0.0000    26.0000 </r>
       <r>    -0.0908     0.0000    26.0000 </r>
       <r>     0.0046     0.0000    26.0000 </r>
       <r>     0.1000     0.0000    26.0000 </r>
       <r>     0.1954     0.0000    26.0000 </r>
       <r>     0.2908     0.0000    26.0000 </r>
       <r>     0.3862     0.0421    26.0040 </r>
       <r>     0.4816    20.9214    28.0000 </r>
       <r>     0.5770    10.4818    29.0000 </r>
       <r>     0.6724     0.0000    29.0000 </r>
       <r>     0.7678     0.0000    29.0000 </r>
       <r>     0.8632    10.4818    30.0000 </r>
       <r>     0.9586     4.8049    30.4584 </r>
       <r>     1.0540     8.7469    32.8345 </r>
       <r>     1.1494     0.0000    33.0000 </r>
       <r>     1.2448     0.0000    33.0000 </r>
       <r>     1.3402     0.0000    33.0000 </r>
       <r>     1.4356     0.0000    33.0000 </r>
       <r>     1.5310     0.0000    33.0000 </r>
       <r>     1.6264     0.0000    33.0000 </r>
       <r>     1.7218     0.0000    33.0000 </r>
       <r>     1.8172     0.0000    33.0000 </r>
       <r>     1.9126     0.0000    33.0000 </r>
       <r>     2.0080     0.0000    33.0000 </r>
       <r>     2.1034     0.0000    33.0000 </r>
       <r>     2.1988     0.0000    33.0000 </r>
       <r>     2.2942     0.0000    33.0000 </r>
       <r>     2.3896     0.0000    33.0000 </r>
       <r>     2.4850     0.0000    33.0000 </r>
       <r>     2.5804     0.0000    33.0000 </r>
       <r>     2.6758     0.0000    33.0000 </r>
       <r>     2.7713     0.0000    33.0000 </r>
       <r>     2.8667     0.0000    33.0000 </r>
       <r>     2.9621     1.1295    33.1078 </r>
       <r>     3.0575     0.0000    35.0000 </r>
       <r>     3.1529    10.4818    36.0000 </r>
       <r>     3.2483     0.0000    36.0000 </r>
       <r>     3.3437     0.0000    36.0000 </r>
       <r>     3.4391     0.0000    36.0000 </r>
       <r>     3.5345     0.0000    36.0000 </r>
       <r>     3.6299     0.0000    36.0000 </r>
       <r>     3.7253     0.0000    36.0000 </r>
       <r>     3.8207     0.0000    36.0000 </r>
       <r>     3.9161     0.0000    36.0000 </r>
       <r>     4.0115     0.0000    36.0000 </r>
       <r>     4.1069     0.0000    36.0000 </r>
       <r>     4.2023     0.0000    36.0000 </r>
       <r>     4.2977     0.0000    36.0000 </r>
       <r>     4.3931     0.0000    36.0000 </r>
       <r>     4.4885     0.0000    36.0000 </r>
       <r>     4.5839     0.0000    36.0000 </r>
       <r>     4.6793     0.0000    36.0000 </r>
       <r>     4.7747     0.0000    36.0000 </r>
       <r>     4.8701     1.0219    36.0975 </r>
       <r>     4.9655     0.0000    37.0000 </r>
       <r>     5.0609     0.0000    37.0000 </r>
       <r>     5.1563     0.0000    37.0000 </r>
       <r>     5.2517     0.0000    37.0000 </r>
       <r>     5.3471     0.0000    37.0000 </r>
       <r>     5.4425     0.0000    37.0000 </r>
       <r>     5.5380     0.0000    37.0000 </r>
       <r>     5.6334     0.0000    37.0000 </r>
       <r>     5.7288     0.0000    37.0000 </r>
       <r>     5.8242     0.0000    37.0000 </r>
       <r>     5.9196     0.0000    37.0000 </r>
       <r>     6.0150     0.0000    37.0000 </r>
       <r>     6.1104     0.0000    37.0000 </r>
       <r>     6.2058     0.0000    37.0000 </r>
       <r>     6.3012     0.7222    37.0689 </r>
       <r>     6.3966     0.0000    38.0000 </r>
       <r>     6.4920     0.0000    38.0000 </r>
       <r>     6.5874     0.0000    38.0000 </r>
       <r>     6.6828     0.0000    38.0000 </r>
       <r>     6.7782     9.8302    38.9378 </r>
       <r>     6.8736     0.0000    39.0000 </r>
       <r>     6.9690     0.0000    39.0000 </r>
       <r>     7.0644     0.0000    39.0000 </r>
       <r>     7.1598     0.0000    39.0000 </r>
       <r>     7.2552     0.0000    39.0000 </r>
       <r>     7.3506     0.0000    39.0000 </r>
       <r>     7.4460     0.0000    39.0000 </r>
       <r>     7.5414     0.0000    39.0000 </r>
       <r>     7.6368     0.0000    39.0000 </r>
       <r>     7.7322     0.0000    39.0000 </r>
       <r>     7.8276     0.0000    39.0000 </r>
       <r>     7.9230     0.0000    39.0000 </r>
       <r>     8.0184     0.0000    39.0000 </r>
       <r>     8.1138     0.0000    39.0000 </r>
       <r>     8.2092     0.0000    39.0000 </r>
       <r>     8.3047     0.0000    39.0000 </r>
       <r>     8.4001     0.0000    39.0000 </r>
       <r>     8.4955    20.1456    40.9220 </r>
       <r>     8.5909     0.0000    41.0000 </r>
       <r>     8.6863     0.0000    41.0000 </r>
       <r>     8.7817     0.0000    41.0000 </r>
       <r>     8.8771     0.0000    41.0000 </r>
       <r>     8.9725    10.4818    42.0000 </r>
       <r>     9.0679     0.0000    42.0000 </r>
       <r>     9.1633     0.0000    42.0000 </r>
       <r>     9.2587     0.0000    42.0000 </r>
       <r>     9.3541    20.9636    44.0000 </r>
       <r>     9.4495     0.0000    44.0000 </r>
       <r>     9.5449     2.1622    44.2063 </r>
       <r>     9.6403     0.0000    45.0000 </r>
       <r>     9.7357     0.0000    45.0000 </r>
       <r>     9.8311     0.0000    45.0000 </r>
       <r>     9.9265    10.4654    45.9984 </r>
       <r>    10.0219     0.0000    46.0000 </r>
       <r>    10.1173     0.0000    46.0000 </r>
       <r>    10.2127     0.0000    46.0000 </r>
       <r>    10.3081     0.0000    46.0000 </r>
       <r>    10.4035     0.0000    46.0000 </r>
       <r>    10.4989     0.0000    46.0000 </r>
       <r>    10.5943     0.0000    46.0000 </r>
       <r>    10.6897     0.0000    46.0000 </r>
       <r>    10.7851     0.0000    46.0000 </r>
       <r>    10.8805     0.0000    46.0000 </r>
       <r>    10.9759     0.0000    46.0000 </r>
       <r>    11.0714     0.0000    46.0000 </r>
       <r>    11.1668     4.4865    46.4280 </r>
       <r>    11.2622    10.4650    48.0000 </r>
       <r>    11.3576     0.0000    48.0000 </r>
       <r>    11.4530     0.0000    48.0000 </r>
       <r>    11.5484     0.0000    48.0000 </r>
       <r>    11.6438     0.0000    48.0000 </r>
       <r>    11.7392     0.0000    48.0000 </r>
       <r>    11.8346     0.0000    48.0000 </r>
       <r>    11.9300     0.0000    48.0000 </r>
       <r>    12.0254     0.0000    48.0000 </r>
       <r>    12.1208     0.0000    48.0000 </r>
       <r>    12.2162     0.0000    48.0000 </r>
       <r>    12.3116     0.0000    48.0000 </r>
       <r>    12.4070     0.0000    48.0000 </r>
       <r>    12.5024     0.0000    48.0000 </r>
      </set>
     </set>
    </array>
   </total>
   <partial>
    <array>
     <dimension dim="1">gridpoints</dimension>
     <dimension dim="2">spin</dimension>
     <dimension dim="3">ion</dimension>
     <field>energy</field>
     <field>    s</field>
     <field>   py</field>
     <field>   pz</field>
     <field>   px</field>
     <field>  dxy</field>
     <field>  dyz</field>
     <field>  dz2</field>
     <field>  dxz</field>
     <field>x2-y2</field>
     <set>
      <set comment="ion 1">
       <set comment="spin 1">
        <r>   -16.1186     0.0000     0.0000     0.0000     0.0000     0.0000     0.0000     0.0000     0.0000     0.0000 </r>
        <r>   -16.0232     0.0000     0.0000     0.0000     0.0000     0.0000     0.0000     0.0000     0.0000     0.0000 </r>
        <r>   -15.9278     0.0000     0.0000     0.0000     0.0000     0.0000     0.0000     0.0000     0.0000     0.0000 </r>
        <r>   -15.8324     0.0000     0.0000     0.0000     0.0000     0.0000     0.0000     0.0000     0.0000     0.0000 </r>
        <r>   -15.7370     0.0000     0.0000     0.0000     0.0000     0.0000     0.0000     0.0000     0.0000     0.0000 </r>
        <r>   -15.6416     0.0000     0.0000     0.0000     0.0000     0.0000     0.0000     0.0000     0.0000     0.0000 </r>
        <r>   -15.5462     0.0000     0.0000     0.0000     0.0000     0.0000     0.0000     0.0000     0.0000     0.0000 </r>
        <r>   -15.4508     0.0000     0.0000     0.0000     0.0000     0.0000     0.0000     0.0000     0.0000     0.0000 </r>
        <r>   -15.3554     0.0000     0.0000     0.0000     0.0000     0.0000     0.0000     0.0000     0.0000     0.0000 </r>
        <r>   -15.2600     0.0000     0.0000     0.0000     0.0000     0.0000     0.0000     0.0000     0.0000     0.0000 </r>
        <r>   -15.1646     0.0000     0.0000     0.0000     0.0000     0.0000     0.0000     0.0000     0.0000     0.0000 </r>
        <r>   -15.0692     0.0000     0.0000     0.0000     0.0000     0.0000     0.0000     0.0000     0.0000     0.0000 </r>
        <r>   -14.9738     0.0000     0.0000     0.0000     0.0000     0.0000     0.0000     0.0000     0.0000     0.0000 </r>
        <r>   -14.8784     0.0000     0.0000     0.0000     0.0000     0.0000     0.0000     0.0000     0.0000     0.0000 </r>
        <r>   -14.7830     0.0000     0.0028     0.0028     0.0028     3.5744     3.0082     3.1028     2.9106     2.4968 </r>
        <r>   -14.6876     0.0000     0.0004     0.0004     0.0004     3.6915     3.0735     3.1927     3.0196     2.5560 </r>
        <r>   -14.5922     0.0001     0.0000     0.0000     0.0000     2.9911     4.1950     3.9777     4.3494     5.2413 </r>
        <r>   -14.4968     0.0000     0.0000     0.0000     0.0000     0.0000     0.0000     0.0000     0.0000     0.0000 </r>
        <r>   -14.4014     0.0000     0.0000     0.0000     0.0000     0.0000     0.0000     0.0000     0.0000     0.0000 </r>
        <r>   -14.3060     0.0000     0.0000     0.0000     0.0000     0.0000     0.0000     0.0000     0.0000     0.0000 </r>
        <r>   -14.2106     0.0000     0.0000     0.0000     0.0000     0.0000     0.0000     0.0000     0.0000     0.0000 </r>
        <r>   -14.1152     0.0000     0.0000     0.0000     0.0000     0.0000     0.0000     0.0000     0.0000     0.0000 </r>
        <r>   -14.0198     0.0000     0.0000     0.0000     0.0000     0.0000     0.0000     0.0000     0.0000     0.0000 </r>
        <r>   -13.9243     0.0000     0.0000     0.0000     0.0000     0.0000     0.0000     0.0000     0.0000     0.0000 </r>
        <r>   -13.8289     0.0000     0.0000     0.0000     0.0000     0.0000     0.0000     0.0000     0.0000     0.0000 </r>
        <r>   -13.7335     0.0000     0.0000     0.0000     0.0000     0.0000     0.0000     0.0000     0.0000     0.0000 </r>
        <r>   -13.6381     0.0000     0.0000     0.0000     0.0000     0.0000     0.0000     0.0000     0.0000     0.0000 </r>
        <r>   -13.5427     0.0000     0.0000     0.0000     0.0000     0.0000     0.0000     0.0000     0.0000     0.0000 </r>
        <r>   -13.4473     0.0000     0.0000     0.0000     0.0000     0.0000     0.0000     0.0000     0.0000     0.0000 </r>
        <r>   -13.3519     0.0000     0.0000     0.0000     0.0000     0.0000     0.0000     0.0000     0.0000     0.0000 </r>
        <r>   -13.2565     0.0000     0.0000     0.0000     0.0000     0.0000     0.0000     0.0000     0.0000     0.0000 </r>
        <r>   -13.1611     0.0000     0.0000     0.0000     0.0000     0.0000     0.0000     0.0000     0.0000     0.0000 </r>
        <r>   -13.0657     0.0000     0.0000     0.0000     0.0000     0.0000     0.0000     0.0000     0.0000     0.0000 </r>
        <r>   -12.9703     0.0000     0.0000     0.0000     0.0000     0.0000     0.0000     0.0000     0.0000     0.0000 </r>
        <r>   -12.8749     0.0000     0.0000     0.0000     0.0000     0.0000     0.0000     0.0000     0.0000     0.0000 </r>
        <r>   -12.7795     0.0000     0.0000     0.0000     0.0000     0.0000     0.0000     0.0000     0.0000     0.0000 </r>
        <r>   -12.6841     0.0000     0.0000     0.0000     0.0000     0.0000     0.0000     0.0000     0.0000     0.0000 </r>
        <r>   -12.5887     0.0000     0.0000     0.0000     0.0000     0.0000     0.0000     0.0000     0.0000     0.0000 </r>
        <r>   -12.4933     0.0000     0.0000     0.0000     0.0000     0.0000     0.0000     0.0000     0.0000     0.0000 </r>
        <r>   -12.3979     0.0000     0.0000     0.0000     0.0000     0.0000     0.0000     0.0000     0.0000     0.0000 </r>
        <r>   -12.3025     0.3345     0.0000     0.0000     0.0000     0.0000     0.0000     0.0000     0.0000     0.0000 </r>
        <r>   -12.2071     0.0000     0.0000     0.0000     0.0000     0.0000     0.0000     0.0000     0.0000     0.0000 </r>
        <r>   -12.1117     0.0000     0.0000     0.0000     0.0000     0.0000     0.0000     0.0000     0.0000     0.0000 </r>
        <r>   -12.0163     0.0000     0.0000     0.0000     0.0000     0.0000     0.0000     0.0000     0.0000     0.0000 </r>
        <r>   -11.9209     0.0000     0.0000     0.0000     0.0000     0.0000     0.0000     0.0000     0.0000     0.0000 </r>
        <r>   -11.8255     0.0000     0.0000     0.0000     0.0000     0.0000     0.0000     0.0000     0.0000     0.0000 </r>
        <r>   -11.7301     0.0000     0.0000     0.0000     0.0000     0.0000     0.0000     0.0000     0.0000     0.0000 </r>
        <r>   -11.6347     0.0000     0.0000     0.0000     0.0000     0.0000     0.0000     0.0000     0.0000     0.0000 </r>
        <r>   -11.5393     0.0000     0.0000     0.0000     0.0000     0.0000     0.0000     0.0000     0.0000     0.0000 </r>
        <r>   -11.4439     0.0000     0.0000     0.0000     0.0000     0.0000     0.0000     0.0000     0.0000     0.0000 </r>
        <r>   -11.3485     0.0000     0.0000     0.0000     0.0000     0.0000     0.0000     0.0000     0.0000     0.0000 </r>
        <r>   -11.2531     0.0000     0.0000     0.0000     0.0000     0.0000     0.0000     0.0000     0.0000     0.0000 </r>
        <r>   -11.1576     0.0000     0.0000     0.0000     0.0000     0.0000     0.0000     0.0000     0.0000     0.0000 </r>
        <r>   -11.0622     0.0000     0.0000     0.0000     0.0000     0.0000     0.0000     0.0000     0.0000     0.0000 </r>
        <r>   -10.9668     0.0000     0.0000     0.0000     0.0000     0.0000     0.0000     0.0000     0.0000     0.0000 </r>
        <r>   -10.8714     0.0000     0.0000     0.0000     0.0000     0.0000     0.0000     0.0000     0.0000     0.0000 </r>
        <r>   -10.7760     0.0000     0.0000     0.0000     0.0000     0.0000     0.0000     0.0000     0.0000     0.0000 </r>
        <r>   -10.6806     0.0000     0.0000     0.0000     0.0000     0.0000     0.0000     0.0000     0.0000     0.0000 </r>
        <r>   -10.5852     0.0000     0.0741     0.0624     0.0759     0.0685     0.0800     0.0849     0.0805     0.0745 </r>
        <r>   -10.4898     0.0000     0.0000     0.0000     0.0000     0.0000     0.0000     0.0000     0.0000     0.0000 </r>
        <r>   -10.3944     0.0000     0.0000     0.0000     0.0000     0.0000     0.0000     0.0000     0.0000     0.0000 </r>
        <r>   -10.2990     0.0000     0.0000     0.0000     0.0000     0.0000     0.0000     0.0000     0.0000     0.0000 </r>
        <r>   -10.2036     0.0000     0.0000     0.0000     0.0000     0.0000     0.0000     0.0000     0.0000     0.0000 </r>
        <r>   -10.1082     0.0000     0.0000     0.0000     0.0000     0.0000     0.0000     0.0000     0.0000     0.0000 </r>
        <r>   -10.0128     0.0000     0.0000     0.0000     0.0000     0.0000     0.0000     0.0000     0.0000     0.0000 </r>
        <r>    -9.9174     0.0000     0.0000     0.0000     0.0000     0.0000     0.0000     0.0000     0.0000     0.0000 </r>
        <r>    -9.8220     0.0000     0.0000     0.0000     0.0000     0.0000     0.0000     0.0000     0.0000     0.0000 </r>
        <r>    -9.7266     0.0000     0.0000     0.0000     0.0000     0.0000     0.0000     0.0000     0.0000     0.0000 </r>
        <r>    -9.6312     0.0000     0.0000     0.0000     0.0000     0.0000     0.0000     0.0000     0.0000     0.0000 </r>
        <r>    -9.5358     0.0000     0.0000     0.0000     0.0000     0.0000     0.0000     0.0000     0.0000     0.0000 </r>
        <r>    -9.4404     0.0000     0.0000     0.0000     0.0000     0.0000     0.0000     0.0000     0.0000     0.0000 </r>
        <r>    -9.3450     0.0000     0.0000     0.0000     0.0000     0.0000     0.0000     0.0000     0.0000     0.0000 </r>
        <r>    -9.2496     0.0000     0.0000     0.0000     0.0000     0.0000     0.0000     0.0000     0.0000     0.0000 </r>
        <r>    -9.1542     0.0000     0.0000     0.0000     0.0000     0.0000     0.0000     0.0000     0.0000     0.0000 </r>
        <r>    -9.0588     0.0000     0.0000     0.0000     0.0000     0.0000     0.0000     0.0000     0.0000     0.0000 </r>
        <r>    -8.9634     0.0000     0.0000     0.0000     0.0000     0.0000     0.0000     0.0000     0.0000     0.0000 </r>
        <r>    -8.8680     0.0000     0.0000     0.0000     0.0000     0.0000     0.0000     0.0000     0.0000     0.0000 </r>
        <r>    -8.7726     0.0000     0.0000     0.0000     0.0000     0.0000     0.0000     0.0000     0.0000     0.0000 </r>
        <r>    -8.6772     0.0000     0.0000     0.0000     0.0000     0.0000     0.0000     0.0000     0.0000     0.0000 </r>
        <r>    -8.5818     0.0000     0.0000     0.0000     0.0000     0.0000     0.0000     0.0000     0.0000     0.0000 </r>
        <r>    -8.4864     0.0000     0.0000     0.0000     0.0000     0.0000     0.0000     0.0000     0.0000     0.0000 </r>
        <r>    -8.3909     0.0000     0.0000     0.0000     0.0000     0.0000     0.0000     0.0000     0.0000     0.0000 </r>
        <r>    -8.2955     0.0000     0.0000     0.0000     0.0000     0.0000     0.0000     0.0000     0.0000     0.0000 </r>
        <r>    -8.2001     0.0000     0.0000     0.0000     0.0000     0.0000     0.0000     0.0000     0.0000     0.0000 </r>
        <r>    -8.1047     0.0000     0.0000     0.0000     0.0000     0.0000     0.0000     0.0000     0.0000     0.0000 </r>
        <r>    -8.0093     0.0000     0.0000     0.0000     0.0000     0.0000     0.0000     0.0000     0.0000     0.0000 </r>
        <r>    -7.9139     0.0000     0.0000     0.0000     0.0000     0.0000     0.0000     0.0000     0.0000     0.0000 </r>
        <r>    -7.8185     0.0000     0.0000     0.0000     0.0000     0.0000     0.0000     0.0000     0.0000     0.0000 </r>
        <r>    -7.7231     0.0000     0.0000     0.0000     0.0000     0.0000     0.0000     0.0000     0.0000     0.0000 </r>
        <r>    -7.6277     0.0000     0.0000     0.0000     0.0000     0.0000     0.0000     0.0000     0.0000     0.0000 </r>
        <r>    -7.5323     0.0000     0.0000     0.0000     0.0000     0.0000     0.0000     0.0000     0.0000     0.0000 </r>
        <r>    -7.4369     0.0000     0.0000     0.0000     0.0000     0.0000     0.0000     0.0000     0.0000     0.0000 </r>
        <r>    -7.3415     0.0000     0.0000     0.0000     0.0000     0.0000     0.0000     0.0000     0.0000     0.0000 </r>
        <r>    -7.2461     0.0000     0.0000     0.0000     0.0000     0.0000     0.0000     0.0000     0.0000     0.0000 </r>
        <r>    -7.1507     0.0000     0.0000     0.0000     0.0000     0.0000     0.0000     0.0000     0.0000     0.0000 </r>
        <r>    -7.0553     0.0000     0.0000     0.0000     0.0000     0.0000     0.0000     0.0000     0.0000     0.0000 </r>
        <r>    -6.9599     0.0000     0.0000     0.0000     0.0000     0.0000     0.0000     0.0000     0.0000     0.0000 </r>
        <r>    -6.8645     0.0000     0.0000     0.0000     0.0000     0.0000     0.0000     0.0000     0.0000     0.0000 </r>
        <r>    -6.7691     0.0000     0.0000     0.0000     0.0000     0.0000     0.0000     0.0000     0.0000     0.0000 </r>
        <r>    -6.6737     0.0000     0.0000     0.0000     0.0000     0.0000     0.0000     0.0000     0.0000     0.0000 </r>
        <r>    -6.5783     0.0000     0.0000     0.0000     0.0000     0.0000     0.0000     0.0000     0.0000     0.0000 </r>
        <r>    -6.4829     0.0000     0.0000     0.0000     0.0000     0.0000     0.0000     0.0000     0.0000     0.0000 </r>
        <r>    -6.3875     0.0000     0.0000     0.0000     0.0000     0.0000     0.0000     0.0000     0.0000     0.0000 </r>
        <r>    -6.2921     0.0000     0.0000     0.0000     0.0000     0.0000     0.0000     0.0000     0.0000     0.0000 </r>
        <r>    -6.1967     0.0000     0.0000     0.0000     0.0000     0.0000     0.0000     0.0000     0.0000     0.0000 </r>
        <r>    -6.1013     0.0000     0.0000     0.0000     0.0000     0.0000     0.0000     0.0000     0.0000     0.0000 </r>
        <r>    -6.0059     0.0000     0.0000     0.0000     0.0000     0.0000     0.0000     0.0000     0.0000     0.0000 </r>
        <r>    -5.9105     0.0000     0.0000     0.0000     0.0000     0.0000     0.0000     0.0000     0.0000     0.0000 </r>
        <r>    -5.8151     0.0000     0.0000     0.0000     0.0000     0.0000     0.0000     0.0000     0.0000     0.0000 </r>
        <r>    -5.7197     0.0000     0.0000     0.0000     0.0000     0.0000     0.0000     0.0000     0.0000     0.0000 </r>
        <r>    -5.6242     0.0000     0.0000     0.0000     0.0000     0.0000     0.0000     0.0000     0.0000     0.0000 </r>
        <r>    -5.5288     0.0000     0.0000     0.0000     0.0000     0.0000     0.0000     0.0000     0.0000     0.0000 </r>
        <r>    -5.4334     0.0000     0.0000     0.0000     0.0000     0.0000     0.0000     0.0000     0.0000     0.0000 </r>
        <r>    -5.3380     0.0000     0.0000     0.0000     0.0000     0.0000     0.0000     0.0000     0.0000     0.0000 </r>
        <r>    -5.2426     0.0000     0.0000     0.0000     0.0000     0.0000     0.0000     0.0000     0.0000     0.0000 </r>
        <r>    -5.1472     0.0000     0.0000     0.0000     0.0000     0.0000     0.0000     0.0000     0.0000     0.0000 </r>
        <r>    -5.0518     0.0000     0.0000     0.0000     0.0000     0.0000     0.0000     0.0000     0.0000     0.0000 </r>
        <r>    -4.9564     0.0000     0.0000     0.0000     0.0000     0.0000     0.0000     0.0000     0.0000     0.0000 </r>
        <r>    -4.8610     0.0000     0.0000     0.0000     0.0000     0.0000     0.0000     0.0000     0.0000     0.0000 </r>
        <r>    -4.7656     2.1530     0.0000     0.0000     0.0000     0.0007     0.0009     0.0009     0.0008     0.0006 </r>
        <r>    -4.6702     0.0000     0.0000     0.0000     0.0000     0.0000     0.0000     0.0000     0.0000     0.0000 </r>
        <r>    -4.5748     0.0000     0.0000     0.0000     0.0000     0.0000     0.0000     0.0000     0.0000     0.0000 </r>
        <r>    -4.4794     0.0000     0.0000     0.0000     0.0000     0.0000     0.0000     0.0000     0.0000     0.0000 </r>
        <r>    -4.3840     0.0000     0.0000     0.0000     0.0000     0.0000     0.0000     0.0000     0.0000     0.0000 </r>
        <r>    -4.2886     0.0000     0.0000     0.0000     0.0000     0.0000     0.0000     0.0000     0.0000     0.0000 </r>
        <r>    -4.1932     0.0000     0.0000     0.0000     0.0000     0.0000     0.0000     0.0000     0.0000     0.0000 </r>
        <r>    -4.0978     0.0000     0.0000     0.0000     0.0000     0.0000     0.0000     0.0000     0.0000     0.0000 </r>
        <r>    -4.0024     0.0000     0.0000     0.0000     0.0000     0.0000     0.0000     0.0000     0.0000     0.0000 </r>
        <r>    -3.9070     0.0000     0.0000     0.0000     0.0000     0.0000     0.0000     0.0000     0.0000     0.0000 </r>
        <r>    -3.8116     0.0000     0.0000     0.0000     0.0000     0.0000     0.0000     0.0000     0.0000     0.0000 </r>
        <r>    -3.7162     0.0000     0.0000     0.0000     0.0000     0.0000     0.0000     0.0000     0.0000     0.0000 </r>
        <r>    -3.6208     0.0000     0.0000     0.0000     0.0000     0.0000     0.0000     0.0000     0.0000     0.0000 </r>
        <r>    -3.5254     0.0000     0.0000     0.0000     0.0000     0.0000     0.0000     0.0000     0.0000     0.0000 </r>
        <r>    -3.4300     0.0000     0.0000     0.0000     0.0000     0.0000     0.0000     0.0000     0.0000     0.0000 </r>
        <r>    -3.3346     0.0000     0.0000     0.0000     0.0000     0.0000     0.0000     0.0000     0.0000     0.0000 </r>
        <r>    -3.2392     1.3874     0.0000     0.0000     0.0000     0.0006     0.0008     0.0008     0.0008     0.0005 </r>
        <r>    -3.1438     0.0000     0.0000     0.0000     0.0000     0.0000     0.0000     0.0000     0.0000     0.0000 </r>
        <r>    -3.0484     0.0000     0.0000     0.0000     0.0000     0.0000     0.0000     0.0000     0.0000     0.0000 </r>
        <r>    -2.9530     0.0000     0.0000     0.0000     0.0000     0.0000     0.0000     0.0000     0.0000     0.0000 </r>
        <r>    -2.8575     0.0000     0.0000     0.0000     0.0000     0.0000     0.0000     0.0000     0.0000     0.0000 </r>
        <r>    -2.7621     0.0000     0.0000     0.0000     0.0000     0.0000     0.0000     0.0000     0.0000     0.0000 </r>
        <r>    -2.6667     0.0000     0.0000     0.0000     0.0000     0.0000     0.0000     0.0000     0.0000     0.0000 </r>
        <r>    -2.5713     0.0000     0.0000     0.0000     0.0000     0.0000     0.0000     0.0000     0.0000     0.0000 </r>
        <r>    -2.4759     0.0000     0.0000     0.0000     0.0000     0.0000     0.0000     0.0000     0.0000     0.0000 </r>
        <r>    -2.3805     0.0000     0.0000     0.0000     0.0000     0.0000     0.0000     0.0000     0.0000     0.0000 </r>
        <r>    -2.2851     0.0000     0.0000     0.0000     0.0000     0.0000     0.0000     0.0000     0.0000     0.0000 </r>
[...]
        <r>  0.0000  0.0069  0.0032  0.0010  0.0109  0.0559  0.0592  0.0229  0.0442 </r>
        <r>  0.0000  0.0035  0.0035  0.0041  0.0214  0.0209  0.0352  0.0779  0.0377 </r>
        <r>  0.0001  0.0028  0.0021  0.0711  0.0001  0.0002  0.0002  0.0005  0.0000 </r>
        <r>  0.0000  0.0146  0.0403  0.0093  0.0001  0.0000  0.0001  0.0002  0.0004 </r>
        <r>  0.0000  0.0595  0.0041  0.0006  0.0001  0.0003  0.0001  0.0002  0.0000 </r>
        <r>  0.0001  0.0037  0.0386  0.0337  0.0000  0.0002  0.0001  0.0000  0.0006 </r>
       </set>
       <set comment="band 25">
        <r>  0.0000  0.0121  0.0056  0.0017  0.0008  0.0001  0.0021  0.0007  0.0001 </r>
        <r>  0.0000  0.0060  0.0061  0.0072  0.0007  0.0004  0.0024  0.0001  0.0002 </r>
        <r>  0.0000  0.0020  0.0005  0.0086  0.0332  0.0074  0.0703  0.0622  0.0200 </r>
        <r>  0.0000  0.0053  0.0002  0.0056  0.0226  0.0425  0.0942  0.0073  0.0265 </r>
        <r>  0.0000  0.0041  0.0420  0.0180  0.0000  0.0002  0.0004  0.0001  0.0000 </r>
        <r>  0.0001  0.0736  0.0020  0.0005  0.0004  0.0000  0.0002  0.0001  0.0003 </r>
        <r>  0.0001  0.0287  0.0400  0.0073  0.0000  0.0001  0.0005  0.0003  0.0000 </r>
        <r>  0.0000  0.0055  0.0036  0.0551  0.0001  0.0001  0.0001  0.0000  0.0003 </r>
       </set>
       <set comment="band 26">
        <r>  0.0000  0.0016  0.0052  0.0010  0.0035  0.0004  0.0004  0.0007  0.0000 </r>
        <r>  0.0000  0.0016  0.0052  0.0010  0.0030  0.0009  0.0004  0.0002  0.0005 </r>
        <r>  0.0000  0.0001  0.0003  0.0001  0.1746  0.0567  0.0245  0.0119  0.0327 </r>
        <r>  0.0000  0.0001  0.0003  0.0001  0.2073  0.0240  0.0245  0.0446  0.0000 </r>
        <r>  0.0000  0.0048  0.0370  0.0075  0.0007  0.0001  0.0000  0.0000  0.0000 </r>
        <r>  0.0000  0.0098  0.0273  0.0122  0.0002  0.0003  0.0003  0.0000  0.0000 </r>
        <r>  0.0000  0.0098  0.0370  0.0025  0.0005  0.0000  0.0000  0.0001  0.0001 </r>
        <r>  0.0000  0.0165  0.0273  0.0055  0.0001  0.0000  0.0003  0.0003  0.0001 </r>
       </set>
       <set comment="band 27">
        <r>  0.0000  0.0005  0.0018  0.0004  0.0000  0.0000  0.0000  0.0000  0.0000 </r>
        <r>  0.0000  0.0005  0.0018  0.0004  0.0000  0.0000  0.0000  0.0000  0.0000 </r>
        <r>  0.0000  0.0001  0.0002  0.0000  0.2318  0.0004  0.0214  0.1233  0.0745 </r>
        <r>  0.0000  0.0001  0.0002  0.0000  0.1112  0.1209  0.0214  0.0028  0.1951 </r>
        <r>  0.0002  0.0000  0.0001  0.0003  0.0001  0.0007  0.0000  0.0001  0.0009 </r>
        <r>  0.0002  0.0003  0.0001  0.0000  0.0000  0.0008  0.0010  0.0002  0.0000 </r>
        <r>  0.0002  0.0003  0.0001  0.0000  0.0005  0.0003  0.0000  0.0006  0.0005 </r>
        <r>  0.0002  0.0000  0.0001  0.0003  0.0000  0.0001  0.0010  0.0009  0.0000 </r>
       </set>
       <set comment="band 28">
        <r>  0.0138  0.0000  0.0000  0.0000  0.0000  0.0000  0.0000  0.0000  0.0000 </r>
        <r>  0.0138  0.0000  0.0000  0.0000  0.0000  0.0000  0.0000  0.0000  0.0000 </r>
        <r>  0.0052  0.0000  0.0000  0.0000  0.0354  0.1746  0.1058  0.1158  0.0015 </r>
        <r>  0.0052  0.0000  0.0000  0.0000  0.0354  0.1746  0.1058  0.1157  0.0015 </r>
        <r>  0.0000  0.0023  0.0000  0.0000  0.0006  0.0001  0.0004  0.0004  0.0001 </r>
        <r>  0.0000  0.0001  0.0010  0.0012  0.0012  0.0000  0.0000  0.0003  0.0002 </r>
        <r>  0.0000  0.0001  0.0000  0.0022  0.0008  0.0005  0.0004  0.0001  0.0000 </r>
        <r>  0.0000  0.0010  0.0010  0.0002  0.0014  0.0003  0.0000  0.0000  0.0000 </r>
       </set>
       <set comment="band 29">
        <r>  0.0038  0.0000  0.0000  0.0000  0.0000  0.0000  0.0000  0.0000  0.0000 </r>
        <r>  0.0038  0.0000  0.0000  0.0000  0.0000  0.0000  0.0000  0.0000  0.0000 </r>
        <r>  0.0003  0.0000  0.0000  0.0000  0.0381  0.1879  0.1139  0.1246  0.0016 </r>
        <r>  0.0003  0.0000  0.0000  0.0000  0.0381  0.1879  0.1139  0.1246  0.0016 </r>
        <r>  0.0003  0.0000  0.0000  0.0000  0.0001  0.0007  0.0000  0.0001  0.0001 </r>
        <r>  0.0003  0.0000  0.0000  0.0000  0.0000  0.0004  0.0005  0.0000  0.0001 </r>
        <r>  0.0003  0.0000  0.0000  0.0000  0.0002  0.0002  0.0000  0.0006  0.0000 </r>
        <r>  0.0003  0.0000  0.0000  0.0000  0.0000  0.0001  0.0005  0.0003  0.0000 </r>
       </set>
       <set comment="band 30">
        <r>  0.0000  0.0026  0.0085  0.0017  0.0012  0.0000  0.0001  0.0004  0.0001 </r>
        <r>  0.0000  0.0026  0.0085  0.0017  0.0008  0.0005  0.0001  0.0000  0.0005 </r>
        <r>  0.0000  0.0003  0.0010  0.0002  0.0119  0.0543  0.0000  0.0838  0.2595 </r>
        <r>  0.0000  0.0003  0.0010  0.0002  0.0104  0.0558  0.0000  0.0823  0.2610 </r>
        <r>  0.0000  0.0054  0.0089  0.0018  0.0000  0.0000  0.0002  0.0002  0.0001 </r>
        <r>  0.0000  0.0007  0.0000  0.0154  0.0002  0.0000  0.0001  0.0001  0.0001 </r>
        <r>  0.0000  0.0007  0.0089  0.0065  0.0000  0.0002  0.0002  0.0000  0.0001 </r>
        <r>  0.0000  0.0161  0.0000  0.0000  0.0003  0.0001  0.0001  0.0001  0.0000 </r>
       </set>
       <set comment="band 31">
        <r>  0.0000  0.0005  0.0014  0.0032  0.0001  0.0000  0.0002  0.0002  0.0001 </r>
        <r>  0.0000  0.0040  0.0011  0.0000  0.0001  0.0001  0.0003  0.0000  0.0001 </r>
        <r>  0.0000  0.0098  0.0048  0.0011  0.0668  0.0170  0.2048  0.0167  0.0022 </r>
        <r>  0.0000  0.0051  0.0052  0.0054  0.0694  0.0081  0.1989  0.0305  0.0005 </r>
        <r>  0.0016  0.0166  0.0021  0.0107  0.0001  0.0002  0.0001  0.0000  0.0004 </r>
        <r>  0.0010  0.0025  0.0239  0.0075  0.0001  0.0001  0.0001  0.0003  0.0002 </r>
        <r>  0.0010  0.0130  0.0014  0.0194  0.0004  0.0000  0.0001  0.0002  0.0001 </r>
        <r>  0.0016  0.0058  0.0199  0.0038  0.0000  0.0004  0.0001  0.0000  0.0003 </r>
       </set>
       <set comment="band 32">
        <r>  0.0000  0.0036  0.0003  0.0012  0.0000  0.0002  0.0002  0.0001  0.0001 </r>
        <r>  0.0000  0.0001  0.0006  0.0044  0.0001  0.0001  0.0001  0.0002  0.0001 </r>
        <r>  0.0000  0.0026  0.0005  0.0125  0.0034  0.0838  0.0013  0.1189  0.1001 </r>
        <r>  0.0000  0.0074  0.0001  0.0082  0.0007  0.0927  0.0072  0.1050  0.1017 </r>
        <r>  0.0010  0.0255  0.0015  0.0069  0.0004  0.0000  0.0000  0.0000  0.0003 </r>
        <r>  0.0016  0.0162  0.0024  0.0108  0.0001  0.0002  0.0001  0.0003  0.0002 </r>
        <r>  0.0016  0.0057  0.0022  0.0216  0.0001  0.0000  0.0001  0.0000  0.0008 </r>
        <r>  0.0010  0.0089  0.0064  0.0185  0.0002  0.0001  0.0001  0.0003  0.0000 </r>
       </set>
       <set comment="band 33">
        <r>  0.0000  0.0011  0.0036  0.0007  0.0001  0.0004  0.0000  0.0001  0.0009 </r>
        <r>  0.0000  0.0011  0.0036  0.0007  0.0005  0.0000  0.0000  0.0005  0.0006 </r>
        <r>  0.0000  0.0016  0.0052  0.0011  0.0626  0.1020  0.0138  0.0083  0.1951 </r>
        <r>  0.0000  0.0016  0.0052  0.0011  0.1640  0.0006  0.0138  0.1097  0.0937 </r>
        <r>  0.0009  0.0000  0.0029  0.0141  0.0001  0.0004  0.0000  0.0000  0.0002 </r>
        <r>  0.0009  0.0136  0.0029  0.0006  0.0000  0.0000  0.0001  0.0002  0.0004 </r>
        <r>  0.0009  0.0136  0.0029  0.0006  0.0000  0.0000  0.0000  0.0005  0.0003 </r>
        <r>  0.0009  0.0000  0.0029  0.0141  0.0000  0.0002  0.0001  0.0000  0.0004 </r>
       </set>
       <set comment="band 34">
        <r>  0.0000  0.0035  0.0019  0.0006  0.0028  0.0010  0.0088  0.0005  0.0002 </r>
        <r>  0.0000  0.0019  0.0020  0.0022  0.0030  0.0004  0.0086  0.0013  0.0000 </r>
        <r>  0.0000  0.0036  0.0031  0.0026  0.0354  0.0046  0.1020  0.0149  0.0004 </r>
        <r>  0.0000  0.0047  0.0030  0.0015  0.0328  0.0118  0.1046  0.0056  0.0025 </r>
        <r>  0.0007  0.0474  0.0301  0.0223  0.0001  0.0000  0.0001  0.0005  0.0002 </r>
        <r>  0.0010  0.0419  0.0359  0.0214  0.0001  0.0003  0.0001  0.0000  0.0005 </r>
        <r>  0.0010  0.0454  0.0304  0.0235  0.0000  0.0005  0.0001  0.0000  0.0003 </r>
        <r>  0.0007  0.0433  0.0364  0.0200  0.0004  0.0000  0.0000  0.0002  0.0002 </r>
       </set>
       <set comment="band 35">
        <r>  0.0000  0.0013  0.0001  0.0046  0.0003  0.0033  0.0001  0.0054  0.0042 </r>
        <r>  0.0000  0.0030  0.0000  0.0031  0.0000  0.0040  0.0003  0.0046  0.0044 </r>
        <r>  0.0000  0.0038  0.0000  0.0054  0.0005  0.0470  0.0035  0.0544  0.0519 </r>
        <r>  0.0000  0.0027  0.0001  0.0065  0.0031  0.0398  0.0009  0.0637  0.0498 </r>
        <r>  0.0010  0.0370  0.0005  0.0617  0.0001  0.0000  0.0001  0.0000  0.0007 </r>
        <r>  0.0007  0.0359  0.0007  0.0631  0.0004  0.0001  0.0000  0.0002  0.0000 </r>
        <r>  0.0008  0.0324  0.0002  0.0671  0.0004  0.0000  0.0001  0.0000  0.0003 </r>
        <r>  0.0010  0.0338  0.0003  0.0652  0.0002  0.0002  0.0001  0.0003  0.0002 </r>
       </set>
       <set comment="band 36">
        <r>  0.0000  0.0009  0.0030  0.0006  0.0070  0.0021  0.0010  0.0006  0.0011 </r>
        <r>  0.0000  0.0009  0.0030  0.0006  0.0081  0.0010  0.0010  0.0016  0.0000 </r>
        <r>  0.0000  0.0018  0.0059  0.0012  0.1175  0.0161  0.0142  0.0225  0.0004 </r>
        <r>  0.0000  0.0018  0.0059  0.0012  0.1037  0.0298  0.0142  0.0088  0.0141 </r>
        <r>  0.0000  0.0308  0.0550  0.0112  0.0000  0.0000  0.0004  0.0004  0.0001 </r>
        <r>  0.0000  0.0193  0.0719  0.0058  0.0002  0.0002  0.0002  0.0001  0.0002 </r>
        <r>  0.0000  0.0193  0.0550  0.0226  0.0000  0.0004  0.0004  0.0000  0.0002 </r>
        <r>  0.0000  0.0105  0.0719  0.0146  0.0004  0.0001  0.0002  0.0002  0.0001 </r>
       </set>
       <set comment="band 37">
        <r>  0.1059  0.0000  0.0000  0.0000  0.0000  0.0002  0.0001  0.0001  0.0000 </r>
        <r>  0.1059  0.0000  0.0000  0.0000  0.0000  0.0002  0.0001  0.0001  0.0000 </r>
        <r>  0.0481  0.0000  0.0000  0.0000  0.0002  0.0011  0.0007  0.0007  0.0000 </r>
        <r>  0.0481  0.0000  0.0000  0.0000  0.0002  0.0011  0.0007  0.0007  0.0000 </r>
        <r>  0.0571  0.0000  0.0040  0.0195  0.0000  0.0000  0.0001  0.0001  0.0000 </r>
        <r>  0.0571  0.0187  0.0040  0.0008  0.0001  0.0000  0.0000  0.0001  0.0000 </r>
        <r>  0.0571  0.0187  0.0040  0.0008  0.0000  0.0000  0.0001  0.0000  0.0000 </r>
        <r>  0.0571  0.0000  0.0040  0.0195  0.0000  0.0001  0.0000  0.0000  0.0001 </r>
       </set>
       <set comment="band 38">
        <r>  0.0000  0.0105  0.0343  0.0070  0.0089  0.0022  0.0012  0.0009  0.0008 </r>
        <r>  0.0000  0.0105  0.0343  0.0070  0.0095  0.0015  0.0012  0.0016  0.0001 </r>
        <r>  0.0000  0.0037  0.0122  0.0025  0.0222  0.0035  0.0027  0.0038  0.0003 </r>
        <r>  0.0000  0.0037  0.0122  0.0025  0.0205  0.0052  0.0027  0.0021  0.0019 </r>
        <r>  0.0125  0.0000  0.0005  0.0024  0.0009  0.0046  0.0028  0.0029  0.0000 </r>
        <r>  0.0125  0.0023  0.0005  0.0001  0.0009  0.0044  0.0027  0.0032  0.0001 </r>
        <r>  0.0125  0.0023  0.0005  0.0001  0.0009  0.0045  0.0028  0.0031  0.0001 </r>
        <r>  0.0125  0.0000  0.0005  0.0024  0.0010  0.0048  0.0027  0.0029  0.0000 </r>
       </set>
       <set comment="band 39">
        <r>  0.0998  0.0000  0.0000  0.0000  0.0005  0.0027  0.0016  0.0018  0.0000 </r>
        <r>  0.0998  0.0000  0.0000  0.0000  0.0005  0.0027  0.0016  0.0018  0.0000 </r>
        <r>  0.0220  0.0000  0.0000  0.0000  0.0034  0.0170  0.0103  0.0113  0.0001 </r>
        <r>  0.0220  0.0000  0.0000  0.0000  0.0034  0.0170  0.0103  0.0113  0.0001 </r>
        <r>  0.0000  0.0044  0.0334  0.0068  0.0071  0.0014  0.0021  0.0021  0.0007 </r>
        <r>  0.0000  0.0045  0.0036  0.0364  0.0096  0.0009  0.0004  0.0016  0.0008 </r>
        <r>  0.0000  0.0045  0.0334  0.0066  0.0077  0.0028  0.0021  0.0008  0.0001 </r>
        <r>  0.0000  0.0402  0.0036  0.0007  0.0102  0.0021  0.0004  0.0005  0.0001 </r>
       </set>
       <set comment="band 40">
        <r>  0.0000  0.0280  0.0035  0.1135  0.0004  0.0016  0.0002  0.0035  0.0023 </r>
        <r>  0.0000  0.0456  0.0006  0.0989  0.0002  0.0026  0.0017  0.0014  0.0022 </r>
        <r>  0.0000  0.0057  0.0000  0.0079  0.0005  0.0010  0.0006  0.0030  0.0017 </r>
        <r>  0.0000  0.0015  0.0007  0.0114  0.0004  0.0021  0.0021  0.0007  0.0016 </r>
        <r>  0.0047  0.0018  0.0085  0.0053  0.0001  0.0046  0.0014  0.0140  0.0002 </r>
        <r>  0.0021  0.0040  0.0210  0.0075  0.0001  0.0007  0.0004  0.0042  0.0109 </r>
        <r>  0.0021  0.0095  0.0211  0.0019  0.0000  0.0099  0.0000  0.0054  0.0008 </r>
        <r>  0.0047  0.0044  0.0109  0.0003  0.0001  0.0046  0.0001  0.0003  0.0152 </r>
       </set>
       <set comment="band 41">
        <r>  0.0000  0.0876  0.0454  0.0120  0.0015  0.0010  0.0052  0.0000  0.0004 </r>
        <r>  0.0000  0.0700  0.0483  0.0266  0.0016  0.0000  0.0037  0.0022  0.0005 </r>
        <r>  0.0000  0.0052  0.0046  0.0039  0.0010  0.0012  0.0040  0.0000  0.0006 </r>
        <r>  0.0000  0.0093  0.0039  0.0004  0.0012  0.0002  0.0025  0.0023  0.0007 </r>
        <r>  0.0021  0.0039  0.0259  0.0027  0.0019  0.0009  0.0119  0.0000  0.0015 </r>
        <r>  0.0047  0.0063  0.0066  0.0026  0.0075  0.0032  0.0058  0.0007  0.0031 </r>
        <r>  0.0047  0.0009  0.0133  0.0014  0.0008  0.0007  0.0133  0.0035  0.0020 </r>
        <r>  0.0021  0.0095  0.0167  0.0063  0.0044  0.0002  0.0061  0.0037  0.0018 </r>
       </set>
       <set comment="band 42">
        <r>  0.0000  0.0333  0.1088  0.0221  0.0008  0.0000  0.0001  0.0007  0.0009 </r>
        <r>  0.0000  0.0333  0.1088  0.0221  0.0002  0.0006  0.0001  0.0001  0.0015 </r>
        <r>  0.0000  0.0062  0.0203  0.0041  0.0002  0.0007  0.0001  0.0002  0.0018 </r>
        <r>  0.0000  0.0062  0.0203  0.0041  0.0008  0.0001  0.0001  0.0008  0.0011 </r>
        <r>  0.0000  0.0005  0.0050  0.0010  0.0109  0.0022  0.0053  0.0055  0.0018 </r>
        <r>  0.0000  0.0007  0.0006  0.0052  0.0185  0.0009  0.0003  0.0036  0.0023 </r>
        <r>  0.0000  0.0007  0.0050  0.0008  0.0126  0.0067  0.0053  0.0010  0.0000 </r>
        <r>  0.0000  0.0058  0.0006  0.0001  0.0207  0.0042  0.0003  0.0003  0.0001 </r>
       </set>
       <set comment="band 43">
        <r>  0.0000  0.0374  0.0135  0.0006  0.0001  0.0047  0.0001  0.0062  0.0054 </r>
        <r>  0.0000  0.0050  0.0031  0.0434  0.0026  0.0008  0.0050  0.0061  0.0021 </r>
        <r>  0.0000  0.0009  0.0011  0.0119  0.0001  0.0066  0.0023  0.0049  0.0063 </r>
        <r>  0.0000  0.0096  0.0039  0.0004  0.0043  0.0000  0.0104  0.0047  0.0007 </r>
        <r>  0.0050  0.0023  0.0025  0.0136  0.0000  0.0019  0.0061  0.0010  0.0128 </r>
        <r>  0.0012  0.0032  0.0355  0.0070  0.0004  0.0008  0.0027  0.0015  0.0049 </r>
        <r>  0.0012  0.0176  0.0232  0.0049  0.0017  0.0014  0.0046  0.0018  0.0007 </r>
        <r>  0.0050  0.0022  0.0145  0.0017  0.0035  0.0103  0.0015  0.0009  0.0057 </r>
       </set>
       <set comment="band 44">
        <r>  0.0000  0.0037  0.0038  0.0440  0.0036  0.0007  0.0109  0.0011  0.0001 </r>
        <r>  0.0000  0.0361  0.0143  0.0012  0.0012  0.0046  0.0061  0.0012  0.0034 </r>
        <r>  0.0000  0.0102  0.0036  0.0001  0.0044  0.0000  0.0112  0.0040  0.0004 </r>
        <r>  0.0000  0.0015  0.0008  0.0116  0.0003  0.0066  0.0031  0.0042  0.0060 </r>
        <r>  0.0012  0.0091  0.0351  0.0014  0.0019  0.0000  0.0001  0.0011  0.0071 </r>
        <r>  0.0050  0.0154  0.0025  0.0005  0.0002  0.0025  0.0000  0.0154  0.0037 </r>
        <r>  0.0050  0.0010  0.0144  0.0030  0.0005  0.0002  0.0016  0.0007  0.0189 </r>
        <r>  0.0012  0.0087  0.0235  0.0135  0.0000  0.0040  0.0013  0.0049  0.0001 </r>
       </set>
       <set comment="band 45">
        <r>  0.0762  0.0000  0.0000  0.0000  0.0004  0.0020  0.0012  0.0013  0.0000 </r>
        <r>  0.0762  0.0000  0.0000  0.0000  0.0004  0.0020  0.0012  0.0013  0.0000 </r>
        <r>  0.0549  0.0000  0.0000  0.0000  0.0003  0.0015  0.0009  0.0010  0.0000 </r>
        <r>  0.0549  0.0000  0.0000  0.0000  0.0003  0.0015  0.0009  0.0010  0.0000 </r>
        <r>  0.0068  0.0000  0.0092  0.0454  0.0007  0.0032  0.0054  0.0020  0.0024 </r>
        <r>  0.0068  0.0436  0.0092  0.0019  0.0027  0.0001  0.0037  0.0052  0.0019 </r>
        <r>  0.0068  0.0436  0.0092  0.0019  0.0018  0.0010  0.0054  0.0042  0.0012 </r>
        <r>  0.0068  0.0000  0.0092  0.0454  0.0010  0.0047  0.0037  0.0006  0.0036 </r>
       </set>
       <set comment="band 46">
        <r>  0.0369  0.0000  0.0000  0.0000  0.0011  0.0053  0.0032  0.0035  0.0000 </r>
        <r>  0.0369  0.0000  0.0000  0.0000  0.0011  0.0053  0.0032  0.0035  0.0000 </r>
        <r>  0.1049  0.0000  0.0000  0.0000  0.0000  0.0002  0.0001  0.0001  0.0000 </r>
        <r>  0.1049  0.0000  0.0000  0.0000  0.0000  0.0002  0.0001  0.0001  0.0000 </r>
        <r>  0.0000  0.0330  0.0162  0.0033  0.0137  0.0028  0.0023  0.0024  0.0008 </r>
        <r>  0.0000  0.0004  0.0033  0.0488  0.0013  0.0094  0.0091  0.0002  0.0020 </r>
        <r>  0.0000  0.0004  0.0162  0.0359  0.0093  0.0014  0.0023  0.0038  0.0052 </r>
        <r>  0.0000  0.0485  0.0033  0.0007  0.0002  0.0000  0.0091  0.0095  0.0030 </r>
       </set>
       <set comment="band 47">
        <r>  0.0000  0.0224  0.0057  0.0221  0.0009  0.0006  0.0024  0.0013  0.0008 </r>
        <r>  0.0000  0.0205  0.0054  0.0242  0.0006  0.0012  0.0021  0.0010  0.0011 </r>
        <r>  0.0000  0.0337  0.0157  0.0222  0.0008  0.0006  0.0025  0.0009  0.0006 </r>
        <r>  0.0000  0.0209  0.0144  0.0363  0.0007  0.0009  0.0024  0.0008  0.0007 </r>
        <r>  0.0147  0.0030  0.0003  0.0007  0.0032  0.0076  0.0021  0.0060  0.0025 </r>
        <r>  0.0128  0.0005  0.0009  0.0032  0.0006  0.0060  0.0110  0.0009  0.0015 </r>
        <r>  0.0128  0.0004  0.0004  0.0038  0.0038  0.0078  0.0022  0.0047  0.0015 </r>
        <r>  0.0148  0.0025  0.0008  0.0009  0.0012  0.0012  0.0118  0.0060  0.0005 </r>
       </set>
       <set comment="band 48">
        <r>  0.0000  0.0102  0.0351  0.0040  0.0030  0.0017  0.0010  0.0066  0.0013 </r>
        <r>  0.0000  0.0095  0.0363  0.0036  0.0021  0.0031  0.0004  0.0028  0.0051 </r>
        <r>  0.0000  0.0245  0.0092  0.0170  0.0007  0.0011  0.0009  0.0039  0.0004 </r>
        <r>  0.0000  0.0119  0.0208  0.0183  0.0011  0.0022  0.0005  0.0020  0.0011 </r>
        <r>  0.0087  0.0022  0.0001  0.0029  0.0021  0.0042  0.0125  0.0014  0.0011 </r>
        <r>  0.0066  0.0043  0.0020  0.0013  0.0016  0.0077  0.0137  0.0042  0.0056 </r>
        <r>  0.0114  0.0011  0.0003  0.0022  0.0001  0.0058  0.0101  0.0001  0.0008 </r>
        <r>  0.0070  0.0016  0.0026  0.0023  0.0001  0.0045  0.0057  0.0089  0.0081 </r>
       </set>
      </set>
     </set>
    </set>
   </array>
  </projected>
 </calculation>
 <structure name="finalpos" >
  <crystal>
   <varray name="basis" >
    <v>       5.10874036       0.00000000      -2.30030869 </v>
    <v>      -1.03575852       5.00264257      -2.30030916 </v>
    <v>       0.00000000       0.00000000       6.82313837 </v>
   </varray>
   <i name="volume">    174.38032574 </i>
   <varray name="rec_basis" >
    <v>       0.19574297       0.04052707       0.00000000 </v>
    <v>       0.00000000       0.19989435       0.00000000 </v>
    <v>       0.06599152       0.08105414       0.14656012 </v>
   </varray>
  </crystal>
  <varray name="positions" >
   <v>       0.50000000       0.50000000       0.00000000 </v>
   <v>       0.75000000       0.25000000       0.50000000 </v>
   <v>       0.00000000       0.00000000       0.00000000 </v>
   <v>       0.25000000       0.75000000       0.50000000 </v>
   <v>       0.37121578       0.37500000       0.25000000 </v>
   <v>       0.12500000       0.62878422       0.75000000 </v>
   <v>       0.62500000       0.12121578       0.75000000 </v>
   <v>       0.87878422       0.87500000       0.25000000 </v>
  </varray>
 </structure>
</modeling>
