<?xml version="1.0" encoding="ISO-8859-1"?>
<modeling>
 <generator>
  <i name="program" type="string">vasp </i>
  <i name="version" type="string">6.4.2  </i>
  <i name="subversion" type="string">20Jul23 (build Mar 15 2024 16:31:38) complex                          parallel </i>
  <i name="platform" type="string">LinuxIFC </i>
  <i name="date" type="string">2025 03 26 </i>
  <i name="time" type="string">18:59:31 </i>
 </generator>
 <incar>
  <i type="string" name="PREC">Accurate</i>
  <i type="string" name="ALGO">Normal</i>
  <i type="int" name="ISPIN">     2</i>
  <i type="int" name="NELM">   200</i>
  <i name="EDIFF">      0.00001000</i>
  <i type="int" name="NSW">     0</i>
  <i name="ENCUT">    680.00000000</i>
  <i name="ENAUG">   1360.00000000</i>
  <v name="MAGMOM">      0.60000000      0.60000000      0.60000000      0.60000000      0.60000000      0.60000000      0.60000000      0.60000000      0.60000000      0.60000000      0.60000000      0.60000000      0.60000000      0.60000000      0.60000000      0.60000000</v>
  <i type="logical" name="LREAL"> F  </i>
  <i type="int" name="ISMEAR">     0</i>
  <i name="SIGMA">      0.01000000</i>
  <i type="int" name="LMAXMIX">     4</i>
  <i type="logical" name="LWAVE"> T  </i>
  <i type="logical" name="LCHARG"> T  </i>
  <i type="logical" name="LVTOT"> T  </i>
  <i type="int" name="LORBIT">    11</i>
  <i type="logical" name="LELF"> F  </i>
  <i type="logical" name="LASPH"> T  </i>
  <i type="logical" name="LAECHG"> T  </i>
  <i name="HFSCREEN">      0.20000000</i>
  <i type="logical" name="LHFCALC"> T  </i>
  <i type="string" name="GGA">Pe</i>
  <i type="string" name="PRECFOCK">Accurate</i>
  <i type="logical" name="LDAU"> F  </i>
  <i type="logical" name="LMIXTAU"> T  </i>
 </incar>
 <primitive_cell>
  <structure name="primitive_cell" >
   <crystal>
    <varray name="basis" >
     <v>       3.80157474       0.00000000       0.00000000 </v>
     <v>      -0.00000000       6.07432056       0.00000000 </v>
     <v>       0.00000000       0.00000000      14.49176048 </v>
    </varray>
    <i name="volume">    334.64349539 </i>
    <varray name="rec_basis" >
     <v>       0.26304889       0.00000000       0.00000000 </v>
     <v>       0.00000000       0.16462747       0.00000000 </v>
     <v>      -0.00000000      -0.00000000       0.06900473 </v>
    </varray>
   </crystal>
   <varray name="positions" >
    <v>       0.25000000       0.25010162       0.82821842 </v>
    <v>       0.25000000       0.75010162       0.67178158 </v>
    <v>       0.75000000       0.74989838       0.17178158 </v>
    <v>       0.75000000       0.24989838       0.32821842 </v>
    <v>       0.25000000       0.72881200       0.43458741 </v>
    <v>       0.75000000       0.27118800       0.56541259 </v>
    <v>       0.25000000       0.22881200       0.06541259 </v>
    <v>       0.75000000       0.77118800       0.93458741 </v>
    <v>       0.25000000       0.12368586       0.40104516 </v>
    <v>       0.75000000       0.87631414       0.59895484 </v>
    <v>       0.25000000       0.62368586       0.09895484 </v>
    <v>       0.75000000       0.37631414       0.90104516 </v>
    <v>       0.75000000       0.62427265       0.32157721 </v>
    <v>       0.25000000       0.87572735       0.82157721 </v>
    <v>       0.75000000       0.12427265       0.17842279 </v>
    <v>       0.25000000       0.37572735       0.67842279 </v>
   </varray>
  </structure>
  <varray name="primitive_index" >
   <v type="int" >        1 </v>
   <v type="int" >        2 </v>
   <v type="int" >        3 </v>
   <v type="int" >        4 </v>
   <v type="int" >        5 </v>
   <v type="int" >        6 </v>
   <v type="int" >        7 </v>
   <v type="int" >        8 </v>
   <v type="int" >        9 </v>
   <v type="int" >       10 </v>
   <v type="int" >       11 </v>
   <v type="int" >       12 </v>
   <v type="int" >       13 </v>
   <v type="int" >       14 </v>
   <v type="int" >       15 </v>
   <v type="int" >       16 </v>
  </varray>
 </primitive_cell>
 <kpoints>
  <varray name="kpointlist" >
   <v>       0.00000000       0.00000000       0.00000000 </v>
   <v>       0.00000000       0.25000000       0.00000000 </v>
  </varray>
  <varray name="weights" >
   <v>       0.50000000 </v>
   <v>       0.50000000 </v>
  </varray>
 </kpoints>
 <parameters>
  <separator name="general" >
   <i type="string" name="SYSTEM">unknown system</i>
   <i type="logical" name="LCOMPAT"> F  </i>
  </separator>
  <separator name="electronic" >
   <i type="string" name="PREC">accura</i>
   <i name="ENMAX">    680.00000000</i>
   <i name="ENAUG">   1360.00000000</i>
   <i name="EDIFF">      0.00001000</i>
   <i type="int" name="IALGO">    38</i>
   <i type="int" name="IWAVPR">    10</i>
   <i type="int" name="NBANDS">    72</i>
   <i type="int" name="NBANDSLOW">    -1</i>
   <i type="int" name="NBANDSHIGH">    -1</i>
   <i name="NELECT">    112.00000000</i>
   <i type="int" name="TURBO">     0</i>
   <i type="int" name="IRESTART">     0</i>
   <i type="int" name="NREBOOT">     0</i>
   <i type="int" name="NMIN">     0</i>
   <i name="EREF">      0.00000000</i>
   <separator name="electronic smearing" >
    <i type="int" name="ISMEAR">     0</i>
    <i name="SIGMA">      0.01000000</i>
    <i name="KSPACING">      0.50000000</i>
    <i type="logical" name="KGAMMA"> T  </i>
    <i type="logical" name="KBLOWUP"> T  </i>
   </separator>
   <separator name="electronic projectors" >
    <i type="logical" name="LREAL"> F  </i>
    <v name="ROPT">      0.00000000      0.00000000      0.00000000</v>
    <i type="int" name="LMAXPAW">  -100</i>
    <i type="int" name="LMAXMIX">     4</i>
    <i type="logical" name="NLSPLINE"> F  </i>
   </separator>
   <separator name="electronic startup" >
    <i type="int" name="ISTART">     0</i>
    <i type="int" name="ICHARG">     2</i>
    <i type="int" name="INIWAV">     1</i>
   </separator>
   <separator name="electronic spin" >
    <i type="int" name="ISPIN">     2</i>
    <i type="logical" name="LNONCOLLINEAR"> F  </i>
    <v name="MAGMOM">      0.60000000      0.60000000      0.60000000      0.60000000      0.60000000      0.60000000      0.60000000      0.60000000      0.60000000      0.60000000      0.60000000      0.60000000      0.60000000      0.60000000      0.60000000      0.60000000</v>
    <i name="NUPDOWN">     -1.00000000</i>
    <i type="logical" name="LSORBIT"> F  </i>
    <v name="SAXIS">      0.00000000      0.00000000      1.00000000</v>
    <i type="logical" name="LSPIRAL"> F  </i>
    <v name="QSPIRAL">      0.00000000      0.00000000      0.00000000</v>
    <i type="logical" name="LZEROZ"> F  </i>
   </separator>
   <separator name="electronic exchange-correlation" >
    <i type="logical" name="LASPH"> T  </i>
    <i type="logical" name="LMETAGGA"> F  </i>
   </separator>
   <separator name="electronic convergence" >
    <i type="int" name="NELM">   200</i>
    <i type="int" name="NELMDL">     0</i>
    <i type="int" name="NELMIN">     2</i>
    <i name="ENINI">    680.00000000</i>
    <separator name="electronic convergence detail" >
     <i type="logical" name="LDIAG"> T  </i>
     <i type="logical" name="LSUBROT"> F  </i>
     <i name="WEIMIN">      0.00000000</i>
     <i name="EBREAK">      0.00000003</i>
     <i name="DEPER">      0.30000000</i>
     <i type="int" name="NRMM">     4</i>
     <i name="TIME">      0.40000000</i>
    </separator>
   </separator>
   <separator name="electronic mixer" >
    <i name="AMIX">      0.40000000</i>
    <i name="BMIX">      1.00000000</i>
    <i name="AMIN">      0.10000000</i>
    <i name="AMIX_MAG">      1.60000000</i>
    <i name="BMIX_MAG">      1.00000000</i>
    <separator name="electronic mixer details" >
     <i type="int" name="IMIX">     1</i>
     <i type="logical" name="MIXFIRST"> F  </i>
     <i type="int" name="MAXMIX">   -45</i>
     <i name="WC">    100.00000000</i>
     <i type="int" name="INIMIX">     1</i>
     <i type="int" name="MIXPRE">     1</i>
     <i type="int" name="MREMOVE">     5</i>
    </separator>
   </separator>
   <separator name="electronic dipolcorrection" >
    <i type="logical" name="LDIPOL"> F  </i>
    <i type="logical" name="LMONO"> F  </i>
    <i type="int" name="IDIPOL">     0</i>
    <i name="EPSILON">      1.00000000</i>
    <v name="DIPOL">   -100.00000000   -100.00000000   -100.00000000</v>
    <i name="EFIELD">      0.00000000</i>
   </separator>
  </separator>
  <separator name="grids" >
   <i type="int" name="NGX">    32</i>
   <i type="int" name="NGY">    54</i>
   <i type="int" name="NGZ">   126</i>
   <i type="int" name="NGXF">    64</i>
   <i type="int" name="NGYF">   108</i>
   <i type="int" name="NGZF">   252</i>
   <i type="logical" name="ADDGRID"> F  </i>
  </separator>
  <separator name="ionic" >
   <i type="int" name="NSW">     0</i>
   <i type="int" name="IBRION">    -1</i>
   <i type="int" name="MDALGO">     0</i>
   <i type="int" name="ISIF">     0</i>
   <i name="PSTRESS">      0.00000000</i>
   <i name="EDIFFG">      0.00010000</i>
   <i type="int" name="NFREE">     0</i>
   <i name="POTIM">      0.50000000</i>
   <i name="SMASS">     -3.00000000</i>
   <i name="SCALEE">      1.00000000</i>
  </separator>
  <separator name="ionic md" >
   <i name="TEBEG">      0.00010000</i>
   <i name="TEEND">      0.00010000</i>
   <i type="int" name="NBLOCK">     1</i>
   <i type="int" name="KBLOCK">     1</i>
   <i type="int" name="NPACO">   256</i>
   <i name="APACO">     10.00000000</i>
  </separator>
  <separator name="symmetry" >
   <i type="int" name="ISYM">     3</i>
   <i name="SYMPREC">      0.00001000</i>
  </separator>
  <separator name="dos" >
   <i type="int" name="LORBIT">    11</i>
   <v name="RWIGS">     -1.00000000     -1.00000000     -1.00000000</v>
   <i type="int" name="NEDOS">   301</i>
   <i name="EMIN">     10.00000000</i>
   <i name="EMAX">    -10.00000000</i>
   <i name="EFERMI">      0.00000000</i>
  </separator>
  <separator name="writing" >
   <i type="int" name="NWRITE">     2</i>
   <i type="logical" name="LWAVE"> T  </i>
   <i type="logical" name="LDOWNSAMPLE"> F  </i>
   <i type="logical" name="LCHARG"> T  </i>
   <i type="logical" name="LPARD"> F  </i>
   <i type="logical" name="LVTOT"> T  </i>
   <i type="logical" name="LVHAR"> F  </i>
   <i type="logical" name="LELF"> F  </i>
   <i type="logical" name="LOPTICS"> F  </i>
   <v name="STM">      0.00000000      0.00000000      0.00000000      0.00000000      0.00000000      0.00000000      0.00000000</v>
  </separator>
  <separator name="performance" >
   <i type="int" name="NPAR">    12</i>
   <i type="int" name="NSIM">     4</i>
   <i type="int" name="NBLK">    -1</i>
   <i type="logical" name="LPLANE"> T  </i>
   <i type="logical" name="LSCALAPACK"> T  </i>
   <i type="logical" name="LSCAAWARE"> F  </i>
   <i type="logical" name="LSCALU"> F  </i>
   <i type="logical" name="LASYNC"> F  </i>
   <i type="logical" name="LORBITALREAL"> F  </i>
  </separator>
  <separator name="miscellaneous" >
   <i type="int" name="IDIOT">     3</i>
   <i type="int" name="PHON_NSTRUCT">    -1</i>
   <i type="logical" name="LMUSIC"> F  </i>
   <v name="POMASS">     63.54600000    121.75000000     32.06600000</v>
   <v name="DARWINR">      0.00000000      0.00000000      0.00000000</v>
   <v name="DARWINV">      1.00000000      1.00000000      1.00000000</v>
   <i type="logical" name="LCORR"> T  </i>
  </separator>
  <i type="logical" name="GGA_COMPAT"> T  </i>
  <i type="logical" name="LBERRY"> F  </i>
  <i type="int" name="ICORELEVEL">     0</i>
  <i type="logical" name="LDAU"> F  </i>
  <i type="int" name="I_CONSTRAINED_M">     0</i>
  <separator name="electronic exchange-correlation" >
   <i type="string" name="GGA">PE</i>
   <i type="int" name="VOSKOWN">     0</i>
   <i type="logical" name="LHFCALC"> T  </i>
   <i type="string" name="PRECFOCK">accur.</i>
   <i type="logical" name="LSYMGRAD"> F  </i>
   <i type="logical" name="LHFONE"> F  </i>
   <i type="logical" name="LRHFCALC"> F  </i>
   <i type="logical" name="LTHOMAS"> F  </i>
   <i type="logical" name="LMODELHF"> F  </i>
   <i type="logical" name="LFOCKACE"> T  </i>
   <i name="ENCUT4O">     -1.00000000</i>
   <i type="int" name="EXXOEP">     0</i>
   <i type="int" name="FOURORBIT">     0</i>
   <i name="AEXX">      0.25000000</i>
   <i name="HFALPHA">     -1.00000000</i>
   <i name="MCALPHA">      0.00000000</i>
   <i name="ALDAX">      0.75000000</i>
   <i name="AGGAX">      0.75000000</i>
   <i name="ALDAC">      1.00000000</i>
   <i name="AGGAC">      1.00000000</i>
   <i type="int" name="NKREDX">     1</i>
   <i type="int" name="NKREDY">     1</i>
   <i type="int" name="NKREDZ">     1</i>
   <i type="logical" name="SHIFTRED"> F  </i>
   <i type="logical" name="ODDONLY"> F  </i>
   <i type="logical" name="EVENONLY"> F  </i>
   <i type="int" name="LMAXFOCK">     4</i>
   <i type="int" name="NMAXFOCKAE">     1</i>
   <i type="logical" name="LFOCKAEDFT"> F  </i>
   <i name="HFSCREEN">      0.20000000</i>
   <i name="HFSCREENC">      0.20000000</i>
   <i type="int" name="NBANDSGWLOW">     1</i>
  </separator>
  <separator name="vdW DFT" >
   <i type="logical" name="LUSE_VDW"> F  </i>
   <i type="int" name="IVDW_NL">     1</i>
   <i type="logical" name="LSPIN_VDW"> F  </i>
   <i name="Zab_VDW">     -0.84910000</i>
   <i name="PARAM1">      0.12340000</i>
   <i name="PARAM2">      1.00000000</i>
   <i name="PARAM3">      0.00000000</i>
  </separator>
  <separator name="model GW" >
   <i type="int" name="MODEL_GW">     0</i>
   <i name="MODEL_EPS0">     12.54913108</i>
   <i name="MODEL_ALPHA">      1.00000000</i>
  </separator>
  <separator name="linear response parameters" >
   <i type="logical" name="LEPSILON"> F  </i>
   <i type="logical" name="LRPA"> F  </i>
   <i type="logical" name="LNABLA"> F  </i>
   <i type="logical" name="LVEL"> F  </i>
   <i name="CSHIFT">      0.10000000</i>
   <i name="OMEGAMAX">     -1.00000000</i>
   <i name="DEG_THRESHOLD">      0.00200000</i>
   <i name="RTIME">     -0.10000000</i>
   <i name="WPLASMAI">      0.00000000</i>
   <v name="DFIELD">      0.00000000      0.00000000      0.00000000</v>
   <v name="WPLASMA">      0.00000000      0.00000000      0.00000000      0.00000000      0.00000000      0.00000000      0.00000000      0.00000000      0.00000000</v>
  </separator>
  <separator name="orbital magnetization" >
   <i type="logical" name="NUCIND"> F  </i>
   <v name="MAGPOS">      0.00000000      0.00000000      0.00000000</v>
   <i type="logical" name="LNICSALL"> T  </i>
   <i type="logical" name="ORBITALMAG"> F  </i>
   <i type="logical" name="LMAGBLOCH"> F  </i>
   <i type="logical" name="LCHIMAG"> F  </i>
   <i type="logical" name="LGAUGE"> T  </i>
   <i type="int" name="MAGATOM">     0</i>
   <v name="MAGDIPOL">      0.00000000      0.00000000      0.00000000</v>
   <v name="AVECCONST">      0.00000000      0.00000000      0.00000000</v>
  </separator>
  <separator name="response functions" >
   <i type="logical" name="LALL_IN_ONE"> F  </i>
   <i type="int" name="IALL_IN_ONE">    -1</i>
   <i type="int" name="NBANDS_WAVE">    -1</i>
   <i type="logical" name="LFINITE_TEMPERATURE"> F  </i>
   <i type="logical" name="LADDER"> F  </i>
   <i type="logical" name="LRPAFORCE"> F  </i>
   <i type="logical" name="LFXC"> F  </i>
   <i type="logical" name="LHARTREE"> T  </i>
   <i type="int" name="IBSE">     0</i>
   <v type="int" name="KPOINT">    -1     0     0     0</v>
   <i type="logical" name="LTCTC"> F  </i>
   <i type="logical" name="LTCTE"> F  </i>
   <i type="logical" name="LTETE"> F  </i>
   <i type="logical" name="LTRIPLET"> F  </i>
   <i type="logical" name="LFXCEPS"> F  </i>
   <i type="logical" name="LFXHEG"> F  </i>
   <i type="int" name="NATURALO">     2</i>
   <i type="logical" name="LHOLEGF"> F  </i>
   <i type="logical" name="L2ORDER"> F  </i>
   <i type="logical" name="LDMP1"> F  </i>
   <i type="logical" name="LMP2LT"> F  </i>
   <i type="logical" name="LSMP2LT"> F  </i>
   <i type="logical" name="LGWLF"> F  </i>
   <i name="ENCUTGW">     -1.60000002</i>
   <i name="ENCUTGWSOFT">     -1.60000002</i>
   <i name="ENCUTLF">     -1.00000000</i>
   <i type="logical" name="LESF_SPLINES"> F  </i>
   <i type="int" name="LMAXMP2">    -1</i>
   <i name="SCISSOR">      0.00000000</i>
   <i type="int" name="NOMEGA">     0</i>
   <i type="int" name="NOMEGAR">     0</i>
   <i type="int" name="NBANDSGW">    -1</i>
   <i type="int" name="NBANDSO">    -1</i>
   <i type="int" name="NBANDSV">    -1</i>
   <i type="int" name="NELMGW">     1</i>
   <i type="int" name="NELMHF">     1</i>
   <i type="int" name="DIM">     3</i>
   <i type="int" name="IESPILON">     4</i>
   <i type="int" name="ANTIRES">     0</i>
   <i name="OMEGAMAX">    -30.00000000</i>
   <i name="OMEGAMIN">    -30.00000000</i>
   <i name="OMEGATL">   -200.00000000</i>
   <i type="int" name="OMEGAGRID">     0</i>
   <i name="CSHIFT">     -0.10000000</i>
   <i type="logical" name="LSELFENERGY"> F  </i>
   <i type="logical" name="LSPECTRAL"> F  </i>
   <i type="logical" name="LSPECTRALGW"> F  </i>
   <i type="logical" name="LSINGLES"> F  </i>
   <i type="logical" name="LFERMIGW"> F  </i>
   <i type="logical" name="ODDONLYGW"> F  </i>
   <i type="logical" name="EVENONLYGW"> F  </i>
   <i type="int" name="NKREDLFX">     1</i>
   <i type="int" name="NKREDLFY">     1</i>
   <i type="int" name="NKREDLFZ">     1</i>
   <i type="int" name="MAXMEM">  2800</i>
   <i type="int" name="TELESCOPE">     0</i>
   <i type="int" name="NTAUPAR">    -1</i>
   <i type="int" name="NOMEGAPAR">    -1</i>
   <i name="DAMP_NEWTON">      0.80000001</i>
   <i name="LAMBDA">      1.00000000</i>
  </separator>
  <separator name="External order field" >
   <i name="OFIELD_KAPPA">      0.00000000</i>
   <v name="OFIELD_K">      0.00000000      0.00000000      0.00000000</v>
   <i name="OFIELD_Q6_NEAR">      0.00000000</i>
   <i name="OFIELD_Q6_FAR">      0.00000000</i>
   <i name="OFIELD_A">      0.00000000</i>
  </separator>
  <separator name="optional k-points parameters" >
   <i type="int" name="KPOINTS_OPT_MODE">     1</i>
   <i type="logical" name="LKPOINTS_OPT"> F  </i>
  </separator>
 </parameters>
 <atominfo>
  <atoms>      16 </atoms>
  <types>       3 </types>
  <array name="atoms" >
   <dimension dim="1">ion</dimension>
   <field type="string">element</field>
   <field type="int">atomtype</field>
   <set>
    <rc><c>Cu</c><c>   1</c></rc>
    <rc><c>Cu</c><c>   1</c></rc>
    <rc><c>Cu</c><c>   1</c></rc>
    <rc><c>Cu</c><c>   1</c></rc>
    <rc><c>Sb</c><c>   2</c></rc>
    <rc><c>Sb</c><c>   2</c></rc>
    <rc><c>Sb</c><c>   2</c></rc>
    <rc><c>Sb</c><c>   2</c></rc>
    <rc><c>S </c><c>   3</c></rc>
    <rc><c>S </c><c>   3</c></rc>
    <rc><c>S </c><c>   3</c></rc>
    <rc><c>S </c><c>   3</c></rc>
    <rc><c>S </c><c>   3</c></rc>
    <rc><c>S </c><c>   3</c></rc>
    <rc><c>S </c><c>   3</c></rc>
    <rc><c>S </c><c>   3</c></rc>
   </set>
  </array>
  <array name="atomtypes" >
   <dimension dim="1">type</dimension>
   <field type="int">atomspertype</field>
   <field type="string">element</field>
   <field>mass</field>
   <field>valence</field>
   <field type="string">pseudopotential</field>
   <set>
    <rc><c>   4</c><c>Cu</c><c>     63.54600000</c><c>     11.00000000</c><c>  PAW_PBE Cu 22Jun2005                  </c></rc>
    <rc><c>   4</c><c>Sb</c><c>    121.75000000</c><c>      5.00000000</c><c>  PAW_PBE Sb 06Sep2000                  </c></rc>
    <rc><c>   8</c><c>S </c><c>     32.06600000</c><c>      6.00000000</c><c>  PAW_PBE S 06Sep2000                   </c></rc>
   </set>
  </array>
 </atominfo>
 <structure name="initialpos" >
  <crystal>
   <varray name="basis" >
    <v>       3.80157474       0.00000000       0.00000000 </v>
    <v>      -0.00000000       6.07432056       0.00000000 </v>
    <v>       0.00000000       0.00000000      14.49176048 </v>
   </varray>
   <i name="volume">    334.64349539 </i>
   <varray name="rec_basis" >
    <v>       0.26304889       0.00000000       0.00000000 </v>
    <v>       0.00000000       0.16462747       0.00000000 </v>
    <v>      -0.00000000      -0.00000000       0.06900473 </v>
   </varray>
  </crystal>
  <varray name="positions" >
   <v>       0.25000000       0.25010162       0.82821842 </v>
   <v>       0.25000000       0.75010162       0.67178158 </v>
   <v>       0.75000000       0.74989838       0.17178158 </v>
   <v>       0.75000000       0.24989838       0.32821842 </v>
   <v>       0.25000000       0.72881200       0.43458741 </v>
   <v>       0.75000000       0.27118800       0.56541259 </v>
   <v>       0.25000000       0.22881200       0.06541259 </v>
   <v>       0.75000000       0.77118800       0.93458741 </v>
   <v>       0.25000000       0.12368586       0.40104516 </v>
   <v>       0.75000000       0.87631414       0.59895484 </v>
   <v>       0.25000000       0.62368586       0.09895484 </v>
   <v>       0.75000000       0.37631414       0.90104516 </v>
   <v>       0.75000000       0.62427265       0.32157721 </v>
   <v>       0.25000000       0.87572735       0.82157721 </v>
   <v>       0.75000000       0.12427265       0.17842279 </v>
   <v>       0.25000000       0.37572735       0.67842279 </v>
  </varray>
 </structure>
 <calculation>
  <scstep>
   <time name="dav">    1.71    2.21</time>
   <time name="total">    2.18    2.77</time>
   <energy>
    <i name="alphaZ">    140.40642575 </i>
    <i name="ewald">  -5671.52231121 </i>
    <i name="hartreedc">  -2980.89971617 </i>
    <i name="XCdc">     97.39382403 </i>
    <i name="pawpsdc">   7306.92580695 </i>
    <i name="pawaedc"> -14570.49902142 </i>
    <i name="eentropy">     -0.00044341 </i>
    <i name="bandstr">   1162.44057606 </i>
    <i name="atom">   8349.84459897 </i>
    <i name="e_fr_energy">  -6165.91026045 </i>
    <i name="e_wo_entrp">  -6165.90981704 </i>
    <i name="e_0_energy">  -6165.91003875 </i>
   </energy>
  </scstep>
  <scstep>
   <time name="dav">    0.18    0.21</time>
   <time name="total">    0.18    0.21</time>
   <energy>
    <i name="e_fr_energy">  -7138.05075743 </i>
    <i name="e_wo_entrp">  -7138.05075743 </i>
    <i name="e_0_energy">  -7138.05075743 </i>
   </energy>
  </scstep>
  <scstep>
   <time name="dav">    0.23    0.34</time>
   <time name="total">    0.23    0.34</time>
   <energy>
    <i name="e_fr_energy">  -7348.73959493 </i>
    <i name="e_wo_entrp">  -7348.73959493 </i>
    <i name="e_0_energy">  -7348.73959493 </i>
   </energy>
  </scstep>
  <scstep>
   <time name="dav">    0.21    0.21</time>
   <time name="total">    0.21    0.21</time>
   <energy>
    <i name="e_fr_energy">  -7364.91702727 </i>
    <i name="e_wo_entrp">  -7364.91702727 </i>
    <i name="e_0_energy">  -7364.91702727 </i>
   </energy>
  </scstep>
  <scstep>
   <time name="dav">    7.48    7.52</time>
   <time name="total">    8.51    8.55</time>
   <energy>
    <i name="e_fr_energy">    -70.11573580 </i>
    <i name="e_wo_entrp">    -70.11573580 </i>
    <i name="e_0_energy">    -70.11573580 </i>
   </energy>
  </scstep>
  <scstep>
   <time name="dav">    7.31    7.35</time>
   <time name="total">    8.34    8.37</time>
   <energy>
    <i name="e_fr_energy">    -64.06844355 </i>
    <i name="e_wo_entrp">    -64.06844355 </i>
    <i name="e_0_energy">    -64.06844355 </i>
   </energy>
  </scstep>
  <scstep>
   <time name="dav">    7.67    7.70</time>
   <time name="total">    8.74    8.78</time>
   <energy>
    <i name="e_fr_energy">    -64.26209620 </i>
    <i name="e_wo_entrp">    -64.26209620 </i>
    <i name="e_0_energy">    -64.26209620 </i>
   </energy>
  </scstep>
  <scstep>
   <time name="dav">    7.46    7.49</time>
   <time name="total">    8.52    8.55</time>
   <energy>
    <i name="e_fr_energy">    -64.56993933 </i>
    <i name="e_wo_entrp">    -64.56993933 </i>
    <i name="e_0_energy">    -64.56993933 </i>
   </energy>
  </scstep>
  <scstep>
   <time name="dav">    7.31    7.34</time>
   <time name="total">    8.34    8.37</time>
   <energy>
    <i name="e_fr_energy">    -64.51260841 </i>
    <i name="e_wo_entrp">    -64.51260841 </i>
    <i name="e_0_energy">    -64.51260841 </i>
   </energy>
  </scstep>
  <scstep>
   <time name="dav">    7.34    7.37</time>
   <time name="total">    8.37    8.40</time>
   <energy>
    <i name="e_fr_energy">    -64.53120724 </i>
    <i name="e_wo_entrp">    -64.53120724 </i>
    <i name="e_0_energy">    -64.53120724 </i>
   </energy>
  </scstep>
  <scstep>
   <time name="dav">    7.32    7.35</time>
   <time name="total">    8.35    8.38</time>
   <energy>
    <i name="e_fr_energy">    -64.53744067 </i>
    <i name="e_wo_entrp">    -64.53744067 </i>
    <i name="e_0_energy">    -64.53744067 </i>
   </energy>
  </scstep>
  <scstep>
   <time name="dav">    7.58    7.61</time>
   <time name="total">    8.64    8.68</time>
   <energy>
    <i name="e_fr_energy">    -64.53895699 </i>
    <i name="e_wo_entrp">    -64.53895699 </i>
    <i name="e_0_energy">    -64.53895699 </i>
   </energy>
  </scstep>
  <scstep>
   <time name="dav">    7.33    7.36</time>
   <time name="total">    8.36    8.39</time>
   <energy>
    <i name="e_fr_energy">    -64.54027360 </i>
    <i name="e_wo_entrp">    -64.54027360 </i>
    <i name="e_0_energy">    -64.54027360 </i>
   </energy>
  </scstep>
  <scstep>
   <time name="dav">    7.39    7.42</time>
   <time name="total">    8.42    8.46</time>
   <energy>
    <i name="e_fr_energy">    -64.54074722 </i>
    <i name="e_wo_entrp">    -64.54074722 </i>
    <i name="e_0_energy">    -64.54074722 </i>
   </energy>
  </scstep>
  <scstep>
   <time name="dav">    7.33    7.36</time>
   <time name="total">    8.37    8.40</time>
   <energy>
    <i name="e_fr_energy">    -64.54097723 </i>
    <i name="e_wo_entrp">    -64.54097723 </i>
    <i name="e_0_energy">    -64.54097723 </i>
   </energy>
  </scstep>
  <scstep>
   <time name="dav">    7.50    7.53</time>
   <time name="total">    8.54    8.57</time>
   <energy>
    <i name="e_fr_energy">    -64.54108816 </i>
    <i name="e_wo_entrp">    -64.54108816 </i>
    <i name="e_0_energy">    -64.54108816 </i>
   </energy>
  </scstep>
  <scstep>
   <time name="dav">    7.55    7.58</time>
   <time name="total">    8.65    8.68</time>
   <energy>
    <i name="e_fr_energy">    -64.54113533 </i>
    <i name="e_wo_entrp">    -64.54113533 </i>
    <i name="e_0_energy">    -64.54113533 </i>
   </energy>
  </scstep>
  <scstep>
   <time name="dav">    7.29    7.32</time>
   <time name="total">    8.32    8.36</time>
   <energy>
    <i name="e_fr_energy">    -64.54115844 </i>
    <i name="e_wo_entrp">    -64.54115844 </i>
    <i name="e_0_energy">    -64.54115844 </i>
   </energy>
  </scstep>
  <scstep>
   <time name="dav">    7.26    7.29</time>
   <time name="total">    8.30    8.33</time>
   <energy>
    <i name="e_fr_energy">    -64.54116981 </i>
    <i name="e_wo_entrp">    -64.54116981 </i>
    <i name="e_0_energy">    -64.54116981 </i>
   </energy>
  </scstep>
  <scstep>
   <time name="dav">    7.27    7.30</time>
   <time name="total">    8.29    8.32</time>
   <energy>
    <i name="alphaZ">    140.40642575 </i>
    <i name="ewald">  -5671.52231121 </i>
    <i name="hartreedc">  -3013.24383465 </i>
    <i name="XCdc">     67.46702510 </i>
    <i name="pawpsdc">  19694.89097416 </i>
    <i name="pawaedc"> -19902.02693981 </i>
    <i name="eentropy">     -0.00000000 </i>
    <i name="bandstr">     33.80985563 </i>
    <i name="atom">   8349.84459897 </i>
    <i name="e_fr_energy">    -64.54117528 </i>
    <i name="e_wo_entrp">    -64.54117528 </i>
    <i name="e_0_energy">    -64.54117528 </i>
   </energy>
  </scstep>
  <structure>
   <crystal>
    <varray name="basis" >
     <v>       3.80157474       0.00000000       0.00000000 </v>
     <v>      -0.00000000       6.07432056       0.00000000 </v>
     <v>       0.00000000       0.00000000      14.49176048 </v>
    </varray>
    <i name="volume">    334.64349539 </i>
    <varray name="rec_basis" >
     <v>       0.26304889       0.00000000       0.00000000 </v>
     <v>       0.00000000       0.16462747       0.00000000 </v>
     <v>      -0.00000000      -0.00000000       0.06900473 </v>
    </varray>
   </crystal>
   <varray name="positions" >
    <v>       0.25000000       0.25010162       0.82821842 </v>
    <v>       0.25000000       0.75010162       0.67178158 </v>
    <v>       0.75000000       0.74989838       0.17178158 </v>
    <v>       0.75000000       0.24989838       0.32821842 </v>
    <v>       0.25000000       0.72881200       0.43458741 </v>
    <v>       0.75000000       0.27118800       0.56541259 </v>
    <v>       0.25000000       0.22881200       0.06541259 </v>
    <v>       0.75000000       0.77118800       0.93458741 </v>
    <v>       0.25000000       0.12368586       0.40104516 </v>
    <v>       0.75000000       0.87631414       0.59895484 </v>
    <v>       0.25000000       0.62368586       0.09895484 </v>
    <v>       0.75000000       0.37631414       0.90104516 </v>
    <v>       0.75000000       0.62427265       0.32157721 </v>
    <v>       0.25000000       0.87572735       0.82157721 </v>
    <v>       0.75000000       0.12427265       0.17842279 </v>
    <v>       0.25000000       0.37572735       0.67842279 </v>
   </varray>
  </structure>
  <varray name="forces" >
   <v>       0.00000000      -0.70710922      -1.31588304 </v>
   <v>       0.00000000      -0.70710922       1.31588304 </v>
   <v>      -0.00000000       0.70710922       1.31588304 </v>
   <v>      -0.00000000       0.70710922      -1.31588304 </v>
   <v>      -0.00000000       0.70399982      -0.49646741 </v>
   <v>       0.00000000      -0.70399982       0.49646741 </v>
   <v>      -0.00000000       0.70399982       0.49646741 </v>
   <v>       0.00000000      -0.70399982      -0.49646741 </v>
   <v>       0.00000000      -1.57303599       2.06938312 </v>
   <v>      -0.00000000       1.57303599      -2.06938312 </v>
   <v>       0.00000000      -1.57303599      -2.06938312 </v>
   <v>      -0.00000000       1.57303599       2.06938312 </v>
   <v>      -0.00000000       0.66016115       0.20103917 </v>
   <v>       0.00000000      -0.66016115       0.20103917 </v>
   <v>      -0.00000000       0.66016115      -0.20103917 </v>
   <v>       0.00000000      -0.66016115      -0.20103917 </v>
  </varray>
  <energy>
   <i name="e_fr_energy">    -64.54117528 </i>
   <i name="e_wo_entrp">    -64.54117528 </i>
   <i name="e_0_energy">    -64.54117528 </i>
  </energy>
  <time name="totalsc">  149.24  150.62</time>
  <eigenvalues>
   <array>
    <dimension dim="1">band</dimension>
    <dimension dim="2">kpoint</dimension>
    <dimension dim="3">spin</dimension>
    <field>eigene</field>
    <field>occ</field>
    <set>
     <set comment="spin 1">
      <set comment="kpoint 1">
       <r>  -10.5409    1.0000 </r>
       <r>  -10.2546    1.0000 </r>
       <r>  -10.0253    1.0000 </r>
       <r>   -9.6065    1.0000 </r>
       <r>   -8.6746    1.0000 </r>
       <r>   -8.5688    1.0000 </r>
       <r>   -8.4516    1.0000 </r>
       <r>   -8.2497    1.0000 </r>
       <r>   -4.5872    1.0000 </r>
       <r>   -4.3949    1.0000 </r>
       <r>   -4.3464    1.0000 </r>
       <r>   -3.8713    1.0000 </r>
       <r>   -1.3968    1.0000 </r>
       <r>   -0.9978    1.0000 </r>
       <r>   -0.3229    1.0000 </r>
       <r>    0.0753    1.0000 </r>
       <r>    0.1260    1.0000 </r>
       <r>    0.6530    1.0000 </r>
       <r>    0.7393    1.0000 </r>
       <r>    0.8289    1.0000 </r>
       <r>    1.1636    1.0000 </r>
       <r>    1.1834    1.0000 </r>
       <r>    1.1843    1.0000 </r>
       <r>    1.2080    1.0000 </r>
       <r>    1.3238    1.0000 </r>
       <r>    1.3913    1.0000 </r>
       <r>    1.4000    1.0000 </r>
       <r>    1.5404    1.0000 </r>
       <r>    1.5607    1.0000 </r>
       <r>    1.6389    1.0000 </r>
       <r>    1.6604    1.0000 </r>
       <r>    1.6944    1.0000 </r>
       <r>    2.3133    1.0000 </r>
       <r>    2.4526    1.0000 </r>
       <r>    2.6815    1.0000 </r>
       <r>    2.6818    1.0000 </r>
       <r>    2.7005    1.0000 </r>
       <r>    2.7983    1.0000 </r>
       <r>    2.8187    1.0000 </r>
       <r>    2.9766    1.0000 </r>
       <r>    3.1582    1.0000 </r>
       <r>    3.1701    1.0000 </r>
       <r>    3.2452    1.0000 </r>
       <r>    3.3807    1.0000 </r>
       <r>    3.6799    1.0000 </r>
       <r>    3.6897    1.0000 </r>
       <r>    4.0241    1.0000 </r>
       <r>    4.5445    1.0000 </r>
       <r>    4.5880    1.0000 </r>
       <r>    4.8827    1.0000 </r>
       <r>    5.0835    1.0000 </r>
       <r>    5.1130    1.0000 </r>
       <r>    5.2129    1.0000 </r>
       <r>    5.4240    1.0000 </r>
       <r>    5.4429    1.0000 </r>
       <r>    5.4723    1.0000 </r>
       <r>    7.0866    0.0000 </r>
       <r>    7.4955    0.0000 </r>
       <r>    7.5034    0.0000 </r>
       <r>    7.9906    0.0000 </r>
       <r>    8.2465    0.0000 </r>
       <r>    8.5544    0.0000 </r>
       <r>    8.7385    0.0000 </r>
       <r>    8.8481    0.0000 </r>
       <r>    8.9890    0.0000 </r>
       <r>    9.0640    0.0000 </r>
       <r>    9.5007    0.0000 </r>
       <r>    9.5845    0.0000 </r>
       <r>   10.7059    0.0000 </r>
       <r>   10.8765    0.0000 </r>
       <r>   11.4498    0.0000 </r>
       <r>   11.9825    0.0000 </r>
      </set>
      <set comment="kpoint 2">
       <r>  -10.3843    1.0000 </r>
       <r>  -10.1300    1.0000 </r>
       <r>   -9.9101    1.0000 </r>
       <r>   -9.5944    1.0000 </r>
       <r>   -8.8763    1.0000 </r>
       <r>   -8.7801    1.0000 </r>
       <r>   -8.6047    1.0000 </r>
       <r>   -8.3884    1.0000 </r>
       <r>   -4.9460    1.0000 </r>
       <r>   -4.6669    1.0000 </r>
       <r>   -3.9944    1.0000 </r>
       <r>   -3.6663    1.0000 </r>
       <r>   -0.8265    1.0000 </r>
       <r>   -0.3310    1.0000 </r>
       <r>   -0.2148    1.0000 </r>
       <r>    0.1189    1.0000 </r>
       <r>    0.1382    1.0000 </r>
       <r>    0.7069    1.0000 </r>
       <r>    0.7557    1.0000 </r>
       <r>    0.8193    1.0000 </r>
       <r>    1.0638    1.0000 </r>
       <r>    1.1417    1.0000 </r>
       <r>    1.1835    1.0000 </r>
       <r>    1.1961    1.0000 </r>
       <r>    1.2148    1.0000 </r>
       <r>    1.3474    1.0000 </r>
       <r>    1.4888    1.0000 </r>
       <r>    1.5298    1.0000 </r>
       <r>    1.6095    1.0000 </r>
       <r>    1.6834    1.0000 </r>
       <r>    1.7867    1.0000 </r>
       <r>    1.8206    1.0000 </r>
       <r>    2.4711    1.0000 </r>
       <r>    2.4723    1.0000 </r>
       <r>    2.5909    1.0000 </r>
       <r>    2.7531    1.0000 </r>
       <r>    2.7772    1.0000 </r>
       <r>    2.8259    1.0000 </r>
       <r>    2.8945    1.0000 </r>
       <r>    3.0795    1.0000 </r>
       <r>    3.1563    1.0000 </r>
       <r>    3.1859    1.0000 </r>
       <r>    3.2958    1.0000 </r>
       <r>    3.5234    1.0000 </r>
       <r>    3.8535    1.0000 </r>
       <r>    3.9730    1.0000 </r>
       <r>    4.0725    1.0000 </r>
       <r>    4.3393    1.0000 </r>
       <r>    4.6626    1.0000 </r>
       <r>    4.7085    1.0000 </r>
       <r>    4.7779    1.0000 </r>
       <r>    4.8455    1.0000 </r>
       <r>    4.9002    1.0000 </r>
       <r>    5.1281    1.0000 </r>
       <r>    5.1516    1.0000 </r>
       <r>    5.4707    1.0000 </r>
       <r>    7.0067    0.0000 </r>
       <r>    7.0113    0.0000 </r>
       <r>    7.5564    0.0000 </r>
       <r>    8.0945    0.0000 </r>
       <r>    8.1307    0.0000 </r>
       <r>    8.1474    0.0000 </r>
       <r>    8.2252    0.0000 </r>
       <r>    8.6050    0.0000 </r>
       <r>    9.1589    0.0000 </r>
       <r>    9.4921    0.0000 </r>
       <r>    9.5271    0.0000 </r>
       <r>   10.0007    0.0000 </r>
       <r>   10.5576    0.0000 </r>
       <r>   10.6519    0.0000 </r>
       <r>   11.4076    0.0000 </r>
       <r>   11.6577    0.0000 </r>
      </set>
     </set>
     <set comment="spin 2">
      <set comment="kpoint 1">
       <r>  -10.5410    1.0000 </r>
       <r>  -10.2547    1.0000 </r>
       <r>  -10.0254    1.0000 </r>
       <r>   -9.6067    1.0000 </r>
       <r>   -8.6747    1.0000 </r>
       <r>   -8.5689    1.0000 </r>
       <r>   -8.4518    1.0000 </r>
       <r>   -8.2499    1.0000 </r>
       <r>   -4.5873    1.0000 </r>
       <r>   -4.3951    1.0000 </r>
       <r>   -4.3466    1.0000 </r>
       <r>   -3.8714    1.0000 </r>
       <r>   -1.3970    1.0000 </r>
       <r>   -0.9980    1.0000 </r>
       <r>   -0.3230    1.0000 </r>
       <r>    0.0751    1.0000 </r>
       <r>    0.1258    1.0000 </r>
       <r>    0.6528    1.0000 </r>
       <r>    0.7392    1.0000 </r>
       <r>    0.8287    1.0000 </r>
       <r>    1.1635    1.0000 </r>
       <r>    1.1832    1.0000 </r>
       <r>    1.1841    1.0000 </r>
       <r>    1.2078    1.0000 </r>
       <r>    1.3237    1.0000 </r>
       <r>    1.3912    1.0000 </r>
       <r>    1.3999    1.0000 </r>
       <r>    1.5402    1.0000 </r>
       <r>    1.5606    1.0000 </r>
       <r>    1.6388    1.0000 </r>
       <r>    1.6603    1.0000 </r>
       <r>    1.6942    1.0000 </r>
       <r>    2.3132    1.0000 </r>
       <r>    2.4525    1.0000 </r>
       <r>    2.6814    1.0000 </r>
       <r>    2.6817    1.0000 </r>
       <r>    2.7004    1.0000 </r>
       <r>    2.7982    1.0000 </r>
       <r>    2.8186    1.0000 </r>
       <r>    2.9764    1.0000 </r>
       <r>    3.1581    1.0000 </r>
       <r>    3.1700    1.0000 </r>
       <r>    3.2451    1.0000 </r>
       <r>    3.3805    1.0000 </r>
       <r>    3.6797    1.0000 </r>
       <r>    3.6895    1.0000 </r>
       <r>    4.0240    1.0000 </r>
       <r>    4.5443    1.0000 </r>
       <r>    4.5879    1.0000 </r>
       <r>    4.8826    1.0000 </r>
       <r>    5.0833    1.0000 </r>
       <r>    5.1128    1.0000 </r>
       <r>    5.2128    1.0000 </r>
       <r>    5.4239    1.0000 </r>
       <r>    5.4427    1.0000 </r>
       <r>    5.4722    1.0000 </r>
       <r>    7.0865    0.0000 </r>
       <r>    7.4953    0.0000 </r>
       <r>    7.5032    0.0000 </r>
       <r>    7.9904    0.0000 </r>
       <r>    8.2464    0.0000 </r>
       <r>    8.5542    0.0000 </r>
       <r>    8.7384    0.0000 </r>
       <r>    8.8479    0.0000 </r>
       <r>    8.9889    0.0000 </r>
       <r>    9.0638    0.0000 </r>
       <r>    9.5005    0.0000 </r>
       <r>    9.5843    0.0000 </r>
       <r>   10.7057    0.0000 </r>
       <r>   10.8763    0.0000 </r>
       <r>   11.4496    0.0000 </r>
       <r>   11.9822    0.0000 </r>
      </set>
      <set comment="kpoint 2">
       <r>  -10.3844    1.0000 </r>
       <r>  -10.1302    1.0000 </r>
       <r>   -9.9103    1.0000 </r>
       <r>   -9.5945    1.0000 </r>
       <r>   -8.8765    1.0000 </r>
       <r>   -8.7802    1.0000 </r>
       <r>   -8.6049    1.0000 </r>
       <r>   -8.3885    1.0000 </r>
       <r>   -4.9461    1.0000 </r>
       <r>   -4.6671    1.0000 </r>
       <r>   -3.9945    1.0000 </r>
       <r>   -3.6665    1.0000 </r>
       <r>   -0.8267    1.0000 </r>
       <r>   -0.3312    1.0000 </r>
       <r>   -0.2150    1.0000 </r>
       <r>    0.1188    1.0000 </r>
       <r>    0.1380    1.0000 </r>
       <r>    0.7068    1.0000 </r>
       <r>    0.7556    1.0000 </r>
       <r>    0.8192    1.0000 </r>
       <r>    1.0637    1.0000 </r>
       <r>    1.1416    1.0000 </r>
       <r>    1.1834    1.0000 </r>
       <r>    1.1960    1.0000 </r>
       <r>    1.2147    1.0000 </r>
       <r>    1.3473    1.0000 </r>
       <r>    1.4887    1.0000 </r>
       <r>    1.5297    1.0000 </r>
       <r>    1.6094    1.0000 </r>
       <r>    1.6832    1.0000 </r>
       <r>    1.7865    1.0000 </r>
       <r>    1.8204    1.0000 </r>
       <r>    2.4710    1.0000 </r>
       <r>    2.4722    1.0000 </r>
       <r>    2.5908    1.0000 </r>
       <r>    2.7530    1.0000 </r>
       <r>    2.7771    1.0000 </r>
       <r>    2.8258    1.0000 </r>
       <r>    2.8944    1.0000 </r>
       <r>    3.0793    1.0000 </r>
       <r>    3.1562    1.0000 </r>
       <r>    3.1858    1.0000 </r>
       <r>    3.2956    1.0000 </r>
       <r>    3.5232    1.0000 </r>
       <r>    3.8534    1.0000 </r>
       <r>    3.9729    1.0000 </r>
       <r>    4.0724    1.0000 </r>
       <r>    4.3392    1.0000 </r>
       <r>    4.6625    1.0000 </r>
       <r>    4.7084    1.0000 </r>
       <r>    4.7778    1.0000 </r>
       <r>    4.8454    1.0000 </r>
       <r>    4.9000    1.0000 </r>
       <r>    5.1279    1.0000 </r>
       <r>    5.1515    1.0000 </r>
       <r>    5.4706    1.0000 </r>
       <r>    7.0065    0.0000 </r>
       <r>    7.0111    0.0000 </r>
       <r>    7.5562    0.0000 </r>
       <r>    8.0944    0.0000 </r>
       <r>    8.1305    0.0000 </r>
       <r>    8.1472    0.0000 </r>
       <r>    8.2250    0.0000 </r>
       <r>    8.6048    0.0000 </r>
       <r>    9.1588    0.0000 </r>
       <r>    9.4919    0.0000 </r>
       <r>    9.5270    0.0000 </r>
       <r>   10.0006    0.0000 </r>
       <r>   10.5574    0.0000 </r>
       <r>   10.6516    0.0000 </r>
       <r>   11.4073    0.0000 </r>
       <r>   11.6571    0.0000 </r>
      </set>
     </set>
    </set>
   </array>
  </eigenvalues>
  <separator name="orbital magnetization" >
   <v name="MAGDIPOLOUT">      0.00000000      0.00000000      0.00000000</v>
  </separator>
  <dos>
   <i name="efermi">      5.53136406 </i>
   <total>
    <array>
     <dimension dim="1">gridpoints</dimension>
     <dimension dim="2">spin</dimension>
     <field>energy</field>
     <field>total</field>
     <field>integrated</field>
     <set>
      <set comment="spin 1">
       <r>   -11.6672     0.0000     0.0000 </r>
       <r>   -11.5846     0.0000     0.0000 </r>
       <r>   -11.5020     0.0000     0.0000 </r>
       <r>   -11.4195     0.0000     0.0000 </r>
       <r>   -11.3369     0.0000     0.0000 </r>
       <r>   -11.2543     0.0000     0.0000 </r>
       <r>   -11.1717     0.0000     0.0000 </r>
       <r>   -11.0891     0.0000     0.0000 </r>
       <r>   -11.0065     0.0000     0.0000 </r>
       <r>   -10.9239     0.0000     0.0000 </r>
       <r>   -10.8414     0.0000     0.0000 </r>
       <r>   -10.7588     0.0000     0.0000 </r>
       <r>   -10.6762     0.0000     0.0000 </r>
       <r>   -10.5936     0.0000     0.0000 </r>
       <r>   -10.5110     6.0542     0.5000 </r>
       <r>   -10.4284     0.0000     0.5000 </r>
       <r>   -10.3458     6.0543     1.0000 </r>
       <r>   -10.2633     0.6641     1.0548 </r>
       <r>   -10.1807     5.3902     1.5000 </r>
       <r>   -10.0981     6.0543     2.0000 </r>
       <r>   -10.0155     5.5479     2.4582 </r>
       <r>    -9.9329     0.0039     2.5003 </r>
       <r>    -9.8503     6.0504     3.0000 </r>
       <r>    -9.7677     0.0000     3.0000 </r>
       <r>    -9.6851     0.0000     3.0000 </r>
       <r>    -9.6026     5.0613     3.4180 </r>
       <r>    -9.5200     5.3054     4.0000 </r>
       <r>    -9.4374     0.0000     4.0000 </r>
       <r>    -9.3548     0.0000     4.0000 </r>
       <r>    -9.2722     0.0000     4.0000 </r>
       <r>    -9.1896     0.0000     4.0000 </r>
       <r>    -9.1070     0.0000     4.0000 </r>
       <r>    -9.0245     0.0000     4.0000 </r>
       <r>    -8.9419     0.0000     4.0000 </r>
       <r>    -8.8593     6.0062     4.4960 </r>
       <r>    -8.7767     4.1414     4.8420 </r>
       <r>    -8.6941     0.0176     5.0014 </r>
       <r>    -8.6115     7.0522     5.5839 </r>
       <r>    -8.5289    11.0930     6.5000 </r>
       <r>    -8.4464     4.6719     6.8858 </r>
       <r>    -8.3638     6.0528     7.4999 </r>
       <r>    -8.2812     0.0000     7.5000 </r>
       <r>    -8.1986     6.0543     8.0000 </r>
       <r>    -8.1160     0.0000     8.0000 </r>
       <r>    -8.0334     0.0000     8.0000 </r>
       <r>    -7.9508     0.0000     8.0000 </r>
       <r>    -7.8683     0.0000     8.0000 </r>
       <r>    -7.7857     0.0000     8.0000 </r>
       <r>    -7.7031     0.0000     8.0000 </r>
       <r>    -7.6205     0.0000     8.0000 </r>
       <r>    -7.5379     0.0000     8.0000 </r>
       <r>    -7.4553     0.0000     8.0000 </r>
       <r>    -7.3727     0.0000     8.0000 </r>
       <r>    -7.2901     0.0000     8.0000 </r>
       <r>    -7.2076     0.0000     8.0000 </r>
       <r>    -7.1250     0.0000     8.0000 </r>
       <r>    -7.0424     0.0000     8.0000 </r>
       <r>    -6.9598     0.0000     8.0000 </r>
       <r>    -6.8772     0.0000     8.0000 </r>
       <r>    -6.7946     0.0000     8.0000 </r>
       <r>    -6.7120     0.0000     8.0000 </r>
       <r>    -6.6295     0.0000     8.0000 </r>
       <r>    -6.5469     0.0000     8.0000 </r>
       <r>    -6.4643     0.0000     8.0000 </r>
       <r>    -6.3817     0.0000     8.0000 </r>
       <r>    -6.2991     0.0000     8.0000 </r>
       <r>    -6.2165     0.0000     8.0000 </r>
       <r>    -6.1339     0.0000     8.0000 </r>
       <r>    -6.0514     0.0000     8.0000 </r>
       <r>    -5.9688     0.0000     8.0000 </r>
       <r>    -5.8862     0.0000     8.0000 </r>
       <r>    -5.8036     0.0000     8.0000 </r>
       <r>    -5.7210     0.0000     8.0000 </r>
       <r>    -5.6384     0.0000     8.0000 </r>
       <r>    -5.5558     0.0000     8.0000 </r>
       <r>    -5.4732     0.0000     8.0000 </r>
       <r>    -5.3907     0.0000     8.0000 </r>
       <r>    -5.3081     0.0000     8.0000 </r>
       <r>    -5.2255     0.0000     8.0000 </r>
       <r>    -5.1429     0.0000     8.0000 </r>
       <r>    -5.0603     0.0000     8.0000 </r>
       <r>    -4.9777     0.0000     8.0000 </r>
       <r>    -4.8951     6.0543     8.5000 </r>
       <r>    -4.8126     0.0000     8.5000 </r>
       <r>    -4.7300     0.0000     8.5000 </r>
       <r>    -4.6474     6.0369     8.9986 </r>
       <r>    -4.5648     6.0495     9.4996 </r>
       <r>    -4.4822     0.0000     9.5000 </r>
       <r>    -4.3996     1.5356     9.6268 </r>
       <r>    -4.3170    10.5729    10.5000 </r>
       <r>    -4.2345     0.0000    10.5000 </r>
       <r>    -4.1519     0.0000    10.5000 </r>
       <r>    -4.0693     0.0000    10.5000 </r>
       <r>    -3.9867     5.2123    10.9305 </r>
       <r>    -3.9041     0.0000    11.0000 </r>
       <r>    -3.8215     6.0543    11.5000 </r>
       <r>    -3.7389     0.0000    11.5000 </r>
       <r>    -3.6564     5.5741    11.9603 </r>
       <r>    -3.5738     0.0000    12.0000 </r>
       <r>    -3.4912     0.0000    12.0000 </r>
       <r>    -3.4086     0.0000    12.0000 </r>
       <r>    -3.3260     0.0000    12.0000 </r>
       <r>    -3.2434     0.0000    12.0000 </r>
       <r>    -3.1608     0.0000    12.0000 </r>
       <r>    -3.0782     0.0000    12.0000 </r>
       <r>    -2.9957     0.0000    12.0000 </r>
       <r>    -2.9131     0.0000    12.0000 </r>
       <r>    -2.8305     0.0000    12.0000 </r>
       <r>    -2.7479     0.0000    12.0000 </r>
       <r>    -2.6653     0.0000    12.0000 </r>
       <r>    -2.5827     0.0000    12.0000 </r>
       <r>    -2.5001     0.0000    12.0000 </r>
       <r>    -2.4176     0.0000    12.0000 </r>
       <r>    -2.3350     0.0000    12.0000 </r>
       <r>    -2.2524     0.0000    12.0000 </r>
       <r>    -2.1698     0.0000    12.0000 </r>
       <r>    -2.0872     0.0000    12.0000 </r>
       <r>    -2.0046     0.0000    12.0000 </r>
       <r>    -1.9220     0.0000    12.0000 </r>
       <r>    -1.8395     0.0000    12.0000 </r>
       <r>    -1.7569     0.0000    12.0000 </r>
       <r>    -1.6743     0.0000    12.0000 </r>
       <r>    -1.5917     0.0000    12.0000 </r>
       <r>    -1.5091     0.0000    12.0000 </r>
       <r>    -1.4265     0.0001    12.0000 </r>
       <r>    -1.3439     6.0542    12.5000 </r>
       <r>    -1.2614     0.0000    12.5000 </r>
       <r>    -1.1788     0.0000    12.5000 </r>
       <r>    -1.0962     0.0000    12.5000 </r>
       <r>    -1.0136     0.0766    12.5063 </r>
       <r>    -0.9310     5.9777    13.0000 </r>
       <r>    -0.8484     0.0059    13.0005 </r>
       <r>    -0.7658     6.0484    13.5000 </r>
       <r>    -0.6832     0.0000    13.5000 </r>
       <r>    -0.6007     0.0000    13.5000 </r>
       <r>    -0.5181     0.0000    13.5000 </r>
       <r>    -0.4355     0.0000    13.5000 </r>
       <r>    -0.3529     0.0060    13.5005 </r>
       <r>    -0.2703    12.1025    14.5000 </r>
       <r>    -0.1877     6.0539    15.0000 </r>
       <r>    -0.1051     0.0000    15.0000 </r>
       <r>    -0.0226     0.0000    15.0000 </r>
       <r>     0.0600     0.0927    15.0077 </r>
       <r>     0.1426    22.4542    16.8621 </r>
       <r>     0.2252     0.0000    17.0000 </r>
       <r>     0.3078     0.0000    17.0000 </r>
       <r>     0.3904     0.0000    17.0000 </r>
       <r>     0.4730     0.0000    17.0000 </r>
       <r>     0.5555     0.0000    17.0000 </r>
       <r>     0.6381     0.1087    17.0090 </r>
       <r>     0.7207    11.8706    17.9893 </r>
       <r>     0.8033    12.1557    19.0060 </r>
       <r>     0.8859    12.0357    20.0000 </r>
       <r>     0.9685     0.0000    20.0000 </r>
       <r>     1.0511     0.2164    20.0179 </r>
       <r>     1.1336     6.6102    20.5638 </r>
       <r>     1.2162    44.3721    24.2283 </r>
       <r>     1.2988     0.0012    24.5001 </r>
       <r>     1.3814    12.6192    25.5423 </r>
       <r>     1.4640    11.5980    26.5001 </r>
       <r>     1.5466    17.0990    27.9123 </r>
       <r>     1.6292    12.4651    29.0408 </r>
       <r>     1.7118    23.6637    30.9965 </r>
       <r>     1.7943     5.2159    31.4308 </r>
       <r>     1.8769     6.0536    32.0000 </r>
       <r>     1.9595     0.0000    32.0000 </r>
       <r>     2.0421     0.0000    32.0000 </r>
       <r>     2.1247     0.0000    32.0000 </r>
       <r>     2.2073     0.0000    32.0000 </r>
       <r>     2.2899     0.0027    32.0002 </r>
       <r>     2.3724     6.0515    32.5000 </r>
       <r>     2.4550     3.9440    32.8257 </r>
       <r>     2.5376    11.9951    34.0000 </r>
       <r>     2.6202     6.0542    34.5000 </r>
       <r>     2.7028    15.8705    35.8107 </r>
       <r>     2.7854    11.5680    36.9554 </r>
       <r>     2.8680    17.9612    38.5000 </r>
       <r>     2.9505     6.0544    39.0001 </r>
       <r>     3.0331     6.0536    39.5000 </r>
       <r>     3.1157     6.0543    40.0000 </r>
       <r>     3.1983    23.9788    41.9803 </r>
       <r>     3.2809     6.1618    42.5089 </r>
       <r>     3.3635     5.9921    43.0037 </r>
       <r>     3.4461     6.0089    43.5000 </r>
       <r>     3.5286     4.6688    43.8856 </r>
       <r>     3.6112     0.0000    44.0000 </r>
       <r>     3.6938    10.2745    44.8485 </r>
       <r>     3.7764     0.0000    45.0000 </r>
       <r>     3.8590     4.7281    45.3905 </r>
       <r>     3.9416     0.0000    45.5000 </r>
       <r>     4.0242     9.0934    46.2510 </r>
       <r>     4.1068     6.0543    47.0000 </r>
       <r>     4.1893     0.0000    47.0000 </r>
       <r>     4.2719     0.0000    47.0000 </r>
       <r>     4.3545     5.9581    47.4921 </r>
       <r>     4.4371     0.0000    47.5000 </r>
       <r>     4.5197     0.0014    47.5001 </r>
       <r>     4.6023    11.9747    48.4891 </r>
       <r>     4.6849     6.0517    48.9998 </r>
       <r>     4.7674     6.4714    49.5347 </r>
       <r>     4.8500    10.1011    50.3689 </r>
       <r>     4.9326    12.1085    51.5000 </r>
       <r>     5.0152     0.0000    51.5000 </r>
       <r>     5.0978     6.0203    51.9972 </r>
       <r>     5.1804    18.0665    53.5000 </r>
       <r>     5.2630     6.0543    54.0000 </r>
       <r>     5.3455     0.0000    54.0000 </r>
       <r>     5.4281     4.4621    54.3685 </r>
       <r>     5.5107    18.0497    56.0000 </r>
       <r>     5.5933     0.0000    56.0000 </r>
       <r>     5.6759     0.0000    56.0000 </r>
       <r>     5.7585     0.0000    56.0000 </r>
       <r>     5.8411     0.0000    56.0000 </r>
       <r>     5.9236     0.0000    56.0000 </r>
       <r>     6.0062     0.0000    56.0000 </r>
       <r>     6.0888     0.0000    56.0000 </r>
       <r>     6.1714     0.0000    56.0000 </r>
       <r>     6.2540     0.0000    56.0000 </r>
       <r>     6.3366     0.0000    56.0000 </r>
       <r>     6.4192     0.0000    56.0000 </r>
       <r>     6.5018     0.0000    56.0000 </r>
       <r>     6.5843     0.0000    56.0000 </r>
       <r>     6.6669     0.0000    56.0000 </r>
       <r>     6.7495     0.0000    56.0000 </r>
       <r>     6.8321     0.0000    56.0000 </r>
       <r>     6.9147     0.0000    56.0000 </r>
       <r>     6.9973     0.6905    56.0570 </r>
       <r>     7.0799    12.4382    57.0843 </r>
       <r>     7.1624     5.0341    57.5000 </r>
       <r>     7.2450     0.0000    57.5000 </r>
       <r>     7.3276     0.0000    57.5000 </r>
       <r>     7.4102     0.0000    57.5000 </r>
       <r>     7.4928     2.5198    57.7081 </r>
       <r>     7.5754    15.6210    58.9982 </r>
       <r>     7.6580     0.0000    59.0000 </r>
       <r>     7.7405     0.0000    59.0000 </r>
       <r>     7.8231     0.0000    59.0000 </r>
       <r>     7.9057     0.0000    59.0000 </r>
       <r>     7.9883     2.2652    59.1871 </r>
       <r>     8.0709     0.0025    59.5002 </r>
       <r>     8.1535    16.9857    60.9030 </r>
       <r>     8.2361     6.1000    61.5038 </r>
       <r>     8.3186     5.6338    62.0000 </r>
       <r>     8.4012     0.0000    62.0000 </r>
       <r>     8.4838     0.0000    62.0000 </r>
       <r>     8.5664     5.7867    62.4779 </r>
       <r>     8.6490     6.0543    63.0000 </r>
       <r>     8.7316     0.9859    63.0814 </r>
       <r>     8.8142     5.0684    63.5000 </r>
       <r>     8.8968     6.0543    64.0000 </r>
       <r>     8.9793     0.5183    64.0428 </r>
       <r>     9.0619     7.8627    64.6922 </r>
       <r>     9.1445     0.1257    65.0104 </r>
       <r>     9.2271     5.9286    65.5000 </r>
       <r>     9.3097     0.0000    65.5000 </r>
       <r>     9.3923     0.0000    65.5000 </r>
       <r>     9.4749     0.0454    65.5038 </r>
       <r>     9.5574    18.1178    67.0000 </r>
       <r>     9.6400     6.0539    67.5000 </r>
       <r>     9.7226     0.0000    67.5000 </r>
       <r>     9.8052     0.0000    67.5000 </r>
       <r>     9.8878     0.0000    67.5000 </r>
       <r>     9.9704     0.0001    67.5000 </r>
       <r>    10.0530     6.0542    68.0000 </r>
       <r>    10.1355     0.0000    68.0000 </r>
       <r>    10.2181     0.0000    68.0000 </r>
       <r>    10.3007     0.0000    68.0000 </r>
       <r>    10.3833     0.0000    68.0000 </r>
       <r>    10.4659     0.0000    68.0000 </r>
       <r>    10.5485     0.5898    68.0487 </r>
       <r>    10.6311     5.4741    68.5008 </r>
       <r>    10.7136    11.2753    69.4320 </r>
       <r>    10.7962     0.0000    69.5000 </r>
       <r>    10.8788     3.7992    69.8138 </r>
       <r>    10.9614     0.0000    70.0000 </r>
       <r>    11.0440     0.0000    70.0000 </r>
       <r>    11.1266     0.0000    70.0000 </r>
       <r>    11.2092     0.0000    70.0000 </r>
       <r>    11.2918     0.0000    70.0000 </r>
       <r>    11.3743     0.0000    70.0000 </r>
       <r>    11.4569    11.1511    70.9209 </r>
       <r>    11.5395     0.0000    71.0000 </r>
       <r>    11.6221     0.0000    71.0000 </r>
       <r>    11.7047     6.0543    71.5000 </r>
       <r>    11.7873     0.0000    71.5000 </r>
       <r>    11.8699     0.0000    71.5000 </r>
       <r>    11.9524     0.0001    71.5000 </r>
       <r>    12.0350     6.0542    72.0000 </r>
       <r>    12.1176     0.0000    72.0000 </r>
       <r>    12.2002     0.0000    72.0000 </r>
       <r>    12.2828     0.0000    72.0000 </r>
       <r>    12.3654     0.0000    72.0000 </r>
       <r>    12.4480     0.0000    72.0000 </r>
       <r>    12.5305     0.0000    72.0000 </r>
       <r>    12.6131     0.0000    72.0000 </r>
       <r>    12.6957     0.0000    72.0000 </r>
       <r>    12.7783     0.0000    72.0000 </r>
       <r>    12.8609     0.0000    72.0000 </r>
       <r>    12.9435     0.0000    72.0000 </r>
       <r>    13.0261     0.0000    72.0000 </r>
       <r>    13.1086     0.0000    72.0000 </r>
      </set>
      <set comment="spin 2">
       <r>   -11.6672     0.0000     0.0000 </r>
       <r>   -11.5846     0.0000     0.0000 </r>
       <r>   -11.5020     0.0000     0.0000 </r>
       <r>   -11.4195     0.0000     0.0000 </r>
       <r>   -11.3369     0.0000     0.0000 </r>
       <r>   -11.2543     0.0000     0.0000 </r>
       <r>   -11.1717     0.0000     0.0000 </r>
       <r>   -11.0891     0.0000     0.0000 </r>
       <r>   -11.0065     0.0000     0.0000 </r>
       <r>   -10.9239     0.0000     0.0000 </r>
       <r>   -10.8414     0.0000     0.0000 </r>
       <r>   -10.7588     0.0000     0.0000 </r>
       <r>   -10.6762     0.0000     0.0000 </r>
       <r>   -10.5936     0.0000     0.0000 </r>
       <r>   -10.5110     6.0542     0.5000 </r>
       <r>   -10.4284     0.0000     0.5000 </r>
       <r>   -10.3458     6.0543     1.0000 </r>
       <r>   -10.2633     0.6888     1.0569 </r>
       <r>   -10.1807     5.3655     1.5000 </r>
       <r>   -10.0981     6.0543     2.0000 </r>
       <r>   -10.0155     5.5656     2.4596 </r>
       <r>    -9.9329     0.0041     2.5003 </r>
       <r>    -9.8503     6.0501     3.0000 </r>
       <r>    -9.7677     0.0000     3.0000 </r>
       <r>    -9.6851     0.0000     3.0000 </r>
       <r>    -9.6026     5.1227     3.4231 </r>
       <r>    -9.5200     5.2823     4.0000 </r>
       <r>    -9.4374     0.0000     4.0000 </r>
       <r>    -9.3548     0.0000     4.0000 </r>
       <r>    -9.2722     0.0000     4.0000 </r>
       <r>    -9.1896     0.0000     4.0000 </r>
       <r>    -9.1070     0.0000     4.0000 </r>
       <r>    -9.0245     0.0000     4.0000 </r>
       <r>    -8.9419     0.0000     4.0000 </r>
       <r>    -8.8593     6.0086     4.4962 </r>
       <r>    -8.7767     4.1821     4.8454 </r>
       <r>    -8.6941     0.0185     5.0015 </r>
       <r>    -8.6115     7.0812     5.5863 </r>
       <r>    -8.5289    11.0631     6.5000 </r>
       <r>    -8.4464     4.7063     6.8887 </r>
       <r>    -8.3638     6.0529     7.4999 </r>
       <r>    -8.2812     0.0000     7.5000 </r>
       <r>    -8.1986     6.0542     8.0000 </r>
       <r>    -8.1160     0.0000     8.0000 </r>
       <r>    -8.0334     0.0000     8.0000 </r>
       <r>    -7.9508     0.0000     8.0000 </r>
       <r>    -7.8683     0.0000     8.0000 </r>
       <r>    -7.7857     0.0000     8.0000 </r>
       <r>    -7.7031     0.0000     8.0000 </r>
       <r>    -7.6205     0.0000     8.0000 </r>
       <r>    -7.5379     0.0000     8.0000 </r>
       <r>    -7.4553     0.0000     8.0000 </r>
       <r>    -7.3727     0.0000     8.0000 </r>
       <r>    -7.2901     0.0000     8.0000 </r>
       <r>    -7.2076     0.0000     8.0000 </r>
       <r>    -7.1250     0.0000     8.0000 </r>
       <r>    -7.0424     0.0000     8.0000 </r>
       <r>    -6.9598     0.0000     8.0000 </r>
       <r>    -6.8772     0.0000     8.0000 </r>
       <r>    -6.7946     0.0000     8.0000 </r>
       <r>    -6.7120     0.0000     8.0000 </r>
       <r>    -6.6295     0.0000     8.0000 </r>
       <r>    -6.5469     0.0000     8.0000 </r>
       <r>    -6.4643     0.0000     8.0000 </r>
       <r>    -6.3817     0.0000     8.0000 </r>
       <r>    -6.2991     0.0000     8.0000 </r>
       <r>    -6.2165     0.0000     8.0000 </r>
       <r>    -6.1339     0.0000     8.0000 </r>
       <r>    -6.0514     0.0000     8.0000 </r>
       <r>    -5.9688     0.0000     8.0000 </r>
       <r>    -5.8862     0.0000     8.0000 </r>
       <r>    -5.8036     0.0000     8.0000 </r>
       <r>    -5.7210     0.0000     8.0000 </r>
       <r>    -5.6384     0.0000     8.0000 </r>
       <r>    -5.5558     0.0000     8.0000 </r>
       <r>    -5.4732     0.0000     8.0000 </r>
       <r>    -5.3907     0.0000     8.0000 </r>
       <r>    -5.3081     0.0000     8.0000 </r>
       <r>    -5.2255     0.0000     8.0000 </r>
       <r>    -5.1429     0.0000     8.0000 </r>
       <r>    -5.0603     0.0000     8.0000 </r>
       <r>    -4.9777     0.0000     8.0000 </r>
       <r>    -4.8951     6.0543     8.5000 </r>
       <r>    -4.8126     0.0000     8.5000 </r>
       <r>    -4.7300     0.0000     8.5000 </r>
       <r>    -4.6474     6.0381     8.9987 </r>
       <r>    -4.5648     6.0499     9.4996 </r>
       <r>    -4.4822     0.0000     9.5000 </r>
       <r>    -4.3996     1.5810     9.6306 </r>
       <r>    -4.3170    10.5275    10.5000 </r>
       <r>    -4.2345     0.0000    10.5000 </r>
       <r>    -4.1519     0.0000    10.5000 </r>
       <r>    -4.0693     0.0000    10.5000 </r>
       <r>    -3.9867     5.2405    10.9328 </r>
       <r>    -3.9041     0.0000    11.0000 </r>
       <r>    -3.8215     6.0543    11.5000 </r>
       <r>    -3.7389     0.0000    11.5000 </r>
       <r>    -3.6564     5.5924    11.9619 </r>
       <r>    -3.5738     0.0000    12.0000 </r>
       <r>    -3.4912     0.0000    12.0000 </r>
       <r>    -3.4086     0.0000    12.0000 </r>
       <r>    -3.3260     0.0000    12.0000 </r>
       <r>    -3.2434     0.0000    12.0000 </r>
       <r>    -3.1608     0.0000    12.0000 </r>
       <r>    -3.0782     0.0000    12.0000 </r>
       <r>    -2.9957     0.0000    12.0000 </r>
       <r>    -2.9131     0.0000    12.0000 </r>
       <r>    -2.8305     0.0000    12.0000 </r>
       <r>    -2.7479     0.0000    12.0000 </r>
       <r>    -2.6653     0.0000    12.0000 </r>
       <r>    -2.5827     0.0000    12.0000 </r>
       <r>    -2.5001     0.0000    12.0000 </r>
       <r>    -2.4176     0.0000    12.0000 </r>
       <r>    -2.3350     0.0000    12.0000 </r>
       <r>    -2.2524     0.0000    12.0000 </r>
       <r>    -2.1698     0.0000    12.0000 </r>
       <r>    -2.0872     0.0000    12.0000 </r>
       <r>    -2.0046     0.0000    12.0000 </r>
       <r>    -1.9220     0.0000    12.0000 </r>
       <r>    -1.8395     0.0000    12.0000 </r>
       <r>    -1.7569     0.0000    12.0000 </r>
       <r>    -1.6743     0.0000    12.0000 </r>
       <r>    -1.5917     0.0000    12.0000 </r>
       <r>    -1.5091     0.0000    12.0000 </r>
       <r>    -1.4265     0.0001    12.0000 </r>
       <r>    -1.3439     6.0542    12.5000 </r>
       <r>    -1.2614     0.0000    12.5000 </r>
       <r>    -1.1788     0.0000    12.5000 </r>
       <r>    -1.0962     0.0000    12.5000 </r>
       <r>    -1.0136     0.0822    12.5068 </r>
       <r>    -0.9310     5.9721    13.0000 </r>
       <r>    -0.8484     0.0064    13.0005 </r>
       <r>    -0.7658     6.0479    13.5000 </r>
       <r>    -0.6832     0.0000    13.5000 </r>
       <r>    -0.6007     0.0000    13.5000 </r>
       <r>    -0.5181     0.0000    13.5000 </r>
       <r>    -0.4355     0.0000    13.5000 </r>
       <r>    -0.3529     0.0066    13.5005 </r>
       <r>    -0.2703    12.1020    14.5000 </r>
       <r>    -0.1877     6.0539    15.0000 </r>
       <r>    -0.1051     0.0000    15.0000 </r>
       <r>    -0.0226     0.0000    15.0000 </r>
       <r>     0.0600     0.0983    15.0081 </r>
       <r>     0.1426    22.4989    16.8662 </r>
       <r>     0.2252     0.0000    17.0000 </r>
       <r>     0.3078     0.0000    17.0000 </r>
       <r>     0.3904     0.0000    17.0000 </r>
       <r>     0.4730     0.0000    17.0000 </r>
       <r>     0.5555     0.0000    17.0000 </r>
       <r>     0.6381     0.1147    17.0095 </r>
       <r>     0.7207    11.8734    17.9900 </r>
       <r>     0.8033    12.1579    19.0063 </r>
       <r>     0.8859    12.0322    20.0000 </r>
       <r>     0.9685     0.0000    20.0000 </r>
       <r>     1.0511     0.2261    20.0187 </r>
       <r>     1.1336     6.6213    20.5655 </r>
       <r>     1.2162    44.4155    24.2336 </r>
       <r>     1.2988     0.0013    24.5001 </r>
       <r>     1.3814    12.6356    25.5436 </r>
       <r>     1.4640    11.5816    26.5001 </r>
       <r>     1.5466    17.1362    27.9153 </r>
       <r>     1.6292    12.4762    29.0423 </r>
       <r>     1.7118    23.6497    30.9967 </r>
       <r>     1.7943     5.2379    31.4326 </r>
       <r>     1.8769     6.0536    32.0000 </r>
       <r>     1.9595     0.0000    32.0000 </r>
       <r>     2.0421     0.0000    32.0000 </r>
       <r>     2.1247     0.0000    32.0000 </r>
       <r>     2.2073     0.0000    32.0000 </r>
       <r>     2.2899     0.0030    32.0002 </r>
       <r>     2.3724     6.0513    32.5000 </r>
       <r>     2.4550     3.9940    32.8298 </r>
       <r>     2.5376    11.9890    34.0000 </r>
       <r>     2.6202     6.0542    34.5000 </r>
       <r>     2.7028    15.9150    35.8144 </r>
       <r>     2.7854    11.5950    36.9576 </r>
       <r>     2.8680    17.9519    38.5000 </r>
       <r>     2.9505     6.0545    39.0001 </r>
       <r>     3.0331     6.0535    39.5000 </r>
       <r>     3.1157     6.0543    40.0000 </r>
       <r>     3.1983    23.9867    41.9810 </r>
       <r>     3.2809     6.1670    42.5093 </r>
       <r>     3.3635     5.9897    43.0040 </r>
       <r>     3.4461     6.0061    43.5000 </r>
       <r>     3.5286     4.7098    43.8890 </r>
       <r>     3.6112     0.0000    44.0000 </r>
       <r>     3.6938    10.3237    44.8526 </r>
       <r>     3.7764     0.0000    45.0000 </r>
       <r>     3.8590     4.7659    45.3936 </r>
       <r>     3.9416     0.0000    45.5000 </r>
       <r>     4.0242     9.1436    46.2551 </r>
       <r>     4.1068     6.0543    47.0000 </r>
       <r>     4.1893     0.0000    47.0000 </r>
       <r>     4.2719     0.0000    47.0000 </r>
       <r>     4.3545     5.9630    47.4925 </r>
       <r>     4.4371     0.0000    47.5000 </r>
       <r>     4.5197     0.0015    47.5001 </r>
       <r>     4.6023    11.9811    48.4896 </r>
       <r>     4.6849     6.0522    48.9998 </r>
       <r>     4.7674     6.4883    49.5361 </r>
       <r>     4.8500    10.1244    50.3722 </r>
       <r>     4.9326    12.1085    51.5000 </r>
       <r>     5.0152     0.0000    51.5000 </r>
       <r>     5.0978     6.0314    51.9981 </r>
       <r>     5.1804    18.0615    53.5000 </r>
       <r>     5.2630     6.0543    54.0000 </r>
       <r>     5.3455     0.0000    54.0000 </r>
       <r>     5.4281     4.5112    54.3726 </r>
       <r>     5.5107    18.0438    56.0000 </r>
       <r>     5.5933     0.0000    56.0000 </r>
       <r>     5.6759     0.0000    56.0000 </r>
       <r>     5.7585     0.0000    56.0000 </r>
       <r>     5.8411     0.0000    56.0000 </r>
       <r>     5.9236     0.0000    56.0000 </r>
       <r>     6.0062     0.0000    56.0000 </r>
       <r>     6.0888     0.0000    56.0000 </r>
       <r>     6.1714     0.0000    56.0000 </r>
       <r>     6.2540     0.0000    56.0000 </r>
       <r>     6.3366     0.0000    56.0000 </r>
       <r>     6.4192     0.0000    56.0000 </r>
       <r>     6.5018     0.0000    56.0000 </r>
       <r>     6.5843     0.0000    56.0000 </r>
       <r>     6.6669     0.0000    56.0000 </r>
       <r>     6.7495     0.0000    56.0000 </r>
       <r>     6.8321     0.0000    56.0000 </r>
       <r>     6.9147     0.0000    56.0000 </r>
       <r>     6.9973     0.7254    56.0599 </r>
       <r>     7.0799    12.4440    57.0876 </r>
       <r>     7.1624     4.9935    57.5000 </r>
       <r>     7.2450     0.0000    57.5000 </r>
       <r>     7.3276     0.0000    57.5000 </r>
       <r>     7.4102     0.0000    57.5000 </r>
       <r>     7.4928     2.5977    57.7145 </r>
       <r>     7.5754    11.6617    58.9983 </r>
       <r>     7.6580     0.0000    59.0000 </r>
       <r>     7.7405     0.0000    59.0000 </r>
       <r>     7.8231     0.0000    59.0000 </r>
       <r>     7.9057     0.0000    59.0000 </r>
       <r>     7.9883     2.3240    59.1919 </r>
       <r>     8.0709     0.0027    59.5002 </r>
       <r>     8.1535    17.0269    60.9064 </r>
       <r>     8.2361     6.1385    61.5070 </r>
       <r>     8.3186     5.6135    62.0000 </r>
       <r>     8.4012     0.0000    62.0000 </r>
       <r>     8.4838     0.0000    62.0000 </r>
       <r>     8.5664     5.8008    62.4791 </r>
       <r>     8.6490     6.0543    63.0000 </r>
       <r>     8.7316     1.0207    63.0843 </r>
       <r>     8.8142     5.0336    63.5000 </r>
       <r>     8.8968     6.0543    64.0000 </r>
       <r>     8.9793     0.5402    64.0446 </r>
       <r>     9.0619     7.8947    64.6966 </r>
       <r>     9.1445     0.1327    65.0110 </r>
       <r>     9.2271     5.9216    65.5000 </r>
       <r>     9.3097     0.0000    65.5000 </r>
       <r>     9.3923     0.0000    65.5000 </r>
       <r>     9.4749     0.0483    65.5040 </r>
       <r>     9.5574    18.1149    67.0000 </r>
       <r>     9.6400     6.0538    67.5000 </r>
       <r>     9.7226     0.0000    67.5000 </r>
       <r>     9.8052     0.0000    67.5000 </r>
       <r>     9.8878     0.0000    67.5000 </r>
       <r>     9.9704     0.0001    67.5000 </r>
       <r>    10.0530     6.0542    68.0000 </r>
       <r>    10.1355     0.0000    68.0000 </r>
       <r>    10.2181     0.0000    68.0000 </r>
       <r>    10.3007     0.0000    68.0000 </r>
       <r>    10.3833     0.0000    68.0000 </r>
       <r>    10.4659     0.0000    68.0000 </r>
       <r>    10.5485     0.6255    68.0517 </r>
       <r>    10.6311     5.4397    68.5009 </r>
       <r>    10.7136    11.3122    69.4351 </r>
       <r>    10.7962     0.0000    69.5000 </r>
       <r>    10.8788     3.8829    69.8207 </r>
       <r>    10.9614     0.0000    70.0000 </r>
       <r>    11.0440     0.0000    70.0000 </r>
       <r>    11.1266     0.0000    70.0000 </r>
       <r>    11.2092     0.0000    70.0000 </r>
       <r>    11.2918     0.0000    70.0000 </r>
       <r>    11.3743     0.0000    70.0000 </r>
       <r>    11.4569    11.1960    70.9246 </r>
       <r>    11.5395     0.0000    71.0000 </r>
       <r>    11.6221     0.0000    71.0000 </r>
       <r>    11.7047     6.0543    71.5000 </r>
       <r>    11.7873     0.0000    71.5000 </r>
       <r>    11.8699     0.0000    71.5000 </r>
       <r>    11.9524     0.0001    71.5000 </r>
       <r>    12.0350     6.0542    72.0000 </r>
       <r>    12.1176     0.0000    72.0000 </r>
       <r>    12.2002     0.0000    72.0000 </r>
       <r>    12.2828     0.0000    72.0000 </r>
       <r>    12.3654     0.0000    72.0000 </r>
       <r>    12.4480     0.0000    72.0000 </r>
       <r>    12.5305     0.0000    72.0000 </r>
       <r>    12.6131     0.0000    72.0000 </r>
       <r>    12.6957     0.0000    72.0000 </r>
       <r>    12.7783     0.0000    72.0000 </r>
       <r>    12.8609     0.0000    72.0000 </r>
       <r>    12.9435     0.0000    72.0000 </r>
       <r>    13.0261     0.0000    72.0000 </r>
       <r>    13.1086     0.0000    72.0000 </r>
      </set>
     </set>
    </array>
   </total>
   <partial>
    <array>
     <dimension dim="1">gridpoints</dimension>
     <dimension dim="2">spin</dimension>
     <dimension dim="3">ion</dimension>
     <field>energy</field>
     <field>    s</field>
     <field>   py</field>
     <field>   pz</field>
     <field>   px</field>
     <field>  dxy</field>
     <field>  dyz</field>
     <field>  dz2</field>
     <field>  dxz</field>
     <field>x2-y2</field>
     <set>
      <set comment="ion 1">
       <set comment="spin 1">
        <r>   -11.6672     0.0000     0.0000     0.0000     0.0000     0.0000     0.0000     0.0000     0.0000     0.0000 </r>
        <r>   -11.5846     0.0000     0.0000     0.0000     0.0000     0.0000     0.0000     0.0000     0.0000     0.0000 </r>
        <r>   -11.5020     0.0000     0.0000     0.0000     0.0000     0.0000     0.0000     0.0000     0.0000     0.0000 </r>
        <r>   -11.4195     0.0000     0.0000     0.0000     0.0000     0.0000     0.0000     0.0000     0.0000     0.0000 </r>
        <r>   -11.3369     0.0000     0.0000     0.0000     0.0000     0.0000     0.0000     0.0000     0.0000     0.0000 </r>
        <r>   -11.2543     0.0000     0.0000     0.0000     0.0000     0.0000     0.0000     0.0000     0.0000     0.0000 </r>
        <r>   -11.1717     0.0000     0.0000     0.0000     0.0000     0.0000     0.0000     0.0000     0.0000     0.0000 </r>
        <r>   -11.0891     0.0000     0.0000     0.0000     0.0000     0.0000     0.0000     0.0000     0.0000     0.0000 </r>
        <r>   -11.0065     0.0000     0.0000     0.0000     0.0000     0.0000     0.0000     0.0000     0.0000     0.0000 </r>
        <r>   -10.9239     0.0000     0.0000     0.0000     0.0000     0.0000     0.0000     0.0000     0.0000     0.0000 </r>
        <r>   -10.8414     0.0000     0.0000     0.0000     0.0000     0.0000     0.0000     0.0000     0.0000     0.0000 </r>
        <r>   -10.7588     0.0000     0.0000     0.0000     0.0000     0.0000     0.0000     0.0000     0.0000     0.0000 </r>
        <r>   -10.6762     0.0000     0.0000     0.0000     0.0000     0.0000     0.0000     0.0000     0.0000     0.0000 </r>
        <r>   -10.5936     0.0000     0.0000     0.0000     0.0000     0.0000     0.0000     0.0000     0.0000     0.0000 </r>
        <r>   -10.5110     0.0415     0.0000     0.0000     0.0000     0.0000     0.0000     0.0000     0.0000     0.0000 </r>
        <r>   -10.4284     0.0000     0.0000     0.0000     0.0000     0.0000     0.0000     0.0000     0.0000     0.0000 </r>
        <r>   -10.3458     0.0348     0.0024     0.0002     0.0000     0.0000     0.0001     0.0002     0.0000     0.0011 </r>
        <r>   -10.2633     0.0016     0.0001     0.0009     0.0000     0.0000     0.0002     0.0004     0.0000     0.0000 </r>
        <r>   -10.1807     0.0126     0.0004     0.0069     0.0000     0.0000     0.0013     0.0031     0.0000     0.0000 </r>
        <r>   -10.0981     0.0084     0.0029     0.0074     0.0000     0.0000     0.0015     0.0029     0.0000     0.0017 </r>
        <r>   -10.0155     0.0432     0.0004     0.0008     0.0000     0.0000     0.0001     0.0000     0.0000     0.0007 </r>
        <r>    -9.9329     0.0000     0.0000     0.0000     0.0000     0.0000     0.0000     0.0000     0.0000     0.0000 </r>
        <r>    -9.8503     0.0357     0.0039     0.0015     0.0000     0.0000     0.0002     0.0004     0.0000     0.0021 </r>
        <r>    -9.7677     0.0000     0.0000     0.0000     0.0000     0.0000     0.0000     0.0000     0.0000     0.0000 </r>
        <r>    -9.6851     0.0000     0.0000     0.0000     0.0000     0.0000     0.0000     0.0000     0.0000     0.0000 </r>
        <r>    -9.6026     0.0055     0.0037     0.0061     0.0000     0.0000     0.0016     0.0070     0.0000     0.0008 </r>
        <r>    -9.5200     0.0009     0.0072     0.0051     0.0000     0.0000     0.0013     0.0060     0.0000     0.0026 </r>
        <r>    -9.4374     0.0000     0.0000     0.0000     0.0000     0.0000     0.0000     0.0000     0.0000     0.0000 </r>
        <r>    -9.3548     0.0000     0.0000     0.0000     0.0000     0.0000     0.0000     0.0000     0.0000     0.0000 </r>
        <r>    -9.2722     0.0000     0.0000     0.0000     0.0000     0.0000     0.0000     0.0000     0.0000     0.0000 </r>
        <r>    -9.1896     0.0000     0.0000     0.0000     0.0000     0.0000     0.0000     0.0000     0.0000     0.0000 </r>
        <r>    -9.1070     0.0000     0.0000     0.0000     0.0000     0.0000     0.0000     0.0000     0.0000     0.0000 </r>
        <r>    -9.0245     0.0000     0.0000     0.0000     0.0000     0.0000     0.0000     0.0000     0.0000     0.0000 </r>
        <r>    -8.9419     0.0000     0.0000     0.0000     0.0000     0.0000     0.0000     0.0000     0.0000     0.0000 </r>
        <r>    -8.8593     0.0326     0.0095     0.0020     0.0000     0.0000     0.0007     0.0045     0.0000     0.0046 </r>
        <r>    -8.7767     0.0133     0.0027     0.0077     0.0000     0.0000     0.0023     0.0014     0.0000     0.0047 </r>
        <r>    -8.6941     0.0000     0.0001     0.0000     0.0000     0.0000     0.0000     0.0000     0.0000     0.0000 </r>
        <r>    -8.6115     0.0199     0.0186     0.0005     0.0000     0.0000     0.0001     0.0048     0.0000     0.0125 </r>
        <r>    -8.5289     0.0355     0.0139     0.0164     0.0000     0.0000     0.0043     0.0013     0.0000     0.0198 </r>
        <r>    -8.4464     0.0231     0.0098     0.0011     0.0000     0.0000     0.0002     0.0006     0.0000     0.0093 </r>
        <r>    -8.3638     0.0142     0.0055     0.0125     0.0000     0.0000     0.0036     0.0022     0.0000     0.0107 </r>
        <r>    -8.2812     0.0000     0.0000     0.0000     0.0000     0.0000     0.0000     0.0000     0.0000     0.0000 </r>
        <r>    -8.1986     0.0069     0.0073     0.0134     0.0000     0.0000     0.0039     0.0013     0.0000     0.0143 </r>
        <r>    -8.1160     0.0000     0.0000     0.0000     0.0000     0.0000     0.0000     0.0000     0.0000     0.0000 </r>
        <r>    -8.0334     0.0000     0.0000     0.0000     0.0000     0.0000     0.0000     0.0000     0.0000     0.0000 </r>
        <r>    -7.9508     0.0000     0.0000     0.0000     0.0000     0.0000     0.0000     0.0000     0.0000     0.0000 </r>
        <r>    -7.8683     0.0000     0.0000     0.0000     0.0000     0.0000     0.0000     0.0000     0.0000     0.0000 </r>
        <r>    -7.7857     0.0000     0.0000     0.0000     0.0000     0.0000     0.0000     0.0000     0.0000     0.0000 </r>
        <r>    -7.7031     0.0000     0.0000     0.0000     0.0000     0.0000     0.0000     0.0000     0.0000     0.0000 </r>
        <r>    -7.6205     0.0000     0.0000     0.0000     0.0000     0.0000     0.0000     0.0000     0.0000     0.0000 </r>
        <r>    -7.5379     0.0000     0.0000     0.0000     0.0000     0.0000     0.0000     0.0000     0.0000     0.0000 </r>
        <r>    -7.4553     0.0000     0.0000     0.0000     0.0000     0.0000     0.0000     0.0000     0.0000     0.0000 </r>
        <r>    -7.3727     0.0000     0.0000     0.0000     0.0000     0.0000     0.0000     0.0000     0.0000     0.0000 </r>
        <r>    -7.2901     0.0000     0.0000     0.0000     0.0000     0.0000     0.0000     0.0000     0.0000     0.0000 </r>
        <r>    -7.2076     0.0000     0.0000     0.0000     0.0000     0.0000     0.0000     0.0000     0.0000     0.0000 </r>
        <r>    -7.1250     0.0000     0.0000     0.0000     0.0000     0.0000     0.0000     0.0000     0.0000     0.0000 </r>
        <r>    -7.0424     0.0000     0.0000     0.0000     0.0000     0.0000     0.0000     0.0000     0.0000     0.0000 </r>
        <r>    -6.9598     0.0000     0.0000     0.0000     0.0000     0.0000     0.0000     0.0000     0.0000     0.0000 </r>
        <r>    -6.8772     0.0000     0.0000     0.0000     0.0000     0.0000     0.0000     0.0000     0.0000     0.0000 </r>
        <r>    -6.7946     0.0000     0.0000     0.0000     0.0000     0.0000     0.0000     0.0000     0.0000     0.0000 </r>
        <r>    -6.7120     0.0000     0.0000     0.0000     0.0000     0.0000     0.0000     0.0000     0.0000     0.0000 </r>
        <r>    -6.6295     0.0000     0.0000     0.0000     0.0000     0.0000     0.0000     0.0000     0.0000     0.0000 </r>
        <r>    -6.5469     0.0000     0.0000     0.0000     0.0000     0.0000     0.0000     0.0000     0.0000     0.0000 </r>
[...]
        <r>  0.0047  0.0214  0.0117  0.0000  0.0000  0.0000  0.0000  0.0000  0.0000 </r>
        <r>  0.0047  0.0214  0.0117  0.0000  0.0000  0.0000  0.0000  0.0000  0.0000 </r>
        <r>  0.0047  0.0214  0.0117  0.0000  0.0000  0.0000  0.0000  0.0000  0.0000 </r>
        <r>  0.0011  0.0118  0.0041  0.0000  0.0000  0.0000  0.0000  0.0000  0.0000 </r>
        <r>  0.0011  0.0118  0.0041  0.0000  0.0000  0.0000  0.0000  0.0000  0.0000 </r>
        <r>  0.0011  0.0118  0.0041  0.0000  0.0000  0.0000  0.0000  0.0000  0.0000 </r>
        <r>  0.0011  0.0118  0.0041  0.0000  0.0000  0.0000  0.0000  0.0000  0.0000 </r>
       </set>
       <set comment="band 61">
        <r>  0.0030  0.0012  0.0007  0.0000  0.0000  0.0023  0.0006  0.0000  0.0018 </r>
        <r>  0.0030  0.0012  0.0007  0.0000  0.0000  0.0023  0.0006  0.0000  0.0018 </r>
        <r>  0.0030  0.0012  0.0007  0.0000  0.0000  0.0023  0.0006  0.0000  0.0018 </r>
        <r>  0.0030  0.0012  0.0007  0.0000  0.0000  0.0023  0.0006  0.0000  0.0018 </r>
        <r>  0.0072  0.0276  0.0289  0.0000  0.0000  0.0014  0.0007  0.0000  0.0030 </r>
        <r>  0.0072  0.0276  0.0289  0.0000  0.0000  0.0014  0.0007  0.0000  0.0030 </r>
        <r>  0.0072  0.0276  0.0289  0.0000  0.0000  0.0014  0.0007  0.0000  0.0030 </r>
        <r>  0.0072  0.0276  0.0289  0.0000  0.0000  0.0014  0.0007  0.0000  0.0030 </r>
        <r>  0.0043  0.0220  0.0066  0.0000  0.0000  0.0000  0.0000  0.0000  0.0000 </r>
        <r>  0.0043  0.0220  0.0066  0.0000  0.0000  0.0000  0.0000  0.0000  0.0000 </r>
        <r>  0.0043  0.0220  0.0066  0.0000  0.0000  0.0000  0.0000  0.0000  0.0000 </r>
        <r>  0.0043  0.0220  0.0066  0.0000  0.0000  0.0000  0.0000  0.0000  0.0000 </r>
        <r>  0.0029  0.0038  0.0074  0.0000  0.0000  0.0000  0.0000  0.0000  0.0000 </r>
        <r>  0.0029  0.0038  0.0074  0.0000  0.0000  0.0000  0.0000  0.0000  0.0000 </r>
        <r>  0.0029  0.0038  0.0074  0.0000  0.0000  0.0000  0.0000  0.0000  0.0000 </r>
        <r>  0.0029  0.0038  0.0074  0.0000  0.0000  0.0000  0.0000  0.0000  0.0000 </r>
       </set>
       <set comment="band 62">
        <r>  0.0000  0.0000  0.0000  0.0064  0.0001  0.0000  0.0000  0.0015  0.0000 </r>
        <r>  0.0000  0.0000  0.0000  0.0064  0.0001  0.0000  0.0000  0.0015  0.0000 </r>
        <r>  0.0000  0.0000  0.0000  0.0064  0.0001  0.0000  0.0000  0.0015  0.0000 </r>
        <r>  0.0000  0.0000  0.0000  0.0064  0.0001  0.0000  0.0000  0.0015  0.0000 </r>
        <r>  0.0000  0.0000  0.0000  0.0897  0.0001  0.0000  0.0000  0.0016  0.0000 </r>
        <r>  0.0000  0.0000  0.0000  0.0897  0.0001  0.0000  0.0000  0.0016  0.0000 </r>
        <r>  0.0000  0.0000  0.0000  0.0897  0.0001  0.0000  0.0000  0.0016  0.0000 </r>
        <r>  0.0000  0.0000  0.0000  0.0897  0.0001  0.0000  0.0000  0.0016  0.0000 </r>
        <r>  0.0000  0.0000  0.0000  0.0016  0.0000  0.0000  0.0000  0.0000  0.0000 </r>
        <r>  0.0000  0.0000  0.0000  0.0016  0.0000  0.0000  0.0000  0.0000  0.0000 </r>
        <r>  0.0000  0.0000  0.0000  0.0016  0.0000  0.0000  0.0000  0.0000  0.0000 </r>
        <r>  0.0000  0.0000  0.0000  0.0016  0.0000  0.0000  0.0000  0.0000  0.0000 </r>
        <r>  0.0000  0.0000  0.0000  0.0301  0.0000  0.0000  0.0000  0.0000  0.0000 </r>
        <r>  0.0000  0.0000  0.0000  0.0301  0.0000  0.0000  0.0000  0.0000  0.0000 </r>
        <r>  0.0000  0.0000  0.0000  0.0301  0.0000  0.0000  0.0000  0.0000  0.0000 </r>
        <r>  0.0000  0.0000  0.0000  0.0301  0.0000  0.0000  0.0000  0.0000  0.0000 </r>
       </set>
       <set comment="band 63">
        <r>  0.0026  0.0014  0.0012  0.0000  0.0000  0.0008  0.0004  0.0000  0.0005 </r>
        <r>  0.0026  0.0014  0.0012  0.0000  0.0000  0.0008  0.0004  0.0000  0.0005 </r>
        <r>  0.0026  0.0014  0.0012  0.0000  0.0000  0.0008  0.0004  0.0000  0.0005 </r>
        <r>  0.0026  0.0014  0.0012  0.0000  0.0000  0.0008  0.0004  0.0000  0.0005 </r>
        <r>  0.0101  0.0068  0.0462  0.0000  0.0000  0.0012  0.0012  0.0000  0.0008 </r>
        <r>  0.0101  0.0068  0.0462  0.0000  0.0000  0.0012  0.0012  0.0000  0.0008 </r>
        <r>  0.0101  0.0068  0.0462  0.0000  0.0000  0.0012  0.0012  0.0000  0.0008 </r>
        <r>  0.0101  0.0068  0.0462  0.0000  0.0000  0.0012  0.0012  0.0000  0.0008 </r>
        <r>  0.0032  0.0176  0.0144  0.0000  0.0000  0.0000  0.0000  0.0000  0.0000 </r>
        <r>  0.0032  0.0176  0.0144  0.0000  0.0000  0.0000  0.0000  0.0000  0.0000 </r>
        <r>  0.0032  0.0176  0.0144  0.0000  0.0000  0.0000  0.0000  0.0000  0.0000 </r>
        <r>  0.0032  0.0176  0.0144  0.0000  0.0000  0.0000  0.0000  0.0000  0.0000 </r>
        <r>  0.0058  0.0049  0.0090  0.0000  0.0000  0.0000  0.0000  0.0000  0.0000 </r>
        <r>  0.0058  0.0049  0.0090  0.0000  0.0000  0.0000  0.0000  0.0000  0.0000 </r>
        <r>  0.0058  0.0049  0.0090  0.0000  0.0000  0.0000  0.0000  0.0000  0.0000 </r>
        <r>  0.0058  0.0049  0.0090  0.0000  0.0000  0.0000  0.0000  0.0000  0.0000 </r>
       </set>
       <set comment="band 64">
        <r>  0.0000  0.0000  0.0000  0.0005  0.0013  0.0000  0.0000  0.0040  0.0000 </r>
        <r>  0.0000  0.0000  0.0000  0.0005  0.0013  0.0000  0.0000  0.0040  0.0000 </r>
        <r>  0.0000  0.0000  0.0000  0.0005  0.0013  0.0000  0.0000  0.0040  0.0000 </r>
        <r>  0.0000  0.0000  0.0000  0.0005  0.0013  0.0000  0.0000  0.0040  0.0000 </r>
        <r>  0.0000  0.0000  0.0000  0.0894  0.0004  0.0000  0.0000  0.0023  0.0000 </r>
        <r>  0.0000  0.0000  0.0000  0.0894  0.0004  0.0000  0.0000  0.0023  0.0000 </r>
        <r>  0.0000  0.0000  0.0000  0.0894  0.0004  0.0000  0.0000  0.0023  0.0000 </r>
        <r>  0.0000  0.0000  0.0000  0.0894  0.0004  0.0000  0.0000  0.0023  0.0000 </r>
        <r>  0.0000  0.0000  0.0000  0.0024  0.0000  0.0000  0.0000  0.0000  0.0000 </r>
        <r>  0.0000  0.0000  0.0000  0.0024  0.0000  0.0000  0.0000  0.0000  0.0000 </r>
        <r>  0.0000  0.0000  0.0000  0.0024  0.0000  0.0000  0.0000  0.0000  0.0000 </r>
        <r>  0.0000  0.0000  0.0000  0.0024  0.0000  0.0000  0.0000  0.0000  0.0000 </r>
        <r>  0.0000  0.0000  0.0000  0.0402  0.0000  0.0000  0.0000  0.0000  0.0000 </r>
        <r>  0.0000  0.0000  0.0000  0.0402  0.0000  0.0000  0.0000  0.0000  0.0000 </r>
        <r>  0.0000  0.0000  0.0000  0.0402  0.0000  0.0000  0.0000  0.0000  0.0000 </r>
        <r>  0.0000  0.0000  0.0000  0.0402  0.0000  0.0000  0.0000  0.0000  0.0000 </r>
       </set>
       <set comment="band 65">
        <r>  0.0000  0.0000  0.0000  0.0050  0.0034  0.0000  0.0000  0.0043  0.0000 </r>
        <r>  0.0000  0.0000  0.0000  0.0050  0.0034  0.0000  0.0000  0.0043  0.0000 </r>
        <r>  0.0000  0.0000  0.0000  0.0050  0.0034  0.0000  0.0000  0.0043  0.0000 </r>
        <r>  0.0000  0.0000  0.0000  0.0050  0.0034  0.0000  0.0000  0.0043  0.0000 </r>
        <r>  0.0000  0.0000  0.0000  0.0943  0.0007  0.0000  0.0000  0.0006  0.0000 </r>
        <r>  0.0000  0.0000  0.0000  0.0943  0.0007  0.0000  0.0000  0.0006  0.0000 </r>
        <r>  0.0000  0.0000  0.0000  0.0943  0.0007  0.0000  0.0000  0.0006  0.0000 </r>
        <r>  0.0000  0.0000  0.0000  0.0943  0.0007  0.0000  0.0000  0.0006  0.0000 </r>
        <r>  0.0000  0.0000  0.0000  0.0116  0.0000  0.0000  0.0000  0.0000  0.0000 </r>
        <r>  0.0000  0.0000  0.0000  0.0116  0.0000  0.0000  0.0000  0.0000  0.0000 </r>
        <r>  0.0000  0.0000  0.0000  0.0116  0.0000  0.0000  0.0000  0.0000  0.0000 </r>
        <r>  0.0000  0.0000  0.0000  0.0116  0.0000  0.0000  0.0000  0.0000  0.0000 </r>
        <r>  0.0000  0.0000  0.0000  0.0299  0.0000  0.0000  0.0000  0.0000  0.0000 </r>
        <r>  0.0000  0.0000  0.0000  0.0299  0.0000  0.0000  0.0000  0.0000  0.0000 </r>
        <r>  0.0000  0.0000  0.0000  0.0299  0.0000  0.0000  0.0000  0.0000  0.0000 </r>
        <r>  0.0000  0.0000  0.0000  0.0299  0.0000  0.0000  0.0000  0.0000  0.0000 </r>
       </set>
       <set comment="band 66">
        <r>  0.0000  0.0000  0.0000  0.0045  0.0036  0.0000  0.0000  0.0054  0.0000 </r>
        <r>  0.0000  0.0000  0.0000  0.0045  0.0036  0.0000  0.0000  0.0054  0.0000 </r>
        <r>  0.0000  0.0000  0.0000  0.0045  0.0036  0.0000  0.0000  0.0054  0.0000 </r>
        <r>  0.0000  0.0000  0.0000  0.0045  0.0036  0.0000  0.0000  0.0054  0.0000 </r>
        <r>  0.0000  0.0000  0.0000  0.0919  0.0003  0.0000  0.0000  0.0012  0.0000 </r>
        <r>  0.0000  0.0000  0.0000  0.0919  0.0003  0.0000  0.0000  0.0012  0.0000 </r>
        <r>  0.0000  0.0000  0.0000  0.0919  0.0003  0.0000  0.0000  0.0012  0.0000 </r>
        <r>  0.0000  0.0000  0.0000  0.0919  0.0003  0.0000  0.0000  0.0012  0.0000 </r>
        <r>  0.0000  0.0000  0.0000  0.0157  0.0000  0.0000  0.0000  0.0000  0.0000 </r>
        <r>  0.0000  0.0000  0.0000  0.0157  0.0000  0.0000  0.0000  0.0000  0.0000 </r>
        <r>  0.0000  0.0000  0.0000  0.0157  0.0000  0.0000  0.0000  0.0000  0.0000 </r>
        <r>  0.0000  0.0000  0.0000  0.0157  0.0000  0.0000  0.0000  0.0000  0.0000 </r>
        <r>  0.0000  0.0000  0.0000  0.0342  0.0000  0.0000  0.0000  0.0000  0.0000 </r>
        <r>  0.0000  0.0000  0.0000  0.0342  0.0000  0.0000  0.0000  0.0000  0.0000 </r>
        <r>  0.0000  0.0000  0.0000  0.0342  0.0000  0.0000  0.0000  0.0000  0.0000 </r>
        <r>  0.0000  0.0000  0.0000  0.0342  0.0000  0.0000  0.0000  0.0000  0.0000 </r>
       </set>
       <set comment="band 67">
        <r>  0.0122  0.0014  0.0016  0.0000  0.0000  0.0041  0.0016  0.0000  0.0009 </r>
        <r>  0.0122  0.0014  0.0016  0.0000  0.0000  0.0041  0.0016  0.0000  0.0009 </r>
        <r>  0.0122  0.0014  0.0016  0.0000  0.0000  0.0041  0.0016  0.0000  0.0009 </r>
        <r>  0.0122  0.0014  0.0016  0.0000  0.0000  0.0041  0.0016  0.0000  0.0009 </r>
        <r>  0.0025  0.0371  0.0287  0.0000  0.0000  0.0000  0.0018  0.0000  0.0012 </r>
        <r>  0.0025  0.0371  0.0287  0.0000  0.0000  0.0000  0.0018  0.0000  0.0012 </r>
        <r>  0.0025  0.0371  0.0287  0.0000  0.0000  0.0000  0.0018  0.0000  0.0012 </r>
        <r>  0.0025  0.0371  0.0287  0.0000  0.0000  0.0000  0.0018  0.0000  0.0012 </r>
        <r>  0.0103  0.0224  0.0003  0.0000  0.0000  0.0000  0.0000  0.0000  0.0000 </r>
        <r>  0.0103  0.0224  0.0003  0.0000  0.0000  0.0000  0.0000  0.0000  0.0000 </r>
        <r>  0.0103  0.0224  0.0003  0.0000  0.0000  0.0000  0.0000  0.0000  0.0000 </r>
        <r>  0.0103  0.0224  0.0003  0.0000  0.0000  0.0000  0.0000  0.0000  0.0000 </r>
        <r>  0.0029  0.0040  0.0019  0.0000  0.0000  0.0000  0.0000  0.0000  0.0000 </r>
        <r>  0.0029  0.0040  0.0019  0.0000  0.0000  0.0000  0.0000  0.0000  0.0000 </r>
        <r>  0.0029  0.0040  0.0019  0.0000  0.0000  0.0000  0.0000  0.0000  0.0000 </r>
        <r>  0.0029  0.0040  0.0019  0.0000  0.0000  0.0000  0.0000  0.0000  0.0000 </r>
       </set>
       <set comment="band 68">
        <r>  0.0100  0.0009  0.0033  0.0000  0.0000  0.0003  0.0001  0.0000  0.0039 </r>
        <r>  0.0100  0.0009  0.0033  0.0000  0.0000  0.0003  0.0001  0.0000  0.0039 </r>
        <r>  0.0100  0.0009  0.0033  0.0000  0.0000  0.0003  0.0001  0.0000  0.0039 </r>
        <r>  0.0100  0.0009  0.0033  0.0000  0.0000  0.0003  0.0001  0.0000  0.0039 </r>
        <r>  0.0028  0.0475  0.0140  0.0000  0.0000  0.0000  0.0010  0.0000  0.0028 </r>
        <r>  0.0028  0.0475  0.0140  0.0000  0.0000  0.0000  0.0010  0.0000  0.0028 </r>
        <r>  0.0028  0.0475  0.0140  0.0000  0.0000  0.0000  0.0010  0.0000  0.0028 </r>
        <r>  0.0028  0.0475  0.0140  0.0000  0.0000  0.0000  0.0010  0.0000  0.0028 </r>
        <r>  0.0119  0.0230  0.0031  0.0000  0.0000  0.0000  0.0000  0.0000  0.0000 </r>
        <r>  0.0119  0.0230  0.0031  0.0000  0.0000  0.0000  0.0000  0.0000  0.0000 </r>
        <r>  0.0119  0.0230  0.0031  0.0000  0.0000  0.0000  0.0000  0.0000  0.0000 </r>
        <r>  0.0119  0.0230  0.0031  0.0000  0.0000  0.0000  0.0000  0.0000  0.0000 </r>
        <r>  0.0023  0.0154  0.0009  0.0000  0.0000  0.0000  0.0000  0.0000  0.0000 </r>
        <r>  0.0023  0.0154  0.0009  0.0000  0.0000  0.0000  0.0000  0.0000  0.0000 </r>
        <r>  0.0023  0.0154  0.0009  0.0000  0.0000  0.0000  0.0000  0.0000  0.0000 </r>
        <r>  0.0023  0.0154  0.0009  0.0000  0.0000  0.0000  0.0000  0.0000  0.0000 </r>
       </set>
       <set comment="band 69">
        <r>  0.0171  0.0071  0.0011  0.0000  0.0000  0.0003  0.0075  0.0000  0.0053 </r>
        <r>  0.0171  0.0071  0.0011  0.0000  0.0000  0.0003  0.0075  0.0000  0.0053 </r>
        <r>  0.0171  0.0071  0.0011  0.0000  0.0000  0.0003  0.0075  0.0000  0.0053 </r>
        <r>  0.0171  0.0071  0.0011  0.0000  0.0000  0.0003  0.0075  0.0000  0.0053 </r>
        <r>  0.0003  0.0094  0.0021  0.0000  0.0000  0.0007  0.0095  0.0000  0.0020 </r>
        <r>  0.0003  0.0094  0.0021  0.0000  0.0000  0.0007  0.0095  0.0000  0.0020 </r>
        <r>  0.0003  0.0094  0.0021  0.0000  0.0000  0.0007  0.0095  0.0000  0.0020 </r>
        <r>  0.0003  0.0094  0.0021  0.0000  0.0000  0.0007  0.0095  0.0000  0.0020 </r>
        <r>  0.0070  0.0023  0.0067  0.0000  0.0000  0.0000  0.0000  0.0000  0.0000 </r>
        <r>  0.0070  0.0023  0.0067  0.0000  0.0000  0.0000  0.0000  0.0000  0.0000 </r>
        <r>  0.0070  0.0023  0.0067  0.0000  0.0000  0.0000  0.0000  0.0000  0.0000 </r>
        <r>  0.0070  0.0023  0.0067  0.0000  0.0000  0.0000  0.0000  0.0000  0.0000 </r>
        <r>  0.0016  0.0034  0.0023  0.0000  0.0000  0.0000  0.0000  0.0000  0.0000 </r>
        <r>  0.0016  0.0034  0.0023  0.0000  0.0000  0.0000  0.0000  0.0000  0.0000 </r>
        <r>  0.0016  0.0034  0.0023  0.0000  0.0000  0.0000  0.0000  0.0000  0.0000 </r>
        <r>  0.0016  0.0034  0.0023  0.0000  0.0000  0.0000  0.0000  0.0000  0.0000 </r>
       </set>
       <set comment="band 70">
        <r>  0.0040  0.0017  0.0148  0.0000  0.0000  0.0009  0.0021  0.0000  0.0045 </r>
        <r>  0.0040  0.0017  0.0148  0.0000  0.0000  0.0009  0.0021  0.0000  0.0045 </r>
        <r>  0.0040  0.0017  0.0148  0.0000  0.0000  0.0009  0.0021  0.0000  0.0045 </r>
        <r>  0.0040  0.0017  0.0148  0.0000  0.0000  0.0009  0.0021  0.0000  0.0045 </r>
        <r>  0.0016  0.0030  0.0004  0.0000  0.0000  0.0022  0.0114  0.0000  0.0025 </r>
        <r>  0.0016  0.0030  0.0004  0.0000  0.0000  0.0022  0.0114  0.0000  0.0025 </r>
        <r>  0.0016  0.0030  0.0004  0.0000  0.0000  0.0022  0.0114  0.0000  0.0025 </r>
        <r>  0.0016  0.0030  0.0004  0.0000  0.0000  0.0022  0.0114  0.0000  0.0025 </r>
        <r>  0.0030  0.0042  0.0017  0.0000  0.0000  0.0000  0.0000  0.0000  0.0000 </r>
        <r>  0.0030  0.0042  0.0017  0.0000  0.0000  0.0000  0.0000  0.0000  0.0000 </r>
        <r>  0.0030  0.0042  0.0017  0.0000  0.0000  0.0000  0.0000  0.0000  0.0000 </r>
        <r>  0.0030  0.0042  0.0017  0.0000  0.0000  0.0000  0.0000  0.0000  0.0000 </r>
        <r>  0.0014  0.0002  0.0027  0.0000  0.0000  0.0000  0.0000  0.0000  0.0000 </r>
        <r>  0.0014  0.0002  0.0027  0.0000  0.0000  0.0000  0.0000  0.0000  0.0000 </r>
        <r>  0.0014  0.0002  0.0027  0.0000  0.0000  0.0000  0.0000  0.0000  0.0000 </r>
        <r>  0.0014  0.0002  0.0027  0.0000  0.0000  0.0000  0.0000  0.0000  0.0000 </r>
       </set>
       <set comment="band 71">
        <r>  0.0188  0.0038  0.0085  0.0000  0.0000  0.0005  0.0021  0.0000  0.0052 </r>
        <r>  0.0195  0.0037  0.0083  0.0000  0.0000  0.0005  0.0021  0.0000  0.0051 </r>
        <r>  0.0192  0.0037  0.0083  0.0000  0.0000  0.0005  0.0021  0.0000  0.0052 </r>
        <r>  0.0191  0.0037  0.0085  0.0000  0.0000  0.0005  0.0022  0.0000  0.0051 </r>
        <r>  0.0012  0.0093  0.0004  0.0000  0.0000  0.0016  0.0067  0.0000  0.0062 </r>
        <r>  0.0013  0.0093  0.0004  0.0000  0.0000  0.0016  0.0068  0.0000  0.0063 </r>
        <r>  0.0013  0.0093  0.0004  0.0000  0.0000  0.0015  0.0067  0.0000  0.0062 </r>
        <r>  0.0013  0.0093  0.0004  0.0000  0.0000  0.0015  0.0066  0.0000  0.0061 </r>
        <r>  0.0035  0.0056  0.0054  0.0000  0.0000  0.0000  0.0000  0.0000  0.0000 </r>
        <r>  0.0035  0.0057  0.0055  0.0000  0.0000  0.0000  0.0000  0.0000  0.0000 </r>
        <r>  0.0035  0.0056  0.0055  0.0000  0.0000  0.0000  0.0000  0.0000  0.0000 </r>
        <r>  0.0035  0.0056  0.0054  0.0000  0.0000  0.0000  0.0000  0.0000  0.0000 </r>
        <r>  0.0008  0.0010  0.0017  0.0000  0.0000  0.0000  0.0000  0.0000  0.0000 </r>
        <r>  0.0007  0.0010  0.0018  0.0000  0.0000  0.0000  0.0000  0.0000  0.0000 </r>
        <r>  0.0008  0.0011  0.0018  0.0000  0.0000  0.0000  0.0000  0.0000  0.0000 </r>
        <r>  0.0008  0.0010  0.0017  0.0000  0.0000  0.0000  0.0000  0.0000  0.0000 </r>
       </set>
       <set comment="band 72">
        <r>  0.0236  0.0052  0.0006  0.0000  0.0000  0.0030  0.0011  0.0000  0.0010 </r>
        <r>  0.0237  0.0052  0.0006  0.0000  0.0000  0.0030  0.0011  0.0000  0.0010 </r>
        <r>  0.0173  0.0056  0.0008  0.0000  0.0000  0.0027  0.0008  0.0000  0.0010 </r>
        <r>  0.0172  0.0056  0.0008  0.0000  0.0000  0.0027  0.0008  0.0000  0.0010 </r>
        <r>  0.0042  0.0046  0.0022  0.0000  0.0000  0.0028  0.0016  0.0000  0.0039 </r>
        <r>  0.0042  0.0044  0.0018  0.0000  0.0000  0.0032  0.0010  0.0000  0.0055 </r>
        <r>  0.0042  0.0046  0.0022  0.0000  0.0000  0.0028  0.0016  0.0000  0.0039 </r>
        <r>  0.0042  0.0044  0.0018  0.0000  0.0000  0.0032  0.0010  0.0000  0.0055 </r>
        <r>  0.0049  0.0068  0.0054  0.0000  0.0000  0.0000  0.0000  0.0000  0.0000 </r>
        <r>  0.0056  0.0085  0.0067  0.0000  0.0000  0.0000  0.0000  0.0000  0.0000 </r>
        <r>  0.0049  0.0067  0.0054  0.0000  0.0000  0.0000  0.0000  0.0000  0.0000 </r>
        <r>  0.0056  0.0085  0.0067  0.0000  0.0000  0.0000  0.0000  0.0000  0.0000 </r>
        <r>  0.0169  0.0012  0.0055  0.0000  0.0000  0.0000  0.0000  0.0000  0.0000 </r>
        <r>  0.0200  0.0018  0.0069  0.0000  0.0000  0.0000  0.0000  0.0000  0.0000 </r>
        <r>  0.0169  0.0012  0.0055  0.0000  0.0000  0.0000  0.0000  0.0000  0.0000 </r>
        <r>  0.0200  0.0019  0.0069  0.0000  0.0000  0.0000  0.0000  0.0000  0.0000 </r>
       </set>
      </set>
     </set>
    </set>
   </array>
  </projected>
 </calculation>
 <structure name="finalpos" >
  <crystal>
   <varray name="basis" >
    <v>       3.80157474       0.00000000       0.00000000 </v>
    <v>      -0.00000000       6.07432056       0.00000000 </v>
    <v>       0.00000000       0.00000000      14.49176048 </v>
   </varray>
   <i name="volume">    334.64349539 </i>
   <varray name="rec_basis" >
    <v>       0.26304889       0.00000000       0.00000000 </v>
    <v>       0.00000000       0.16462747       0.00000000 </v>
    <v>      -0.00000000      -0.00000000       0.06900473 </v>
   </varray>
  </crystal>
  <varray name="positions" >
   <v>       0.25000000       0.25010162       0.82821842 </v>
   <v>       0.25000000       0.75010162       0.67178158 </v>
   <v>       0.75000000       0.74989838       0.17178158 </v>
   <v>       0.75000000       0.24989838       0.32821842 </v>
   <v>       0.25000000       0.72881200       0.43458741 </v>
   <v>       0.75000000       0.27118800       0.56541259 </v>
   <v>       0.25000000       0.22881200       0.06541259 </v>
   <v>       0.75000000       0.77118800       0.93458741 </v>
   <v>       0.25000000       0.12368586       0.40104516 </v>
   <v>       0.75000000       0.87631414       0.59895484 </v>
   <v>       0.25000000       0.62368586       0.09895484 </v>
   <v>       0.75000000       0.37631414       0.90104516 </v>
   <v>       0.75000000       0.62427265       0.32157721 </v>
   <v>       0.25000000       0.87572735       0.82157721 </v>
   <v>       0.75000000       0.12427265       0.17842279 </v>
   <v>       0.25000000       0.37572735       0.67842279 </v>
  </varray>
 </structure>
</modeling>
