 vasp.6.4.2 20Jul23 (build Mar 15 2024 16:31:38) complex                        
  
 executed on             LinuxIFC date 2025.03.24  15:54:45
 running  120 mpi-ranks, on    3 nodes
 distrk:  each k-point on  120 cores,    1 groups
 distr:  one band on NCORE=  10 cores,   12 groups


--------------------------------------------------------------------------------------------------------


 INCAR:
   ALGO = Normal
   CSHIFT = 1e-05
   EDIFF = 1e-05
   ENAUG = 1360
   ENCUT = 680
   GGA = Pe
   HFSCREEN = 0.2
   ISMEAR = -5
   ISPIN = 1
   LAECHG = True
   LASPH = True
   LCHARG = True
   LDAU = False
   LELF = False
   LHFCALC = True
   LMAXMIX = 4
   LMIXTAU = True
   LOPTICS = True
   LORBIT = 11
   LREAL = False
   LVTOT = True
   LWAVE = True
   NBANDS = 58
   NCORE = 10
   NEDOS = 1282
   NELM = 200
   NELMIN = 5
   NSW = 0
   PREC = Accurate
   PRECFOCK = Fast
   SIGMA = 0.05

 POTCAR:    PAW_PBE In_d 06Sep2000                
 POTCAR:    PAW_PBE Cu 22Jun2005                  
 POTCAR:    PAW_PBE Se 06Sep2000                  
 WARNING: For LVTOT=.TRUE., VASP.5.x writes the TOTAL local potential to the
     file LOCPOT. If you want only the Hartree contributions, use LVHAR=.TRUE.
     instead. 

 POTCAR:    PAW_PBE In_d 06Sep2000                
   VRHFIN =In: s2p1                                                                                 
   LEXCH  = PE                                                                                      
   EATOM  =  1576.8302 eV,  115.8937 Ry                                                             
                                                                                                    
   TITEL  = PAW_PBE In_d 06Sep2000                                                                  
   LULTRA =        F    use ultrasoft PP ?                                                          
   IUNSCR =        1    unscreen: 0-lin 1-nonlin 2-no                                               
   RPACOR =    2.200    partial core radius                                                         
   POMASS =  114.820; ZVAL   =   13.000    mass and valenz                                          
   RCORE  =    2.500    outmost cutoff radius                                                       
   RWIGS  =    3.170; RWIGS  =    1.677    wigner-seitz radius (au A)                               
   ENMAX  =  239.211; ENMIN  =  179.409 eV                                                          
   ICORE  =        3    local potential                                                             
   LCOR   =        T    correct aug charges                                                         
   LPAW   =        T    paw PP                                                                      
   EAUG   =  449.704                                                                                
   DEXC   =    0.000                                                                                
   RMAX   =    2.552    core radius for proj-oper                                                   
   RAUG   =    1.300    factor for augmentation sphere                                              
   RDEP   =    2.630    radius for radial grids                                                     
   RDEPT  =    2.033    core radius for aug-charge                                                  
                                                                                                    
   Atomic configuration                                                                             
   12 entries                                                                                       
     n  l   j            E        occ.                                                              
     1  0  0.50    -27747.9169   2.0000                                                             
     2  0  0.50     -4154.4438   2.0000                                                             
     2  1  1.50     -3728.4305   6.0000                                                             
     3  0  0.50      -788.3680   2.0000                                                             
     3  1  1.50      -648.9215   6.0000                                                             
     3  2  2.50      -432.5893  10.0000                                                             
     4  0  0.50      -119.6363   2.0000                                                             
     4  1  1.50       -78.1086   6.0000                                                             
     4  2  2.50       -18.6227  10.0000                                                             
     5  0  0.50        -8.2107   2.0000                                                             
     5  1  0.50        -2.5185   1.0000                                                             
     4  3  2.50        -2.7212   0.0000                                                             
   Description                                                                                      
     l       E           TYP  RCUT    TYP  RCUT                                                     
     2    -18.6226981     23  2.500                                                                 
     2     -1.3605826     23  2.500                                                                 
     0     -8.2107305     23  2.500                                                                 
     0     -6.1485975     23  2.500                                                                 
     1     -2.5184867     23  2.500                                                                 
     1      3.2427302     23  2.500                                                                 
     3     -1.3605826      7  2.500                                                                 
  local pseudopotential read in
  partial core-charges read in
  partial kinetic energy density read in
  atomic valenz-charges read in
  non local Contribution for L=           2  read in
    real space projection operators read in
  non local Contribution for L=           2  read in
    real space projection operators read in
  non local Contribution for L=           0  read in
    real space projection operators read in
  non local Contribution for L=           0  read in
    real space projection operators read in
  non local Contribution for L=           1  read in
    real space projection operators read in
  non local Contribution for L=           1  read in
    real space projection operators read in
    PAW grid and wavefunctions read in
 
   number of l-projection  operators is LMAX  =           6
   number of lm-projection operators is LMMAX =          18
 
 POTCAR:    PAW_PBE Cu 22Jun2005                  
   VRHFIN =Cu: d10 p1                                                                               
   LEXCH  = PE                                                                                      
   EATOM  =  1390.9808 eV,  102.2342 Ry                                                             
                                                                                                    
   TITEL  = PAW_PBE Cu 22Jun2005                                                                    
   LULTRA =        F    use ultrasoft PP ?                                                          
   IUNSCR =        1    unscreen: 0-lin 1-nonlin 2-no                                               
   RPACOR =    2.000    partial core radius                                                         
   POMASS =   63.546; ZVAL   =   11.000    mass and valenz                                          
   RCORE  =    2.300    outmost cutoff radius                                                       
   RWIGS  =    2.200; RWIGS  =    1.164    wigner-seitz radius (au A)                               
   ENMAX  =  295.446; ENMIN  =  221.585 eV                                                          
   ICORE  =        3    local potential                                                             
   LCOR   =        T    correct aug charges                                                         
   LPAW   =        T    paw PP                                                                      
   EAUG   =  586.980                                                                                
   DEXC   =    0.000                                                                                
   RMAX   =    2.344    core radius for proj-oper                                                   
   RAUG   =    1.300    factor for augmentation sphere                                              
   RDEP   =    2.302    radius for radial grids                                                     
   RDEPT  =    1.771    core radius for aug-charge                                                  
                                                                                                    
   Atomic configuration                                                                             
    9 entries                                                                                       
     n  l   j            E        occ.                                                              
     1  0  0.50     -8850.2468   2.0000                                                             
     2  0  0.50     -1062.3498   2.0000                                                             
     2  1  1.50      -916.8226   6.0000                                                             
     3  0  0.50      -114.6929   2.0000                                                             
     3  1  1.50       -72.1325   6.0000                                                             
     3  2  2.50        -5.0394  10.0000                                                             
     4  0  0.50        -4.6097   1.0000                                                             
     4  1  0.50        -4.0817   0.0000                                                             
     4  3  2.50        -1.3606   0.0000                                                             
   Description                                                                                      
     l       E           TYP  RCUT    TYP  RCUT                                                     
     2     -5.0393973     23  2.200                                                                 
     2     10.8846608     23  2.200                                                                 
     0     -4.6097109     23  2.200                                                                 
     0      8.2520465     23  2.200                                                                 
     1     -2.7211652     23  2.200                                                                 
     1     21.7055443     23  2.200                                                                 
     3      2.7211652     23  2.300                                                                 
  local pseudopotential read in
  partial core-charges read in
  partial kinetic energy density read in
  atomic valenz-charges read in
  non local Contribution for L=           2  read in
    real space projection operators read in
  non local Contribution for L=           2  read in
    real space projection operators read in
  non local Contribution for L=           0  read in
    real space projection operators read in
  non local Contribution for L=           0  read in
    real space projection operators read in
  non local Contribution for L=           1  read in
    real space projection operators read in
  non local Contribution for L=           1  read in
    real space projection operators read in
    PAW grid and wavefunctions read in
 
   number of l-projection  operators is LMAX  =           6
   number of lm-projection operators is LMMAX =          18
 
 POTCAR:    PAW_PBE Se 06Sep2000                  
   VRHFIN =Se: s2p4                                                                                 
   LEXCH  = PE                                                                                      
   EATOM  =   257.1286 eV,   18.8984 Ry                                                             
                                                                                                    
   TITEL  = PAW_PBE Se 06Sep2000                                                                    
   LULTRA =        F    use ultrasoft PP ?                                                          
   IUNSCR =        1    unscreen: 0-lin 1-nonlin 2-no                                               
   RPACOR =    1.900    partial core radius                                                         
   POMASS =   78.960; ZVAL   =    6.000    mass and valenz                                          
   RCORE  =    2.100    outmost cutoff radius                                                       
   RWIGS  =    2.200; RWIGS  =    1.164    wigner-seitz radius (au A)                               
   ENMAX  =  211.555; ENMIN  =  158.666 eV                                                          
   ICORE  =        3    local potential                                                             
   LCOR   =        T    correct aug charges                                                         
   LPAW   =        T    paw PP                                                                      
   EAUG   =  446.842                                                                                
   DEXC   =    0.000                                                                                
   RMAX   =    2.147    core radius for proj-oper                                                   
   RAUG   =    1.300    factor for augmentation sphere                                              
   RDEP   =    2.177    radius for radial grids                                                     
   RDEPT  =    1.928    core radius for aug-charge                                                  
                                                                                                    
   Atomic configuration                                                                             
   10 entries                                                                                       
     n  l   j            E        occ.                                                              
     1  0  0.50    -12503.4787   2.0000                                                             
     2  0  0.50     -1606.9547   2.0000                                                             
     2  1  1.50     -1413.3140   6.0000                                                             
     3  0  0.50      -213.4885   2.0000                                                             
     3  1  1.50      -152.9538   6.0000                                                             
     3  2  2.50       -53.1221  10.0000                                                             
     4  0  0.50       -17.2865   2.0000                                                             
     4  1  0.50        -6.5110   4.0000                                                             
     4  2  2.50        -6.8029   0.0000                                                             
     4  3  2.50        -6.8029   0.0000                                                             
   Description                                                                                      
     l       E           TYP  RCUT    TYP  RCUT                                                     
     0    -17.2865377     23  2.100                                                                 
     0    -15.3094411     23  2.100                                                                 
     1     -6.5110275     23  2.100                                                                 
     1     -0.0695192     23  2.100                                                                 
     2     -6.8029130     23  2.100                                                                 
     3     -1.3605826      7  2.100                                                                 
  local pseudopotential read in
  partial core-charges read in
  partial kinetic energy density read in
  atomic valenz-charges read in
  non local Contribution for L=           0  read in
    real space projection operators read in
  non local Contribution for L=           0  read in
    real space projection operators read in
  non local Contribution for L=           1  read in
    real space projection operators read in
  non local Contribution for L=           1  read in
    real space projection operators read in
  non local Contribution for L=           2  read in
    real space projection operators read in
    PAW grid and wavefunctions read in
 
   number of l-projection  operators is LMAX  =           5
   number of lm-projection operators is LMMAX =          13
 
  PAW_PBE In_d 06Sep2000                :
 energy of atom  1       EATOM=-1576.8302
 kinetic energy error for atom=    0.0009 (will be added to EATOM!!)
  PAW_PBE Cu 22Jun2005                  :
 energy of atom  2       EATOM=-1390.9808
 kinetic energy error for atom=    0.0018 (will be added to EATOM!!)
  PAW_PBE Se 06Sep2000                  :
 energy of atom  3       EATOM= -257.1286
 kinetic energy error for atom=    0.0004 (will be added to EATOM!!)
 
 
 POSCAR: In2 Cu2 Se4
  positions in direct lattice
  No initial velocities read in
 exchange correlation table for  LEXCH =        8
   RHO(1)=    0.500       N(1)  =     2000
   RHO(2)=  100.500       N(2)  =     4000
 


--------------------------------------------------------------------------------------------------------


 ion  position               nearest neighbor table
   1  0.500  0.500  0.000-   5 2.62   8 2.62   6 2.62   7 2.62
   2  0.750  0.250  0.500-   8 2.62   6 2.62   7 2.62   5 2.62
   3  0.000  0.000  0.000-   6 2.42   7 2.42   5 2.42   8 2.42
   4  0.250  0.750  0.500-   7 2.42   5 2.42   8 2.42   6 2.42
   5  0.345  0.375  0.250-   4 2.42   3 2.42   1 2.62   2 2.62
   6  0.905  0.875  0.250-   3 2.42   4 2.42   2 2.62   1 2.62
   7  0.125  0.655  0.750-   4 2.42   3 2.42   2 2.62   1 2.62
   8  0.625  0.095  0.750-   4 2.42   3 2.42   2 2.62   1 2.62
 
  LATTYP: Found a body centered tetragonal cell.
 ALAT       =     5.8059957800
 C/A-ratio  =     2.0079361830
  
  Lattice vectors:
  
 A1 = (   1.0538795677,  -5.1971421792,  -4.7656568808)
 A2 = (  -5.3029191999,   0.0000000000,  -4.7656572101)
 A3 = (   4.2490396322,   5.1971421792,   2.4016274909)


Analysis of symmetry for initial positions (statically):
=====================================================================
 Subroutine PRICEL returns:
 Original cell was already a primitive cell.
 

 Routine SETGRP: Setting up the symmetry group for a 
 body centered tetragonal supercell.


 Subroutine GETGRP returns: Found  8 space group operations
 (whereof  4 operations were pure point group operations)
 out of a pool of 16 trial point group operations.


The static configuration has the point symmetry S_4 .
 The point group associated with its full space group is D_2d.


Analysis of symmetry for dynamics (positions and initial velocities):
=====================================================================
 Subroutine PRICEL returns:
 Original cell was already a primitive cell.
 

 Routine SETGRP: Setting up the symmetry group for a 
 body centered tetragonal supercell.


 Subroutine GETGRP returns: Found  8 space group operations
 (whereof  4 operations were pure point group operations)
 out of a pool of 16 trial point group operations.


The dynamic configuration has the point symmetry S_4 .
 The point group associated with its full space group is D_2d.


 Subroutine INISYM returns: Found  8 space group operations
 (whereof  4 operations are pure point group operations),
 and found     1 'primitive' translations


----------------------------------------------------------------------------------------

                                     Primitive cell                                     

  volume of cell :     196.4943

  direct lattice vectors                    reciprocal lattice vectors
     5.302919200  0.000000000 -2.364029390     0.188575379  0.038239427  0.000000000
    -1.053879568  5.197142179 -2.364029719     0.000000000  0.192413439  0.000000000
     0.000000000  0.000000000  7.129686600     0.062526975  0.076478848  0.140258620

  length of vectors
     5.805995780  5.805995650  7.129686600     0.192413429  0.192413439  0.171554998

  position of ions in fractional coordinates (direct lattice)
     0.500000000  0.500000000  1.000000000
     0.750000000  0.250000000  0.500000000
     0.000000000  0.000000000  0.000000000
     0.250000000  0.750000000  0.500000000
     0.345161030  0.375000000  0.250000000
     0.904838970  0.875000000  0.250000000
     0.125000000  0.654838970  0.750000000
     0.625000000  0.095161030  0.750000000

  ion indices of the primitive-cell ions
   primitive index   ion index
                 1           1
                 2           2
                 3           3
                 4           4
                 5           5
                 6           6
                 7           7
                 8           8

----------------------------------------------------------------------------------------

 
 
 KPOINTS: pymatgen with grid density = 646 / numbe

Automatic generation of k-mesh.
 Grid dimensions read from file:
 generate k-points for:    4    4    3

 Generating k-lattice:

  Cartesian coordinates                     Fractional coordinates (reciprocal lattice)
     0.047143845  0.009559857  0.000000000     0.250000000 -0.000000000  0.000000000
     0.000000000  0.048103360  0.000000000     0.000000000  0.250000000  0.000000000
     0.020842325  0.025492949  0.046752873     0.000000000 -0.000000000  0.333333333

  Length of vectors
     0.048103357  0.048103360  0.057184999

  Shift w.r.t. Gamma in fractional coordinates (k-lattice)
     0.000000000  0.000000000  0.000000000

 -----------------------------------------------------------------------------
|                                                                             |
|           W    W    AA    RRRRR   N    N  II  N    N   GGGG   !!!           |
|           W    W   A  A   R    R  NN   N  II  NN   N  G    G  !!!           |
|           W    W  A    A  R    R  N N  N  II  N N  N  G       !!!           |
|           W WW W  AAAAAA  RRRRR   N  N N  II  N  N N  G  GGG   !            |
|           WW  WW  A    A  R   R   N   NN  II  N   NN  G    G                |
|           W    W  A    A  R    R  N    N  II  N    N   GGGG   !!!           |
|                                                                             |
|     Your reciprocal lattice and k-lattice belong to different lattice       |
|     classes:                                                                |
|                                                                             |
|        The reciprocal lattice is body-centered tetragonal,                  |
|        whereas your k-lattice is base-centered monoclinic.                  |
|                                                                             |
|     Results are often still useful ...                                      |
|                                                                             |
 -----------------------------------------------------------------------------

 WARNING: IBZKPT: internal override: KBLOWUP is changed to .FALSE.
      ... skipping the blow-up phase ...

 TETIRR: Found     74 inequivalent tetrahedra from      288
 
 Subroutine IBZKPT returns following result:
 ===========================================
 
 Found     17 irreducible k-points:
 
 Following reciprocal coordinates:
            Coordinates               Weight
  0.000000  0.000000  0.000000      1.000000
  0.250000 -0.000000  0.000000      4.000000
  0.500000 -0.000000  0.000000      2.000000
  0.250000  0.250000  0.000000      2.000000
  0.500000  0.250000  0.000000      4.000000
 -0.250000  0.250000  0.000000      2.000000
  0.500000  0.500000  0.000000      1.000000
  0.000000  0.000000  0.333333      2.000000
  0.250000 -0.000000  0.333333      4.000000
  0.500000  0.000000  0.333333      4.000000
 -0.250000  0.000000  0.333333      4.000000
  0.250000  0.250000  0.333333      2.000000
  0.500000  0.250000  0.333333      4.000000
 -0.250000  0.250000  0.333333      4.000000
  0.500000  0.500000  0.333333      2.000000
 -0.250000  0.500000  0.333333      4.000000
 -0.250000 -0.250000  0.333333      2.000000
 
 Following cartesian coordinates:
            Coordinates               Weight
  0.000000  0.000000  0.000000      1.000000
  0.047144  0.009560  0.000000      4.000000
  0.094288  0.019120  0.000000      2.000000
  0.047144  0.057663  0.000000      2.000000
  0.094288  0.067223  0.000000      4.000000
 -0.047144  0.038544  0.000000      2.000000
  0.094288  0.115326  0.000000      1.000000
  0.020842  0.025493  0.046753      2.000000
  0.067986  0.035053  0.046753      4.000000
  0.115130  0.044613  0.046753      4.000000
 -0.026302  0.015933  0.046753      4.000000
  0.067986  0.083156  0.046753      2.000000
  0.115130  0.092716  0.046753      4.000000
 -0.026302  0.064036  0.046753      4.000000
  0.115130  0.140819  0.046753      2.000000
 -0.026302  0.112140  0.046753      4.000000
 -0.026302 -0.032170  0.046753      2.000000
 
 WARNING: full set of k-points will be restricted to regular points only.

 
 Subroutine IBZKPT_HF returns following result:
 ==============================================
 
 Found     48 k-points in 1st BZ
 the following     48 k-points will be used (e.g. in the exchange kernel)
 Following reciprocal coordinates:   # in IRBZ
  0.000000  0.000000  0.000000    0.02083333   1 t-inv F
  0.250000 -0.000000  0.000000    0.02083333   2 t-inv F
  0.500000 -0.000000  0.000000    0.02083333   3 t-inv F
  0.250000  0.250000  0.000000    0.02083333   4 t-inv F
  0.500000  0.250000  0.000000    0.02083333   5 t-inv F
 -0.250000  0.250000  0.000000    0.02083333   6 t-inv F
  0.500000  0.500000  0.000000    0.02083333   7 t-inv F
  0.000000  0.000000  0.333333    0.02083333   8 t-inv F
  0.250000 -0.000000  0.333333    0.02083333   9 t-inv F
  0.500000  0.000000  0.333333    0.02083333  10 t-inv F
 -0.250000  0.000000  0.333333    0.02083333  11 t-inv F
  0.250000  0.250000  0.333333    0.02083333  12 t-inv F
  0.500000  0.250000  0.333333    0.02083333  13 t-inv F
 -0.250000  0.250000  0.333333    0.02083333  14 t-inv F
  0.500000  0.500000  0.333333    0.02083333  15 t-inv F
 -0.250000  0.500000  0.333333    0.02083333  16 t-inv F
 -0.250000 -0.250000  0.333333    0.02083333  17 t-inv F
 -0.000000 -0.250000  0.000000    0.02083333   2 t-inv F
 -0.250000 -0.000000  0.000000    0.02083333   2 t-inv F
 -0.000000  0.250000  0.000000    0.02083333   2 t-inv F
 -0.000000 -0.500000  0.000000    0.02083333   3 t-inv F
  0.250000  0.500000  0.000000    0.02083333   5 t-inv F
  0.250000 -0.250000  0.000000    0.02083333   6 t-inv F
 -0.000000  0.000000 -0.333333    0.02083333   8 t-inv F
 -0.000000 -0.250000 -0.333333    0.02083333   9 t-inv F
 -0.250000 -0.000000 -0.333333    0.02083333   9 t-inv F
 -0.000000  0.250000  0.333333    0.02083333   9 t-inv F
  0.000000 -0.500000 -0.333333    0.02083333  10 t-inv F
 -0.500000  0.000000 -0.333333    0.02083333  10 t-inv F
  0.000000  0.500000  0.333333    0.02083333  10 t-inv F
  0.000000  0.250000 -0.333333    0.02083333  11 t-inv F
  0.250000  0.000000 -0.333333    0.02083333  11 t-inv F
  0.000000 -0.250000  0.333333    0.02083333  11 t-inv F
  0.250000  0.500000  0.333333    0.02083333  13 t-inv F
  0.250000 -0.250000  0.333333    0.02083333  14 t-inv F
  0.500000 -0.250000  0.333333    0.02083333  16 t-inv F
 -0.250000 -0.250000  0.000000    0.02083333   4 t-inv T
 -0.500000 -0.250000  0.000000    0.02083333   5 t-inv T
 -0.250000 -0.500000  0.000000    0.02083333   5 t-inv T
 -0.250000 -0.250000 -0.333333    0.02083333  12 t-inv T
 -0.500000 -0.250000 -0.333333    0.02083333  13 t-inv T
 -0.250000 -0.500000 -0.333333    0.02083333  13 t-inv T
  0.250000 -0.250000 -0.333333    0.02083333  14 t-inv T
 -0.250000  0.250000 -0.333333    0.02083333  14 t-inv T
 -0.500000 -0.500000 -0.333333    0.02083333  15 t-inv T
  0.250000 -0.500000 -0.333333    0.02083333  16 t-inv T
 -0.500000  0.250000 -0.333333    0.02083333  16 t-inv T
  0.250000  0.250000 -0.333333    0.02083333  17 t-inv T
 -----------------------------------------------------------------------------
|                                                                             |
|           W    W    AA    RRRRR   N    N  II  N    N   GGGG   !!!           |
|           W    W   A  A   R    R  NN   N  II  NN   N  G    G  !!!           |
|           W    W  A    A  R    R  N N  N  II  N N  N  G       !!!           |
|           W WW W  AAAAAA  RRRRR   N  N N  II  N  N N  G  GGG   !            |
|           WW  WW  A    A  R   R   N   NN  II  N   NN  G    G                |
|           W    W  A    A  R    R  N    N  II  N    N   GGGG   !!!           |
|                                                                             |
|     The number of bands has been changed from the values supplied in        |
|     the INCAR file. This is a result of running the parallel version.       |
|     The orbitals not found in the WAVECAR file will be initialized with     |
|     random numbers, which is usually adequate. For correlated               |
|     calculations, however, you should redo the groundstate calculation.     |
|     I found NBANDS = 58. Now, NBANDS = 60.                                  |
|                                                                             |
 -----------------------------------------------------------------------------



--------------------------------------------------------------------------------------------------------




 Dimension of arrays:
   k-points           NKPTS =     17   k-points in BZ     NKDIM =     48   number of bands    NBANDS=     60
   number of dos      NEDOS =   1282   number of ions     NIONS =      8
   non local maximal  LDIM  =      6   non local SUM 2l+1 LMDIM =     18
   total plane-waves  NPLWV = 160000
   max r-space proj   IRMAX =      1   max aug-charges    IRDMAX=  35706
   dimension x,y,z NGX =    50 NGY =   50 NGZ =   64
   dimension x,y,z NGXF=   100 NGYF=  100 NGZF=  128
   support grid    NGXF=   100 NGYF=  100 NGZF=  128
   ions per type =               2   2   4
   NGX,Y,Z   is equivalent  to a cutoff of  14.32, 14.32, 14.92 a.u.
   NGXF,Y,Z  is equivalent  to a cutoff of  28.63, 28.63, 29.85 a.u.

 SYSTEM =  unknown system                          
 POSCAR =  In2 Cu2 Se4                             

 Startparameter for this run:
   NWRITE =      2    write-flag & timer
   PREC   = accura    normal or accurate (medium, high low for compatibility)
   ISTART =      0    job   : 0-new  1-cont  2-samecut
   ICHARG =      2    charge: 1-file 2-atom 10-const
   ISPIN  =      1    spin polarized calculation?
   LNONCOLLINEAR =      F non collinear calculations
   LSORBIT =      F    spin-orbit coupling
   INIWAV =      1    electr: 0-lowe 1-rand  2-diag
   LASPH  =      T    aspherical Exc in radial PAW
 Electronic Relaxation 1
   ENCUT  =  680.0 eV  49.98 Ry    7.07 a.u.  12.34 12.34 15.16*2*pi/ulx,y,z
   ENINI  =  680.0     initial cutoff
   ENAUG  = 1360.0 eV  augmentation charge cutoff
   NELM   =    200;   NELMIN=  5; NELMDL=  0     # of ELM steps 
   EDIFF  = 0.1E-04   stopping-criterion for ELM
   LREAL  =      F    real-space projection
   NLSPLINE    = F    spline interpolate recip. space projectors
   LCOMPAT=      F    compatible to vasp.4.4
   GGA_COMPAT  = T    GGA compatible to vasp.4.4-vasp.4.6
   LMAXPAW     = -100 max onsite density
   LMAXMIX     =    4 max onsite mixed and CHGCAR
   VOSKOWN=      0    Vosko Wilk Nusair interpolation
   ROPT   =    0.00000   0.00000   0.00000
 Ionic relaxation
   EDIFFG = 0.1E-03   stopping-criterion for IOM
   NSW    =      0    number of steps for IOM
   NBLOCK =      1;   KBLOCK =      1    inner block; outer block 
   IBRION =     -1    ionic relax: 0-MD 1-quasi-New 2-CG
   NFREE  =      0    steps in history (QN), initial steepest desc. (CG)
   ISIF   =      0    stress and relaxation
   IWAVPR =     10    prediction:  0-non 1-charg 2-wave 3-comb
   ISYM   =      3    0-nonsym 1-usesym 2-fastsym
   LCORR  =      T    Harris-Foulkes like correction to forces

   POTIM  = 0.5000    time-step for ionic-motion
   TEIN   =    0.0    initial temperature
   TEBEG  =    0.0;   TEEND  =   0.0 temperature during run
   SMASS  =  -3.00    Nose mass-parameter (am)
   estimated Nose-frequenzy (Omega)   =  0.10E-29 period in steps = 0.13E+47 mass=  -0.770E-27a.u.
   SCALEE = 1.0000    scale energy and forces
   NPACO  =    256;   APACO  = 10.0  distance and # of slots for P.C.
   PSTRESS=    0.0 pullay stress

  Mass of Ions in am
   POMASS = 114.82 63.55 78.96
  Ionic Valenz
   ZVAL   =  13.00 11.00  6.00
  Atomic Wigner-Seitz radii
   RWIGS  =  -1.00 -1.00 -1.00
  virtual crystal weights 
   VCA    =   1.00  1.00  1.00
   NELECT =      72.0000    total number of electrons
   NUPDOWN=      -1.0000    fix difference up-down

 DOS related values:
   EMIN   =  10.00;   EMAX   =-10.00  energy-range for DOS
   EFERMI =   0.00;   METHOD = LEGACY      
   ISMEAR =    -5;   SIGMA  =   0.05  broadening in eV -4-tet -1-fermi 0-gaus

 Electronic relaxation 2 (details)
   IALGO  =     38    algorithm
   LDIAG  =      T    sub-space diagonalisation (order eigenvalues)
   LSUBROT=      F    optimize rotation matrix (better conditioning)
   TURBO    =      0    0=normal 1=particle mesh
   IRESTART =      0    0=no restart 2=restart with 2 vectors
   NREBOOT  =      0    no. of reboots
   NMIN     =      0    reboot dimension
   EREF     =   0.00    reference energy to select bands
   IMIX   =      1    mixing-type and parameters
     AMIX     =   0.40;   BMIX     =  1.00
     AMIX_MAG =   1.60;   BMIX_MAG =  1.00
     AMIN     =   0.10
     WC   =   100.;   INIMIX=   1;  MIXPRE=   1;  MAXMIX= -45

 Intra band minimization:
   WEIMIN = 0.0000     energy-eigenvalue tresh-hold
   EBREAK =  0.42E-07  absolut break condition
   DEPER  =   0.30     relativ break condition  

   TIME   =   0.40     timestep for ELM

  volume/ion in A,a.u.               =      24.56       165.75
  Fermi-wavevector in a.u.,A,eV,Ry     =   1.171482  2.213780 18.672231  1.372370
  Thomas-Fermi vector in A             =   2.307925
 
 Write flags
   LWAVE        =      T    write WAVECAR
   LDOWNSAMPLE  =      F    k-point downsampling of WAVECAR
   LCHARG       =      T    write CHGCAR
   LVTOT        =      T    write LOCPOT, total local potential
   LVHAR        =      F    write LOCPOT, Hartree potential only
   LELF         =      F    write electronic localiz. function (ELF)
   LORBIT       =     11    0 simple, 1 ext, 2 COOP (PROOUT), +10 PAW based schemes


 Dipole corrections
   LMONO  =      F    monopole corrections only (constant potential shift)
   LDIPOL =      F    correct potential (dipole corrections)
   IDIPOL =      0    1-x, 2-y, 3-z, 4-all directions 
   EPSILON=  1.0000000 bulk dielectric constant

 Exchange correlation treatment:
   GGA     =    PE    GGA type
   LEXCH   =     8    internal setting for exchange type
   LIBXC   =     F    Libxc                    
   VOSKOWN =     0    Vosko Wilk Nusair interpolation
   EXXOEP  =     0    0=HF, 1=EXX-LHF (local Hartree Fock) 2=EXX OEP
   LHFCALC =     T    Hartree Fock is set to
   LSYMGRAD=     F    symmetrize gradient (conserves proper symmetry)
   PRECFOCK=fast      Normal, Fast or Accurate (Low or Medium for compatibility)
   LRHFCALC=     F    long range Hartree Fock
   LRSCOR  =     F    long range correlation only (use DFT for short range part)
   LTHOMAS =     F    Thomas Fermi screening in HF
   LMODELHF=     F    short range full HF, long range fraction AEXX
   FOCKCORR=     1    mode to apply convergence corrections
   LFOCKACE=     T    use Adeptively-Compressed-Exchange operator
   ENCUT4O =  -1.0   cutoff for four orbital integrals eV
   LMAXFOCK=     4    L truncation for augmentation on plane wave grid
   LMAXFOCKAE=  -1    L truncation for all-electron charge restoration on plane wave grid
   NMAXFOCKAE=   1    number of basis functions for all-electron charge restoration
   LFOCKAEDFT=     F  apply the AE augmentation even for DFT
   NKREDX  =     1    reduce k-point grid by
   NKREDY  =     1    reduce k-point grid by
   NKREDZ  =     1    reduce k-point grid by
   SHIFTRED=     F    shift reduced grid of Gamma
   HFKIDENT=     F    idential grid for each k-point
   ODDONLY =     F    use only odd q-grid points
   EVENONLY=     F    use only even q-grid points
   HFALPHA =   -1.0000 decay constant for conv. correction
   MCALPHA =    0.0000 extent of test-charge in conv. correction in multipole expansion
   AEXX    =    0.2500 exact exchange contribution
   HFSCREEN=    0.2000 screening length (either q_TF or 0.3 A-1)
   HFSCREENC=   0.2000 screening length for correlation (either q_TF or 0.3 A-1)
   HFRCUT  =    0.0000 spherical cutoff for potential kernel
   ALDAX   =    0.7500 LDA exchange part
   AGGAX   =    0.7500 GGA exchange part
   ALDAC   =    1.0000 LDA correlation
   AGGAC   =    1.0000 GGA correlation
   ENCUTFOCK=  -1.0 apply spherical cutoff to Coloumb kernel
   NBANDSGWLOW=     1    first orbital included in HF term
   NBLOCK_FOCK=    64    blocking factor in FOCK_ACC

 Linear response parameters
   LEPSILON=     F    determine dielectric tensor
   LRPA    =     F    only Hartree local field effects (RPA)
   LNABLA  =     F    use nabla operator in PAW spheres
   LVEL    =     F    velocity operator in full k-point grid
   CSHIFT  =0.0000    complex shift for real part using Kramers Kronig
   OMEGAMAX=  -1.0    maximum frequency
   DEG_THRESHOLD= 0.2000000E-02 threshold for treating states as degnerate
   RTIME   =   -0.100 relaxation time in fs
  (WPLASMAI=    0.000 imaginary part of plasma frequency in eV, 0.658/RTIME)
   DFIELD  = 0.0000000 0.0000000 0.0000000 field for delta impulse in time
 
  Optional k-point grid parameters
   LKPOINTS_OPT  =     F    use optional k-point grid
   KPOINTS_OPT_MODE=     1    mode for optional k-point grid
 
 Orbital magnetization related:
   ORBITALMAG=     F  switch on orbital magnetization
   LCHIMAG   =     F  perturbation theory with respect to B field
   DQ        =  0.001000  dq finite difference perturbation B field
   LLRAUG    =     F  two centre corrections for induced B field
   LBONE     =     F  B-component reconstruction in AE one-centre
   LVGVCALC  =     T  calculate vGv susceptibility
   LVGVAPPL  =     F  apply vGv susceptibility instead of pGv for G=0

 Random number generation:
   RANDOM_GENERATOR = DEFAULT
   PCG_SEED         = not used


--------------------------------------------------------------------------------------------------------


 Static calculation
 charge density and potential will be updated during run
 non-spin polarized calculation
 Variant of blocked Davidson
 Davidson routine will perform the subspace rotation
 perform sub-space diagonalisation
    after iterative eigenvector-optimisation
 Kerker-like  mixing scheme
 using additional bands           24
 reciprocal scheme for non local part
 use partial core corrections
 calculate Harris-corrections to forces 
   (improved forces if not selfconsistent)
 use gradient corrections 
 use of overlap-Matrix (Vanderbilt PP)
 Fermi weights with tetrahedron method with Bloechl corrections


--------------------------------------------------------------------------------------------------------


  energy-cutoff  :      680.00
  volume of cell :      196.49
      direct lattice vectors                 reciprocal lattice vectors
     5.302919200  0.000000000 -2.364029390     0.188575379  0.038239427  0.000000000
    -1.053879568  5.197142179 -2.364029719     0.000000000  0.192413439  0.000000000
     0.000000000  0.000000000  7.129686600     0.062526975  0.076478848  0.140258620

  length of vectors
     5.805995780  5.805995650  7.129686600     0.192413429  0.192413439  0.171554998


 
 k-points in units of 2pi/SCALE and weight: pymatgen with grid density = 646 / numbe
   0.00000000  0.00000000  0.00000000       0.021
   0.04714384  0.00955986  0.00000000       0.083
   0.09428769  0.01911971  0.00000000       0.042
   0.04714384  0.05766322  0.00000000       0.042
   0.09428769  0.06722307  0.00000000       0.083
  -0.04714384  0.03854350  0.00000000       0.042
   0.09428769  0.11532643  0.00000000       0.021
   0.02084233  0.02549295  0.04675287       0.042
   0.06798617  0.03505281  0.04675287       0.083
   0.11513001  0.04461266  0.04675287       0.083
  -0.02630152  0.01593309  0.04675287       0.083
   0.06798617  0.08315617  0.04675287       0.042
   0.11513001  0.09271602  0.04675287       0.083
  -0.02630152  0.06403645  0.04675287       0.083
   0.11513001  0.14081938  0.04675287       0.042
  -0.02630152  0.11213981  0.04675287       0.083
  -0.02630152 -0.03217027  0.04675287       0.042
 
 k-points in reciprocal lattice and weights: pymatgen with grid density = 646 / numbe
   0.00000000  0.00000000  0.00000000       0.021
   0.25000000 -0.00000000  0.00000000       0.083
   0.50000000 -0.00000000  0.00000000       0.042
   0.25000000  0.25000000  0.00000000       0.042
   0.50000000  0.25000000  0.00000000       0.083
  -0.25000000  0.25000000  0.00000000       0.042
   0.50000000  0.50000000  0.00000000       0.021
   0.00000000  0.00000000  0.33333333       0.042
   0.25000000 -0.00000000  0.33333333       0.083
   0.50000000  0.00000000  0.33333333       0.083
  -0.25000000  0.00000000  0.33333333       0.083
   0.25000000  0.25000000  0.33333333       0.042
   0.50000000  0.25000000  0.33333333       0.083
  -0.25000000  0.25000000  0.33333333       0.083
   0.50000000  0.50000000  0.33333333       0.042
  -0.25000000  0.50000000  0.33333333       0.083
  -0.25000000 -0.25000000  0.33333333       0.042
 
 position of ions in fractional coordinates (direct lattice) 
   0.50000000  0.50000000  0.00000000
   0.75000000  0.25000000  0.50000000
   0.00000000  0.00000000  0.00000000
   0.25000000  0.75000000  0.50000000
   0.34516103  0.37500000  0.25000000
   0.90483897  0.87500000  0.25000000
   0.12500000  0.65483897  0.75000000
   0.62500000  0.09516103  0.75000000
 
 position of ions in cartesian coordinates  (Angst):
   2.12451982  2.59857109 -2.36402955
   3.71371951  1.29928554  1.20081383
   0.00000000  0.00000000  0.00000000
   0.53532012  3.89785663  1.20081366
   1.43515622  1.94892832  0.07993969
   3.87614333  4.54749941 -2.42517027
  -0.02725651  3.40329123  3.50370249
   3.21403623  0.49456540  3.64478308
 


--------------------------------------------------------------------------------------------------------


 k-point   1 :   0.0000 0.0000 0.0000  plane waves:    7897
 k-point   2 :   0.2500-0.0000 0.0000  plane waves:    7921
 k-point   3 :   0.5000-0.0000 0.0000  plane waves:    7912
 k-point   4 :   0.2500 0.2500 0.0000  plane waves:    7920
 k-point   5 :   0.5000 0.2500 0.0000  plane waves:    7913
 k-point   6 :  -0.2500 0.2500 0.0000  plane waves:    7905
 k-point   7 :   0.5000 0.5000 0.0000  plane waves:    7874
 k-point   8 :   0.0000 0.0000 0.3333  plane waves:    7945
 k-point   9 :   0.2500-0.0000 0.3333  plane waves:    7912
 k-point  10 :   0.5000 0.0000 0.3333  plane waves:    7911
 k-point  11 :  -0.2500 0.0000 0.3333  plane waves:    7916
 k-point  12 :   0.2500 0.2500 0.3333  plane waves:    7905
 k-point  13 :   0.5000 0.2500 0.3333  plane waves:    7923
 k-point  14 :  -0.2500 0.2500 0.3333  plane waves:    7915
 k-point  15 :   0.5000 0.5000 0.3333  plane waves:    7894
 k-point  16 :  -0.2500 0.5000 0.3333  plane waves:    7900
 k-point  17 :  -0.2500-0.2500 0.3333  plane waves:    7909

 maximum and minimum number of plane-waves per node :       819      767

 maximum number of plane-waves:      7945
 maximum index in each direction: 
   IXMAX=   12   IYMAX=   12   IZMAX=   15
   IXMIN=  -12   IYMIN=  -12   IZMIN=  -15


 parallel 3D FFT for wavefunctions:
    minimum data exchange during FFTs selected (reduces bandwidth)
 parallel 3D FFT for charge:
    minimum data exchange during FFTs selected (reduces bandwidth)


 FFT grid for exact exchange (Hartree Fock) 
  NGX = 28; NGY = 28; NGZ = 32

 
 Radii for the augmentation spheres in the non-local exchange
 for species   1 augmentation radius   1.454 (default was   1.077)
       energy cutoff for augmentation   2720.0
 for species   2 augmentation radius   1.273 (default was   0.943)
       energy cutoff for augmentation   2720.0
 for species   3 augmentation radius   1.459 (default was   1.081)
       energy cutoff for augmentation   2720.0

 real space projection operators:
  total allocation   :       2359.38 KBytes
  max/ min on nodes  :        256.64        168.75

 Maximum index for augmentation-charges in exchange          223
  SETUP_FOCK is finished

 total amount of memory used by VASP MPI-rank0    40635. kBytes
=======================================================================

   base      :      30000. kBytes
   nonl-proj :       6276. kBytes
   fftplans  :       1091. kBytes
   grid      :       1472. kBytes
   one-center:         15. kBytes
   HF        :         64. kBytes
   nonlr-proj:        542. kBytes
   wavefun   :       1175. kBytes
 
     INWAV:  cpu time      0.0001: real time      0.0004
 initial charge density was supplied:
 charge density of overlapping atoms calculated
 number of electron      72.0000000 magnetization 
 keeping initial charge density in first step


--------------------------------------------------------------------------------------------------------


 Maximum index for augmentation-charges          985 (set IRDMAX)


--------------------------------------------------------------------------------------------------------


 First call to EWALD:  gamma=   0.305
 Maximum number of real-space cells 3x 3x 3
 Maximum number of reciprocal cells 3x 3x 3

    FEWALD:  cpu time      0.0024: real time      0.0027


--------------------------------------- Ionic step        1  -------------------------------------------




--------------------------------------- Iteration      1(   1)  ---------------------------------------


    POTLOK:  cpu time      0.0247: real time      0.1999
    SETDIJ:  cpu time      0.1301: real time      0.1308
     EDDAV:  cpu time      0.6272: real time      1.8372
 BZINTS: Fermi energy:   17.834067;   72.000000 electrons
         Band energy: 0.417179E+03;  BLOECHL correction:   -0.158612
       DOS:  cpu time      0.0103: real time      0.0105
    --------------------------------------------
      LOOP:  cpu time      0.7924: real time      2.1784

 eigenvalue-minimisations  :  2100
 total energy-change (2. order) :-0.4346848E+04  (-0.3648115E+04)
 number of electron      72.0000000 magnetization 
 augmentation part       72.0000000 magnetization 

 Free energy of the ion-electron system (eV)
  ---------------------------------------------------
  alpha Z        PSCENC =       185.64929911
  Ewald energy   TEWEN  =     -4678.36476469
  -Hartree energ DENC   =     -2345.03363423
  -exchange      EXHF   =         0.00000000
  -V(xc)+E(xc)   XCENC  =       171.93044184
  PAW double counting   =      6059.49561051   -11108.65884479
  entropy T*S    EENTRO =         0.00000000
  eigenvalues    EBANDS =       417.17934714
  atomic energy  EATOM  =      6950.95472638
  Solvation  Ediel_sol  =         0.00000000
  ---------------------------------------------------
  free energy    TOTEN  =     -4346.84781873 eV

  energy without entropy =    -4346.84781873  energy(sigma->0) =    -4346.84781873
  exchange ACFDT corr.  =         0.00000000  see jH, gK, PRB 81, 115126


--------------------------------------------------------------------------------------------------------




--------------------------------------- Iteration      1(   2)  ---------------------------------------


     EDDAV:  cpu time      0.4243: real time      0.4335
 BZINTS: Fermi energy:    5.558784;   72.000000 electrons
         Band energy:-0.243923E+03;  BLOECHL correction:    0.000000
       DOS:  cpu time      0.0056: real time      0.0056
    --------------------------------------------
      LOOP:  cpu time      0.4298: real time      0.4391

 eigenvalue-minimisations  :  2040
 total energy-change (2. order) :-0.6611022E+03  (-0.6096048E+03)
 number of electron      72.0000000 magnetization 
 augmentation part       72.0000000 magnetization 

 Free energy of the ion-electron system (eV)
  ---------------------------------------------------
  alpha Z        PSCENC =       185.64929911
  Ewald energy   TEWEN  =     -4678.36476469
  -Hartree energ DENC   =     -2345.03363423
  -exchange      EXHF   =         0.00000000
  -V(xc)+E(xc)   XCENC  =       171.93044184
  PAW double counting   =      6059.49561051   -11108.65884479
  entropy T*S    EENTRO =         0.00000000
  eigenvalues    EBANDS =      -243.92286970
  atomic energy  EATOM  =      6950.95472638
  Solvation  Ediel_sol  =         0.00000000
  ---------------------------------------------------
  free energy    TOTEN  =     -5007.95003557 eV

  energy without entropy =    -5007.95003557  energy(sigma->0) =    -5007.95003557
  exchange ACFDT corr.  =         0.00000000  see jH, gK, PRB 81, 115126


--------------------------------------------------------------------------------------------------------




--------------------------------------- Iteration      1(   3)  ---------------------------------------


     EDDAV:  cpu time      0.4700: real time      0.5207
 BZINTS: Fermi energy:    2.564381;   72.000000 electrons
         Band energy:-0.364959E+03;  BLOECHL correction:    0.000000
       DOS:  cpu time      0.0059: real time      0.0059
    --------------------------------------------
      LOOP:  cpu time      0.4759: real time      0.5266

 eigenvalue-minimisations  :  2400
 total energy-change (2. order) :-0.1210359E+03  (-0.1170697E+03)
 number of electron      72.0000000 magnetization 
 augmentation part       72.0000000 magnetization 

 Free energy of the ion-electron system (eV)
  ---------------------------------------------------
  alpha Z        PSCENC =       185.64929911
  Ewald energy   TEWEN  =     -4678.36476469
  -Hartree energ DENC   =     -2345.03363423
  -exchange      EXHF   =         0.00000000
  -V(xc)+E(xc)   XCENC  =       171.93044184
  PAW double counting   =      6059.49561051   -11108.65884479
  entropy T*S    EENTRO =         0.00000000
  eigenvalues    EBANDS =      -364.95876807
  atomic energy  EATOM  =      6950.95472638
  Solvation  Ediel_sol  =         0.00000000
  ---------------------------------------------------
  free energy    TOTEN  =     -5128.98593394 eV

  energy without entropy =    -5128.98593394  energy(sigma->0) =    -5128.98593394
  exchange ACFDT corr.  =         0.00000000  see jH, gK, PRB 81, 115126


--------------------------------------------------------------------------------------------------------




--------------------------------------- Iteration      1(   4)  ---------------------------------------


     EDDAV:  cpu time      0.5188: real time      0.5385
 BZINTS: Fermi energy:    2.300277;   72.000000 electrons
         Band energy:-0.372074E+03;  BLOECHL correction:    0.000000
       DOS:  cpu time      0.0057: real time      0.0057
    --------------------------------------------
      LOOP:  cpu time      0.5245: real time      0.5442

 eigenvalue-minimisations  :  2520
 total energy-change (2. order) :-0.7114844E+01  (-0.7073998E+01)
 number of electron      72.0000000 magnetization 
 augmentation part       72.0000000 magnetization 

 Free energy of the ion-electron system (eV)
  ---------------------------------------------------
  alpha Z        PSCENC =       185.64929911
  Ewald energy   TEWEN  =     -4678.36476469
  -Hartree energ DENC   =     -2345.03363423
  -exchange      EXHF   =         0.00000000
  -V(xc)+E(xc)   XCENC  =       171.93044184
  PAW double counting   =      6059.49561051   -11108.65884479
  entropy T*S    EENTRO =         0.00000000
  eigenvalues    EBANDS =      -372.07361208
  atomic energy  EATOM  =      6950.95472638
  Solvation  Ediel_sol  =         0.00000000
  ---------------------------------------------------
  free energy    TOTEN  =     -5136.10077795 eV

  energy without entropy =    -5136.10077795  energy(sigma->0) =    -5136.10077795
  exchange ACFDT corr.  =         0.00000000  see jH, gK, PRB 81, 115126


--------------------------------------------------------------------------------------------------------




--------------------------------------- Iteration      1(   5)  ---------------------------------------


    POTLOK:  cpu time      0.0325: real time      0.0487
    SETDIJ:  cpu time      0.3907: real time      0.3916
     EDDAV:  cpu time     29.4651: real time     29.6782
 BZINTS: Fermi energy:    3.118217;   72.000000 electrons
         Band energy:-0.324225E+03;  BLOECHL correction:    0.000000
       DOS:  cpu time      0.0056: real time      0.0057
    CHARGE:  cpu time      0.0396: real time      0.0685
    MIXING:  cpu time      0.0004: real time      0.0004
    --------------------------------------------
      LOOP:  cpu time     29.9339: real time     30.1931

 eigenvalue-minimisations  :  2736
 total energy-change (2. order) : 0.5099754E+04  (-0.3102831E+01)
 number of electron      71.9999999 magnetization 
 augmentation part       24.1511444 magnetization 

 Free energy of the ion-electron system (eV)
  ---------------------------------------------------
  alpha Z        PSCENC =       185.64929911
  Ewald energy   TEWEN  =     -4678.36476469
  -Hartree energ DENC   =     -2345.03363423
  -exchange      EXHF   =       166.75891193
  -V(xc)+E(xc)   XCENC  =       128.03599195
  PAW double counting   =      6100.89090459    -6221.01315460
  entropy T*S    EENTRO =         0.00000000
  eigenvalues    EBANDS =      -324.22492814
  atomic energy  EATOM  =      6950.95472638
  Solvation  Ediel_sol  =         0.00000000
  ---------------------------------------------------
  free energy    TOTEN  =       -36.34664768 eV

  energy without entropy =      -36.34664768  energy(sigma->0) =      -36.34664768
  exchange ACFDT corr.  =         0.00000000  see jH, gK, PRB 81, 115126


--------------------------------------------------------------------------------------------------------




--------------------------------------- Iteration      1(   6)  ---------------------------------------


    POTLOK:  cpu time      0.0208: real time      0.0385
    SETDIJ:  cpu time      0.3458: real time      0.3466
     EDDAV:  cpu time     30.1825: real time     30.2593
 BZINTS: Fermi energy:    3.559390;   72.000000 electrons
         Band energy:-0.319880E+03;  BLOECHL correction:    0.000000
       DOS:  cpu time      0.0057: real time      0.0057
    CHARGE:  cpu time      0.0349: real time      0.0350
    MIXING:  cpu time      0.0001: real time      0.0001
    --------------------------------------------
      LOOP:  cpu time     30.5898: real time     30.6852

 eigenvalue-minimisations  :  3276
 total energy-change (2. order) : 0.5901892E+00  (-0.2420314E+00)
 number of electron      71.9999999 magnetization 
 augmentation part       23.9940168 magnetization 

 Free energy of the ion-electron system (eV)
  ---------------------------------------------------
  alpha Z        PSCENC =       185.64929911
  Ewald energy   TEWEN  =     -4678.36476469
  -Hartree energ DENC   =     -2344.26550346
  -exchange      EXHF   =       162.02005091
  -V(xc)+E(xc)   XCENC  =       128.46493333
  PAW double counting   =      7333.42821040    -7453.76346208
  entropy T*S    EENTRO =         0.00000000
  eigenvalues    EBANDS =      -319.87994837
  atomic energy  EATOM  =      6950.95472638
  Solvation  Ediel_sol  =         0.00000000
  ---------------------------------------------------
  free energy    TOTEN  =       -35.75645847 eV

  energy without entropy =      -35.75645847  energy(sigma->0) =      -35.75645847
  exchange ACFDT corr.  =         0.00000000  see jH, gK, PRB 81, 115126


--------------------------------------------------------------------------------------------------------




--------------------------------------- Iteration      1(   7)  ---------------------------------------


    POTLOK:  cpu time      0.0357: real time      0.0364
    SETDIJ:  cpu time      0.3444: real time      0.3452
     EDDAV:  cpu time     29.2547: real time     29.3290
 BZINTS: Fermi energy:    3.470715;   72.000000 electrons
         Band energy:-0.331190E+03;  BLOECHL correction:    0.000000
       DOS:  cpu time      0.0057: real time      0.0057
    CHARGE:  cpu time      0.0404: real time      0.0405
    MIXING:  cpu time      0.0001: real time      0.0001
    --------------------------------------------
      LOOP:  cpu time     29.6811: real time     29.7570

 eigenvalue-minimisations  :  3060
 total energy-change (2. order) : 0.7294926E-01  (-0.1064816E+00)
 number of electron      71.9999999 magnetization 
 augmentation part       24.2538179 magnetization 

 Free energy of the ion-electron system (eV)
  ---------------------------------------------------
  alpha Z        PSCENC =       185.64929911
  Ewald energy   TEWEN  =     -4678.36476469
  -Hartree energ DENC   =     -2332.55733772
  -exchange      EXHF   =       160.24658030
  -V(xc)+E(xc)   XCENC  =       128.31760339
  PAW double counting   =      8373.21757405    -8491.95702478
  entropy T*S    EENTRO =         0.00000000
  eigenvalues    EBANDS =      -331.19016524
  atomic energy  EATOM  =      6950.95472638
  Solvation  Ediel_sol  =         0.00000000
  ---------------------------------------------------
  free energy    TOTEN  =       -35.68350921 eV

  energy without entropy =      -35.68350921  energy(sigma->0) =      -35.68350921
  exchange ACFDT corr.  =         0.00000000  see jH, gK, PRB 81, 115126


--------------------------------------------------------------------------------------------------------




--------------------------------------- Iteration      1(   8)  ---------------------------------------


    POTLOK:  cpu time      0.0227: real time      0.0381
    SETDIJ:  cpu time      0.3426: real time      0.3434
     EDDAV:  cpu time     28.5446: real time     28.6171
 BZINTS: Fermi energy:    3.577536;   72.000000 electrons
         Band energy:-0.327208E+03;  BLOECHL correction:    0.000000
       DOS:  cpu time      0.0059: real time      0.0060
    CHARGE:  cpu time      0.0470: real time      0.0473
    MIXING:  cpu time      0.0002: real time      0.0002
    --------------------------------------------
      LOOP:  cpu time     28.9630: real time     29.0521

 eigenvalue-minimisations  :  3264
 total energy-change (2. order) :-0.1984387E-01  (-0.3287149E-01)
 number of electron      71.9999998 magnetization 
 augmentation part       24.2429310 magnetization 

 Free energy of the ion-electron system (eV)
  ---------------------------------------------------
  alpha Z        PSCENC =       185.64929911
  Ewald energy   TEWEN  =     -4678.36476469
  -Hartree energ DENC   =     -2334.48999258
  -exchange      EXHF   =       160.49544913
  -V(xc)+E(xc)   XCENC  =       128.48434291
  PAW double counting   =      9090.91896027    -9212.14293173
  entropy T*S    EENTRO =         0.00000000
  eigenvalues    EBANDS =      -327.20844188
  atomic energy  EATOM  =      6950.95472638
  Solvation  Ediel_sol  =         0.00000000
  ---------------------------------------------------
  free energy    TOTEN  =       -35.70335308 eV

  energy without entropy =      -35.70335308  energy(sigma->0) =      -35.70335308
  exchange ACFDT corr.  =         0.00000000  see jH, gK, PRB 81, 115126


--------------------------------------------------------------------------------------------------------




--------------------------------------- Iteration      1(   9)  ---------------------------------------


    POTLOK:  cpu time      0.0404: real time      0.0409
    SETDIJ:  cpu time      0.3514: real time      0.3525
     EDDAV:  cpu time     29.8014: real time     29.8771
 BZINTS: Fermi energy:    3.576023;   72.000000 electrons
         Band energy:-0.326058E+03;  BLOECHL correction:    0.000000
       DOS:  cpu time      0.0055: real time      0.0055
    CHARGE:  cpu time      0.0347: real time      0.0348
    MIXING:  cpu time      0.0001: real time      0.0001
    --------------------------------------------
      LOOP:  cpu time     30.2336: real time     30.3110

 eigenvalue-minimisations  :  3264
 total energy-change (2. order) : 0.1187240E-01  (-0.1288997E-02)
 number of electron      71.9999998 magnetization 
 augmentation part       24.2166285 magnetization 

 Free energy of the ion-electron system (eV)
  ---------------------------------------------------
  alpha Z        PSCENC =       185.64929911
  Ewald energy   TEWEN  =     -4678.36476469
  -Hartree energ DENC   =     -2334.23359668
  -exchange      EXHF   =       160.22025715
  -V(xc)+E(xc)   XCENC  =       128.53433571
  PAW double counting   =      9553.70057549    -9676.09412643
  entropy T*S    EENTRO =         0.00000000
  eigenvalues    EBANDS =      -326.05818672
  atomic energy  EATOM  =      6950.95472638
  Solvation  Ediel_sol  =         0.00000000
  ---------------------------------------------------
  free energy    TOTEN  =       -35.69148068 eV

  energy without entropy =      -35.69148068  energy(sigma->0) =      -35.69148068
  exchange ACFDT corr.  =         0.00000000  see jH, gK, PRB 81, 115126


--------------------------------------------------------------------------------------------------------




--------------------------------------- Iteration      1(  10)  ---------------------------------------


    POTLOK:  cpu time      0.0205: real time      0.0372
    SETDIJ:  cpu time      0.3423: real time      0.3431
     EDDAV:  cpu time     29.9908: real time     30.0669
 BZINTS: Fermi energy:    3.549612;   72.000000 electrons
         Band energy:-0.326536E+03;  BLOECHL correction:    0.000000
       DOS:  cpu time      0.0055: real time      0.0055
    CHARGE:  cpu time      0.0346: real time      0.0347
    MIXING:  cpu time      0.0002: real time      0.0002
    --------------------------------------------
      LOOP:  cpu time     30.3940: real time     30.4877

 eigenvalue-minimisations  :  3240
 total energy-change (2. order) : 0.4170973E-02  (-0.8826364E-03)
 number of electron      71.9999998 magnetization 
 augmentation part       24.2163601 magnetization 

 Free energy of the ion-electron system (eV)
  ---------------------------------------------------
  alpha Z        PSCENC =       185.64929911
  Ewald energy   TEWEN  =     -4678.36476469
  -Hartree energ DENC   =     -2333.21463821
  -exchange      EXHF   =       160.16401978
  -V(xc)+E(xc)   XCENC  =       128.54016775
  PAW double counting   =      9801.15874811    -9924.03875205
  entropy T*S    EENTRO =         0.00000000
  eigenvalues    EBANDS =      -326.53611589
  atomic energy  EATOM  =      6950.95472638
  Solvation  Ediel_sol  =         0.00000000
  ---------------------------------------------------
  free energy    TOTEN  =       -35.68730971 eV

  energy without entropy =      -35.68730971  energy(sigma->0) =      -35.68730971
  exchange ACFDT corr.  =         0.00000000  see jH, gK, PRB 81, 115126


--------------------------------------------------------------------------------------------------------




--------------------------------------- Iteration      1(  11)  ---------------------------------------


    POTLOK:  cpu time      0.0379: real time      0.0386
    SETDIJ:  cpu time      0.3426: real time      0.3435
     EDDAV:  cpu time     29.1613: real time     29.2358
 BZINTS: Fermi energy:    3.571534;   72.000000 electrons
         Band energy:-0.326409E+03;  BLOECHL correction:    0.000000
       DOS:  cpu time      0.0054: real time      0.0054
    CHARGE:  cpu time      0.0396: real time      0.0397
    MIXING:  cpu time      0.0002: real time      0.0002
    --------------------------------------------
      LOOP:  cpu time     29.5870: real time     29.6634

 eigenvalue-minimisations  :  2772
 total energy-change (2. order) : 0.4115398E-03  (-0.1719425E-03)
 number of electron      71.9999998 magnetization 
 augmentation part       24.2133983 magnetization 

 Free energy of the ion-electron system (eV)
  ---------------------------------------------------
  alpha Z        PSCENC =       185.64929911
  Ewald energy   TEWEN  =     -4678.36476469
  -Hartree energ DENC   =     -2333.04181263
  -exchange      EXHF   =       160.23654982
  -V(xc)+E(xc)   XCENC  =       128.56034354
  PAW double counting   =      9929.81537905   -10053.08772538
  entropy T*S    EENTRO =         0.00000000
  eigenvalues    EBANDS =      -326.40889337
  atomic energy  EATOM  =      6950.95472638
  Solvation  Ediel_sol  =         0.00000000
  ---------------------------------------------------
  free energy    TOTEN  =       -35.68689817 eV

  energy without entropy =      -35.68689817  energy(sigma->0) =      -35.68689817
  exchange ACFDT corr.  =         0.00000000  see jH, gK, PRB 81, 115126


--------------------------------------------------------------------------------------------------------




--------------------------------------- Iteration      1(  12)  ---------------------------------------


    POTLOK:  cpu time      0.0215: real time      0.0387
    SETDIJ:  cpu time      0.3431: real time      0.3439
     EDDAV:  cpu time     28.4083: real time     28.4903
 BZINTS: Fermi energy:    3.567529;   72.000000 electrons
         Band energy:-0.326292E+03;  BLOECHL correction:    0.000000
       DOS:  cpu time      0.0056: real time      0.0057
    CHARGE:  cpu time      0.0378: real time      0.0379
    MIXING:  cpu time      0.0002: real time      0.0002
    --------------------------------------------
      LOOP:  cpu time     28.8164: real time     28.9166

 eigenvalue-minimisations  :  3060
 total energy-change (2. order) : 0.1773625E-04  (-0.4456855E-04)
 number of electron      71.9999998 magnetization 
 augmentation part       24.2110833 magnetization 

 Free energy of the ion-electron system (eV)
  ---------------------------------------------------
  alpha Z        PSCENC =       185.64929911
  Ewald energy   TEWEN  =     -4678.36476469
  -Hartree energ DENC   =     -2332.97838382
  -exchange      EXHF   =       160.25368202
  -V(xc)+E(xc)   XCENC  =       128.57490970
  PAW double counting   =     10008.59373305   -10132.07830799
  entropy T*S    EENTRO =         0.00000000
  eigenvalues    EBANDS =      -326.29177420
  atomic energy  EATOM  =      6950.95472638
  Solvation  Ediel_sol  =         0.00000000
  ---------------------------------------------------
  free energy    TOTEN  =       -35.68688043 eV

  energy without entropy =      -35.68688043  energy(sigma->0) =      -35.68688043
  exchange ACFDT corr.  =         0.00000000  see jH, gK, PRB 81, 115126


--------------------------------------------------------------------------------------------------------




--------------------------------------- Iteration      1(  13)  ---------------------------------------


    POTLOK:  cpu time      0.0240: real time      0.0417
    SETDIJ:  cpu time      0.3560: real time      0.3568
     EDDAV:  cpu time     29.7067: real time     29.7821
 BZINTS: Fermi energy:    3.564728;   72.000000 electrons
         Band energy:-0.326240E+03;  BLOECHL correction:    0.000000
       DOS:  cpu time      0.0055: real time      0.0055
    CHARGE:  cpu time      0.0345: real time      0.0346
    MIXING:  cpu time      0.0001: real time      0.0001
    --------------------------------------------
      LOOP:  cpu time     30.1270: real time     30.2209

 eigenvalue-minimisations  :  3036
 total energy-change (2. order) :-0.6886367E-04  (-0.1284409E-04)
 number of electron      71.9999998 magnetization 
 augmentation part       24.2110158 magnetization 

 Free energy of the ion-electron system (eV)
  ---------------------------------------------------
  alpha Z        PSCENC =       185.64929911
  Ewald energy   TEWEN  =     -4678.36476469
  -Hartree energ DENC   =     -2332.92478470
  -exchange      EXHF   =       160.25382078
  -V(xc)+E(xc)   XCENC  =       128.58312252
  PAW double counting   =     10055.93299690   -10179.53147376
  entropy T*S    EENTRO =         0.00000000
  eigenvalues    EBANDS =      -326.23989183
  atomic energy  EATOM  =      6950.95472638
  Solvation  Ediel_sol  =         0.00000000
  ---------------------------------------------------
  free energy    TOTEN  =       -35.68694929 eV

  energy without entropy =      -35.68694929  energy(sigma->0) =      -35.68694929
  exchange ACFDT corr.  =         0.00000000  see jH, gK, PRB 81, 115126


--------------------------------------------------------------------------------------------------------




--------------------------------------- Iteration      1(  14)  ---------------------------------------


    POTLOK:  cpu time      0.0204: real time      0.0385
    SETDIJ:  cpu time      0.3420: real time      0.3429
     EDDAV:  cpu time     29.9453: real time     30.0213
 BZINTS: Fermi energy:    3.562945;   72.000000 electrons
         Band energy:-0.326159E+03;  BLOECHL correction:    0.000000
       DOS:  cpu time      0.0056: real time      0.0057
    CHARGE:  cpu time      0.0355: real time      0.0356
    MIXING:  cpu time      0.0001: real time      0.0001
    --------------------------------------------
      LOOP:  cpu time     30.3489: real time     30.4442

 eigenvalue-minimisations  :  2544
 total energy-change (2. order) :-0.7030517E-04  (-0.6476254E-05)
 number of electron      71.9999998 magnetization 
 augmentation part       24.2108218 magnetization 

 Free energy of the ion-electron system (eV)
  ---------------------------------------------------
  alpha Z        PSCENC =       185.64929911
  Ewald energy   TEWEN  =     -4678.36476469
  -Hartree energ DENC   =     -2332.93302434
  -exchange      EXHF   =       160.25480990
  -V(xc)+E(xc)   XCENC  =       128.58904511
  PAW double counting   =     10084.25920278   -10207.93747357
  entropy T*S    EENTRO =         0.00000000
  eigenvalues    EBANDS =      -326.15884028
  atomic energy  EATOM  =      6950.95472638
  Solvation  Ediel_sol  =         0.00000000
  ---------------------------------------------------
  free energy    TOTEN  =       -35.68701960 eV

  energy without entropy =      -35.68701960  energy(sigma->0) =      -35.68701960
  exchange ACFDT corr.  =         0.00000000  see jH, gK, PRB 81, 115126


--------------------------------------------------------------------------------------------------------




--------------------------------------- Iteration      1(  15)  ---------------------------------------


    POTLOK:  cpu time      0.0202: real time      0.0386
    SETDIJ:  cpu time      0.3422: real time      0.3430
     EDDAV:  cpu time     29.2985: real time     29.3727
 BZINTS: Fermi energy:    3.562102;   72.000000 electrons
         Band energy:-0.326095E+03;  BLOECHL correction:    0.000000
       DOS:  cpu time      0.0055: real time      0.0055
    CHARGE:  cpu time      0.0467: real time      0.0468
    MIXING:  cpu time      0.0002: real time      0.0002
    --------------------------------------------
      LOOP:  cpu time     29.7131: real time     29.8068

 eigenvalue-minimisations  :  2376
 total energy-change (2. order) :-0.4860187E-04  (-0.2437580E-05)
 number of electron      71.9999998 magnetization 
 augmentation part       24.2105014 magnetization 

 Free energy of the ion-electron system (eV)
  ---------------------------------------------------
  alpha Z        PSCENC =       185.64929911
  Ewald energy   TEWEN  =     -4678.36476469
  -Hartree energ DENC   =     -2332.94827085
  -exchange      EXHF   =       160.25327778
  -V(xc)+E(xc)   XCENC  =       128.59268792
  PAW double counting   =     10101.30636504   -10225.03588762
  entropy T*S    EENTRO =         0.00000000
  eigenvalues    EBANDS =      -326.09450126
  atomic energy  EATOM  =      6950.95472638
  Solvation  Ediel_sol  =         0.00000000
  ---------------------------------------------------
  free energy    TOTEN  =       -35.68706820 eV

  energy without entropy =      -35.68706820  energy(sigma->0) =      -35.68706820
  exchange ACFDT corr.  =         0.00000000  see jH, gK, PRB 81, 115126


--------------------------------------------------------------------------------------------------------




--------------------------------------- Iteration      1(  16)  ---------------------------------------


    POTLOK:  cpu time      0.0218: real time      0.0373
    SETDIJ:  cpu time      0.3421: real time      0.3431
     EDDAV:  cpu time     28.4274: real time     28.4995
 BZINTS: Fermi energy:    3.586793;   72.000000 electrons
         Band energy:-0.326057E+03;  BLOECHL correction:    0.000000
       DOS:  cpu time      0.0056: real time      0.0056
    CHARGE:  cpu time      0.0431: real time      0.0432
    MIXING:  cpu time      0.0003: real time      0.0003
    --------------------------------------------
      LOOP:  cpu time     28.8404: real time     28.9291

 eigenvalue-minimisations  :  1896
 total energy-change (2. order) :-0.2821051E-04  (-0.9332518E-06)
 number of electron      71.9999998 magnetization 
 augmentation part       24.2105113 magnetization 

 Free energy of the ion-electron system (eV)
  ---------------------------------------------------
  alpha Z        PSCENC =       185.64929911
  Ewald energy   TEWEN  =     -4678.36476469
  -Hartree energ DENC   =     -2332.95628988
  -exchange      EXHF   =       160.25200557
  -V(xc)+E(xc)   XCENC  =       128.59473453
  PAW double counting   =     10111.48776904   -10235.24734814
  entropy T*S    EENTRO =         0.00000000
  eigenvalues    EBANDS =      -326.05722833
  atomic energy  EATOM  =      6950.95472638
  Solvation  Ediel_sol  =         0.00000000
  ---------------------------------------------------
  free energy    TOTEN  =       -35.68709641 eV

  energy without entropy =      -35.68709641  energy(sigma->0) =      -35.68709641
  exchange ACFDT corr.  =         0.00000000  see jH, gK, PRB 81, 115126


--------------------------------------------------------------------------------------------------------




--------------------------------------- Iteration      1(  17)  ---------------------------------------


    POTLOK:  cpu time      0.0258: real time      0.0441
    SETDIJ:  cpu time      0.3454: real time      0.3463
     EDDAV:  cpu time     29.4943: real time     29.5691
 BZINTS: Fermi energy:    3.585895;   72.000000 electrons
         Band energy:-0.326024E+03;  BLOECHL correction:    0.000000
       DOS:  cpu time      0.0056: real time      0.0056
    CHARGE:  cpu time      0.0348: real time      0.0349
    MIXING:  cpu time      0.0001: real time      0.0001
    --------------------------------------------
      LOOP:  cpu time     29.9060: real time     30.0002

 eigenvalue-minimisations  :  1812
 total energy-change (2. order) :-0.1536742E-04  (-0.6407242E-06)
 number of electron      71.9999998 magnetization 
 augmentation part       24.2102138 magnetization 

 Free energy of the ion-electron system (eV)
  ---------------------------------------------------
  alpha Z        PSCENC =       185.64929911
  Ewald energy   TEWEN  =     -4678.36476469
  -Hartree energ DENC   =     -2332.97037671
  -exchange      EXHF   =       160.25220979
  -V(xc)+E(xc)   XCENC  =       128.59624396
  PAW double counting   =     10117.50937296   -10241.28988413
  entropy T*S    EENTRO =         0.00000000
  eigenvalues    EBANDS =      -326.02393845
  atomic energy  EATOM  =      6950.95472638
  Solvation  Ediel_sol  =         0.00000000
  ---------------------------------------------------
  free energy    TOTEN  =       -35.68711178 eV

  energy without entropy =      -35.68711178  energy(sigma->0) =      -35.68711178
  exchange ACFDT corr.  =         0.00000000  see jH, gK, PRB 81, 115126


--------------------------------------------------------------------------------------------------------




--------------------------------------- Iteration      1(  18)  ---------------------------------------


    POTLOK:  cpu time      0.0223: real time      0.0365
    SETDIJ:  cpu time      0.3421: real time      0.3430
     EDDAV:  cpu time     29.9068: real time     29.9829
 BZINTS: Fermi energy:    3.585140;   72.000000 electrons
         Band energy:-0.326013E+03;  BLOECHL correction:    0.000000
       DOS:  cpu time      0.0056: real time      0.0056
    --------------------------------------------
      LOOP:  cpu time     30.2768: real time     30.3681

 eigenvalue-minimisations  :  1728
 total energy-change (2. order) :-0.8218159E-05  (-0.4440205E-06)
 number of electron      71.9999998 magnetization 
 augmentation part       24.2102138 magnetization 

 Free energy of the ion-electron system (eV)
  ---------------------------------------------------
  alpha Z        PSCENC =       185.64929911
  Ewald energy   TEWEN  =     -4678.36476469
  -Hartree energ DENC   =     -2332.97276185
  -exchange      EXHF   =       160.25148810
  -V(xc)+E(xc)   XCENC  =       128.59691398
  PAW double counting   =     10121.08934131   -10244.87853970
  entropy T*S    EENTRO =         0.00000000
  eigenvalues    EBANDS =      -326.01282264
  atomic energy  EATOM  =      6950.95472638
  Solvation  Ediel_sol  =         0.00000000
  ---------------------------------------------------
  free energy    TOTEN  =       -35.68712000 eV

  energy without entropy =      -35.68712000  energy(sigma->0) =      -35.68712000
  exchange ACFDT corr.  =         0.00000000  see jH, gK, PRB 81, 115126


--------------------------------------------------------------------------------------------------------




 average (electrostatic) potential at core
  the test charge radii are     1.0774  0.9430  1.0808
  (the norm of the test charge is              1.0000)
       1 -91.3524       2 -91.3524       3 -58.1117       4 -58.1117       5 -50.6343
       6 -50.6338       7 -50.6338       8 -50.6343
 
 
 
 E-fermi :   3.5851     XC(G=0):  -7.7043     alpha+bet : -9.4251

 Fermi energy:         3.5851401081

 k-point     1 :       0.0000    0.0000    0.0000
  band No.  band energies     occupation 
      1     -13.1862      2.00000
      2     -13.1737      2.00000
      3     -13.1736      2.00000
      4     -12.9743      2.00000
      5     -12.9550      2.00000
      6     -12.9550      2.00000
      7     -12.8875      2.00000
      8     -12.8831      2.00000
      9     -12.8675      2.00000
     10     -12.8627      2.00000
     11     -11.5576      2.00000
     12     -10.0929      2.00000
     13     -10.0752      2.00000
     14     -10.0752      2.00000
     15      -3.2813      2.00000
     16      -2.4678      2.00000
     17      -1.4770      2.00000
     18      -0.9135      2.00000
     19      -0.8379      2.00000
     20      -0.2990      2.00000
     21      -0.2989      2.00000
     22      -0.0569      2.00000
     23      -0.0568      2.00000
[...]
   30.544323    0.668012    0.668050    0.668322    0.000094    0.000211    0.000172
   30.572816    0.669255    0.669289    0.669535    0.000085    0.000190    0.000156
   30.601309    0.670467    0.670498    0.670719    0.000076    0.000171    0.000140
   30.629802    0.671652    0.671680    0.671877    0.000068    0.000153    0.000125
   30.658295    0.672812    0.672836    0.673012    0.000061    0.000136    0.000111
   30.686788    0.673947    0.673969    0.674124    0.000054    0.000120    0.000098
   30.715281    0.675062    0.675081    0.675217    0.000047    0.000105    0.000086
   30.743773    0.676156    0.676172    0.676290    0.000041    0.000091    0.000075
   30.772266    0.677230    0.677244    0.677345    0.000035    0.000078    0.000064
   30.800759    0.678287    0.678299    0.678384    0.000029    0.000066    0.000054
   30.829252    0.679327    0.679337    0.679407    0.000024    0.000054    0.000044
   30.857745    0.680351    0.680359    0.680414    0.000019    0.000043    0.000035
   30.886238    0.681361    0.681366    0.681408    0.000014    0.000032    0.000026
   30.914730    0.682355    0.682359    0.682388    0.000010    0.000022    0.000018
   30.943223    0.683336    0.683339    0.683355    0.000006    0.000013    0.000010
   30.971716    0.684304    0.684305    0.684310    0.000002    0.000004    0.000003
   31.000209    0.685260    0.685259    0.685253   -0.000002   -0.000005   -0.000004
   31.028702    0.686204    0.686202    0.686185   -0.000006   -0.000013   -0.000010
   31.057195    0.687136    0.687133    0.687106   -0.000009   -0.000020   -0.000017
   31.085687    0.688058    0.688053    0.688017   -0.000012   -0.000028   -0.000023
   31.114180    0.688969    0.688963    0.688918   -0.000016   -0.000035   -0.000028
   31.142673    0.689870    0.689862    0.689809   -0.000018   -0.000041   -0.000034
   31.171166    0.690761    0.690752    0.690691   -0.000021   -0.000048   -0.000039
   31.199659    0.691643    0.691633    0.691564   -0.000024   -0.000054   -0.000044
   31.228152    0.692516    0.692505    0.692428   -0.000027   -0.000060   -0.000049
   31.256644    0.693380    0.693368    0.693284   -0.000029   -0.000065   -0.000053
   31.285137    0.694235    0.694223    0.694132   -0.000031   -0.000071   -0.000058
   31.313630    0.695083    0.695069    0.694972   -0.000034   -0.000076   -0.000062
   31.342123    0.695922    0.695908    0.695804   -0.000036   -0.000080   -0.000066
   31.370616    0.696754    0.696739    0.696629   -0.000038   -0.000085   -0.000070
   31.399109    0.697578    0.697562    0.697447   -0.000040   -0.000090   -0.000073
   31.427601    0.698395    0.698378    0.698257   -0.000042   -0.000094   -0.000077
   31.456094    0.699205    0.699188    0.699062   -0.000044   -0.000098   -0.000080
   31.484587    0.700009    0.699990    0.699859   -0.000045   -0.000102   -0.000083
   31.513080    0.700805    0.700786    0.700650   -0.000047   -0.000106   -0.000086
   31.541573    0.701595    0.701575    0.701435   -0.000049   -0.000109   -0.000089
   31.570066    0.702379    0.702359    0.702213   -0.000050   -0.000113   -0.000092
   31.598559    0.703156    0.703135    0.702986   -0.000052   -0.000116   -0.000095
   31.627051    0.703928    0.703906    0.703753   -0.000053   -0.000119   -0.000098
   31.655544    0.704694    0.704672    0.704514   -0.000055   -0.000122   -0.000100
   31.684037    0.705454    0.705431    0.705269   -0.000056   -0.000125   -0.000103
   31.712530    0.706208    0.706185    0.706020   -0.000057   -0.000128   -0.000105
   31.741023    0.706957    0.706933    0.706764   -0.000058   -0.000131   -0.000107
   31.769516    0.707700    0.707676    0.707504   -0.000060   -0.000134   -0.000109
   31.798008    0.708438    0.708414    0.708238   -0.000061   -0.000136   -0.000111
   31.826501    0.709172    0.709147    0.708968   -0.000062   -0.000139   -0.000113
   31.854994    0.709900    0.709874    0.709693   -0.000063   -0.000141   -0.000115
   31.883487    0.710623    0.710597    0.710412   -0.000064   -0.000143   -0.000117
   31.911980    0.711341    0.711315    0.711128   -0.000065   -0.000145   -0.000119
   31.940473    0.712055    0.712028    0.711838   -0.000066   -0.000147   -0.000121
   31.968965    0.712764    0.712737    0.712544   -0.000067   -0.000149   -0.000122
   31.997458    0.713468    0.713441    0.713246   -0.000068   -0.000151   -0.000124
   32.025951    0.714168    0.714140    0.713943   -0.000068   -0.000153   -0.000125
   32.054444    0.714863    0.714835    0.714636   -0.000069   -0.000155   -0.000127
   32.082937    0.715555    0.715526    0.715324   -0.000070   -0.000157   -0.000128
   32.111430    0.716242    0.716213    0.716009   -0.000071   -0.000159   -0.000130
   32.139922    0.716925    0.716896    0.716689   -0.000071   -0.000160   -0.000131
   32.168415    0.717603    0.717574    0.717366   -0.000072   -0.000162   -0.000132
   32.196908    0.718278    0.718249    0.718038   -0.000073   -0.000163   -0.000133
   32.225401    0.718949    0.718919    0.718707   -0.000073   -0.000165   -0.000135
   32.253894    0.719616    0.719586    0.719372   -0.000074   -0.000166   -0.000136
   32.282387    0.720279    0.720248    0.720033   -0.000075   -0.000167   -0.000137
   32.310879    0.720938    0.720908    0.720690   -0.000075   -0.000169   -0.000138
   32.339372    0.721594    0.721563    0.721344   -0.000076   -0.000170   -0.000139
   32.367865    0.722245    0.722215    0.721994   -0.000076   -0.000171   -0.000140
   32.396358    0.722894    0.722863    0.722641   -0.000077   -0.000172   -0.000141
   32.424851    0.723538    0.723507    0.723284   -0.000077   -0.000173   -0.000142
   32.453344    0.724180    0.724148    0.723923   -0.000078   -0.000175   -0.000143
   32.481837    0.724818    0.724786    0.724560   -0.000078   -0.000176   -0.000144
   32.510329    0.725452    0.725420    0.725193   -0.000079   -0.000177   -0.000144
   32.538822    0.726083    0.726051    0.725822   -0.000079   -0.000178   -0.000145
   32.567315    0.726711    0.726679    0.726449   -0.000080   -0.000178   -0.000146
   32.595808    0.727335    0.727303    0.727072   -0.000080   -0.000179   -0.000147
   32.624301    0.727957    0.727924    0.727692   -0.000080   -0.000180   -0.000147
   32.652794    0.728575    0.728542    0.728309   -0.000081   -0.000181   -0.000148
   32.681286    0.729190    0.729157    0.728922   -0.000081   -0.000182   -0.000149
   32.709779    0.729801    0.729768    0.729533   -0.000081   -0.000183   -0.000149
   32.738272    0.730410    0.730377    0.730141   -0.000082   -0.000183   -0.000150
   32.766765    0.731016    0.730983    0.730746   -0.000082   -0.000184   -0.000151
   32.795258    0.731619    0.731586    0.731347   -0.000082   -0.000185   -0.000151
   32.823751    0.732219    0.732185    0.731946   -0.000083   -0.000185   -0.000152
   32.852243    0.732816    0.732782    0.732542   -0.000083   -0.000186   -0.000152
   32.880736    0.733410    0.733376    0.733136   -0.000083   -0.000187   -0.000153
   32.909229    0.734001    0.733967    0.733726   -0.000083   -0.000187   -0.000153
   32.937722    0.734590    0.734556    0.734314   -0.000084   -0.000188   -0.000154
   32.966215    0.735175    0.735141    0.734898   -0.000084   -0.000188   -0.000154
   32.994708    0.735758    0.735724    0.735481   -0.000084   -0.000189   -0.000154
   33.023200    0.736338    0.736304    0.736060   -0.000084   -0.000189   -0.000155
   33.051693    0.736916    0.736882    0.736637   -0.000085   -0.000190   -0.000155
   33.080186    0.737491    0.737456    0.737211   -0.000085   -0.000190   -0.000156
   33.108679    0.738063    0.738029    0.737783   -0.000085   -0.000191   -0.000156
   33.137172    0.738633    0.738598    0.738352   -0.000085   -0.000191   -0.000156
   33.165665    0.739200    0.739165    0.738918   -0.000085   -0.000192   -0.000157
   33.194158    0.739764    0.739730    0.739482   -0.000086   -0.000192   -0.000157
   33.222650    0.740326    0.740292    0.740044   -0.000086   -0.000192   -0.000157
   33.251143    0.740886    0.740851    0.740603   -0.000086   -0.000193   -0.000158
   33.279636    0.741443    0.741408    0.741159   -0.000086   -0.000193   -0.000158
   33.308129    0.741998    0.741963    0.741714   -0.000086   -0.000193   -0.000158
   33.336622    0.742550    0.742515    0.742265   -0.000086   -0.000194   -0.000158
   33.365115    0.743100    0.743065    0.742815   -0.000086   -0.000194   -0.000159
   33.393607    0.743647    0.743612    0.743362   -0.000087   -0.000194   -0.000159
   33.422100    0.744192    0.744157    0.743907   -0.000087   -0.000194   -0.000159
   33.450593    0.744735    0.744700    0.744449   -0.000087   -0.000195   -0.000159
   33.479086    0.745276    0.745240    0.744989   -0.000087   -0.000195   -0.000159
   33.507579    0.745814    0.745778    0.745527   -0.000087   -0.000195   -0.000160
   33.536072    0.746350    0.746314    0.746063   -0.000087   -0.000195   -0.000160
   33.564564    0.746883    0.746848    0.746596   -0.000087   -0.000196   -0.000160
   33.593057    0.747415    0.747380    0.747127   -0.000087   -0.000196   -0.000160
   33.621550    0.747944    0.747909    0.747656   -0.000087   -0.000196   -0.000160
   33.650043    0.748471    0.748436    0.748183   -0.000087   -0.000196   -0.000160
   33.678536    0.748996    0.748961    0.748708   -0.000087   -0.000196   -0.000160
   33.707029    0.749519    0.749484    0.749231   -0.000088   -0.000196   -0.000161
   33.735521    0.750040    0.750004    0.749751   -0.000088   -0.000197   -0.000161
   33.764014    0.750558    0.750523    0.750269   -0.000088   -0.000197   -0.000161
   33.792507    0.751075    0.751039    0.750786   -0.000088   -0.000197   -0.000161
   33.821000    0.751589    0.751554    0.751300   -0.000088   -0.000197   -0.000161
   33.849493    0.752102    0.752066    0.751812   -0.000088   -0.000197   -0.000161
   33.877986    0.752612    0.752576    0.752323   -0.000088   -0.000197   -0.000161
   33.906478    0.753120    0.753085    0.752831   -0.000088   -0.000197   -0.000161
   33.934971    0.753627    0.753591    0.753337   -0.000088   -0.000197   -0.000161
   33.963464    0.754131    0.754095    0.753841   -0.000088   -0.000197   -0.000161
   33.991957    0.754633    0.754598    0.754344   -0.000088   -0.000197   -0.000161
   34.020450    0.755134    0.755098    0.754844   -0.000088   -0.000197   -0.000161
   34.048943    0.755632    0.755597    0.755342   -0.000088   -0.000197   -0.000161
   34.077436    0.756129    0.756093    0.755839   -0.000088   -0.000197   -0.000161
   34.105928    0.756624    0.756588    0.756334   -0.000088   -0.000197   -0.000161
   34.134421    0.757116    0.757081    0.756826   -0.000088   -0.000197   -0.000161
   34.162914    0.757607    0.757572    0.757317   -0.000088   -0.000197   -0.000161
   34.191407    0.758096    0.758061    0.757806   -0.000088   -0.000197   -0.000161
   34.219900    0.758584    0.758548    0.758293   -0.000088   -0.000197   -0.000161
   34.248393    0.759069    0.759033    0.758779   -0.000088   -0.000197   -0.000161
   34.276885    0.759552    0.759517    0.759262   -0.000088   -0.000197   -0.000161
   34.305378    0.760034    0.759999    0.759744   -0.000088   -0.000197   -0.000161
   34.333871    0.760514    0.760478    0.760224   -0.000088   -0.000197   -0.000161
   34.362364    0.760992    0.760957    0.760702   -0.000088   -0.000197   -0.000161
   34.390857    0.761469    0.761433    0.761179   -0.000088   -0.000197   -0.000161
   34.419350    0.761943    0.761908    0.761654   -0.000088   -0.000197   -0.000161
   34.447842    0.762416    0.762381    0.762127   -0.000088   -0.000197   -0.000161
   34.476335    0.762887    0.762852    0.762598   -0.000088   -0.000197   -0.000161
   34.504828    0.763357    0.763321    0.763067   -0.000088   -0.000197   -0.000161
   34.533321    0.763825    0.763789    0.763535   -0.000088   -0.000197   -0.000161
   34.561814    0.764291    0.764255    0.764001   -0.000088   -0.000197   -0.000161
   34.590307    0.764755    0.764719    0.764466   -0.000088   -0.000197   -0.000161
   34.618799    0.765218    0.765182    0.764929   -0.000088   -0.000197   -0.000161
   34.647292    0.765679    0.765643    0.765390   -0.000088   -0.000197   -0.000161
   34.675785    0.766138    0.766103    0.765849   -0.000088   -0.000197   -0.000161
   34.704278    0.766596    0.766560    0.766307   -0.000088   -0.000196   -0.000161
   34.732771    0.767052    0.767016    0.766763   -0.000088   -0.000196   -0.000161
   34.761264    0.767506    0.767471    0.767218   -0.000087   -0.000196   -0.000160
   34.789756    0.767959    0.767924    0.767671   -0.000087   -0.000196   -0.000160
   34.818249    0.768411    0.768375    0.768123   -0.000087   -0.000196   -0.000160
   34.846742    0.768860    0.768825    0.768573   -0.000087   -0.000196   -0.000160
   34.875235    0.769309    0.769273    0.769021   -0.000087   -0.000196   -0.000160
   34.903728    0.769755    0.769720    0.769468   -0.000087   -0.000196   -0.000160
   34.932221    0.770200    0.770165    0.769913   -0.000087   -0.000196   -0.000160
   34.960714    0.770644    0.770609    0.770357   -0.000087   -0.000195   -0.000160
   34.989206    0.771086    0.771051    0.770799   -0.000087   -0.000195   -0.000160
   35.017699    0.771526    0.771491    0.771240   -0.000087   -0.000195   -0.000160
   35.046192    0.771965    0.771930    0.771679   -0.000087   -0.000195   -0.000159
   35.074685    0.772403    0.772367    0.772116   -0.000087   -0.000195   -0.000159
   35.103178    0.772839    0.772803    0.772553   -0.000087   -0.000195   -0.000159
   35.131671    0.773273    0.773238    0.772987   -0.000087   -0.000195   -0.000159
   35.160163    0.773706    0.773671    0.773420   -0.000087   -0.000194   -0.000159
   35.188656    0.774138    0.774103    0.773852   -0.000087   -0.000194   -0.000159
   35.217149    0.774568    0.774533    0.774282   -0.000087   -0.000194   -0.000159
   35.245642    0.774996    0.774961    0.774711   -0.000086   -0.000194   -0.000159
   35.274135    0.775424    0.775388    0.775139   -0.000086   -0.000194   -0.000158
   35.302628    0.775849    0.775814    0.775565   -0.000086   -0.000194   -0.000158
   35.331120    0.776274    0.776239    0.775989   -0.000086   -0.000193   -0.000158
   35.359613    0.776697    0.776662    0.776413   -0.000086   -0.000193   -0.000158
   35.388106    0.777118    0.777083    0.776834   -0.000086   -0.000193   -0.000158
   35.416599    0.777538    0.777503    0.777255   -0.000086   -0.000193   -0.000158
   35.445092    0.777957    0.777922    0.777674   -0.000086   -0.000193   -0.000158
   35.473585    0.778374    0.778339    0.778091   -0.000086   -0.000193   -0.000157
   35.502077    0.778790    0.778755    0.778507   -0.000086   -0.000192   -0.000157
   35.530570    0.779205    0.779170    0.778922   -0.000086   -0.000192   -0.000157
   35.559063    0.779618    0.779583    0.779336   -0.000086   -0.000192   -0.000157
   35.587556    0.780030    0.779995    0.779748   -0.000086   -0.000192   -0.000157
   35.616049    0.780441    0.780406    0.780159   -0.000085   -0.000192   -0.000157
   35.644542    0.780850    0.780815    0.780568   -0.000085   -0.000192   -0.000157
   35.673035    0.781258    0.781223    0.780977   -0.000085   -0.000191   -0.000156
   35.701527    0.781664    0.781630    0.781384   -0.000085   -0.000191   -0.000156
   35.730020    0.782070    0.782035    0.781789   -0.000085   -0.000191   -0.000156
   35.758513    0.782474    0.782439    0.782193   -0.000085   -0.000191   -0.000156
   35.787006    0.782876    0.782842    0.782596   -0.000085   -0.000191   -0.000156
   35.815499    0.783278    0.783243    0.782998   -0.000085   -0.000190   -0.000156
   35.843992    0.783678    0.783643    0.783398   -0.000085   -0.000190   -0.000155
   35.872484    0.784077    0.784042    0.783798   -0.000085   -0.000190   -0.000155
   35.900977    0.784474    0.784440    0.784195   -0.000085   -0.000190   -0.000155
   35.929470    0.784871    0.784836    0.784592   -0.000084   -0.000190   -0.000155
   35.957963    0.785266    0.785231    0.784987   -0.000084   -0.000189   -0.000155
   35.986456    0.785659    0.785625    0.785382   -0.000084   -0.000189   -0.000155
   36.014949    0.786052    0.786018    0.785774   -0.000084   -0.000189   -0.000154
   36.043441    0.786443    0.786409    0.786166   -0.000084   -0.000189   -0.000154
   36.071934    0.786833    0.786799    0.786556   -0.000084   -0.000189   -0.000154
   36.100427    0.787222    0.787188    0.786946   -0.000084   -0.000188   -0.000154
   36.128920    0.787610    0.787576    0.787334   -0.000084   -0.000188   -0.000154
   36.157413    0.787996    0.787963    0.787720   -0.000084   -0.000188   -0.000154
   36.185906    0.788382    0.788348    0.788106   -0.000084   -0.000188   -0.000153
   36.214398    0.788766    0.788732    0.788490   -0.000084   -0.000187   -0.000153
   36.242891    0.789149    0.789115    0.788874   -0.000083   -0.000187   -0.000153
   36.271384    0.789530    0.789497    0.789256   -0.000083   -0.000187   -0.000153
   36.299877    0.789911    0.789877    0.789636   -0.000083   -0.000187   -0.000153
   36.328370    0.790290    0.790257    0.790016   -0.000083   -0.000187   -0.000153
   36.356863    0.790668    0.790635    0.790395   -0.000083   -0.000186   -0.000152
   36.385355    0.791046    0.791012    0.790772   -0.000083   -0.000186   -0.000152
   36.413848    0.791421    0.791388    0.791148   -0.000083   -0.000186   -0.000152
   36.442341    0.791796    0.791763    0.791523   -0.000083   -0.000186   -0.000152
   36.470834    0.792170    0.792136    0.791897   -0.000083   -0.000185   -0.000152
   36.499327    0.792542    0.792509    0.792270   -0.000083   -0.000185   -0.000151
 
 The outermost node in the dielectric function lies at epsilon=  18.3


--------------------------------------------------------------------------------------------------------


    OPTICS:  cpu time      4.4811: real time      4.4967
    4ORBIT:  cpu time      0.0000: real time      0.0000



 total charge

# of ion       s       p       d       tot
------------------------------------------
    1        0.829   0.657   9.924  11.411
    2        0.829   0.657   9.924  11.411
    3        0.336   0.323   9.376  10.035
    4        0.336   0.323   9.376  10.035
    5        1.457   2.423   0.039   3.919
    6        1.457   2.423   0.039   3.919
    7        1.457   2.423   0.039   3.919
    8        1.457   2.423   0.039   3.919
--------------------------------------------------
tot          8.159  11.652  38.756  58.567
 
 BZINTS: Fermi energy:    3.585140;   72.000000 electrons
         Band energy:-0.326013E+03;  BLOECHL correction:    0.000000

 total amount of memory used by VASP MPI-rank0    48151. kBytes
=======================================================================

   base      :      30000. kBytes
   nonl-proj :       6276. kBytes
   fftplans  :       1091. kBytes
   grid      :       1472. kBytes
   one-center:         15. kBytes
   HF        :         64. kBytes
   nonlr-proj:       1238. kBytes
   wavefun   :       1175. kBytes
   fock_wrk  :       6820. kBytes
 
  
  
 General timing and accounting informations for this job:
 ========================================================
  
                  Total CPU time used (sec):      624.712
                            User time (sec):      621.340
                          System time (sec):        3.372
                         Elapsed time (sec):      634.737
  
                   Maximum memory used (kb):      320180.
                   Average memory used (kb):          N/A
  
                          Minor page faults:        96341
                          Major page faults:            0
                 Voluntary context switches:        12679
