<?xml version="1.0" encoding="ISO-8859-1"?>
<modeling>
 <generator>
  <i name="program" type="string">vasp </i>
  <i name="version" type="string">6.4.2  </i>
  <i name="subversion" type="string">20Jul23 (build Mar 15 2024 16:31:38) complex                          parallel </i>
  <i name="platform" type="string">LinuxIFC </i>
  <i name="date" type="string">2025 03 24 </i>
  <i name="time" type="string">15:54:45 </i>
 </generator>
 <incar>
  <i type="string" name="PREC">Accurate</i>
  <i type="string" name="ALGO">Normal</i>
  <i type="int" name="ISPIN">     1</i>
  <i type="int" name="NELM">   200</i>
  <i type="int" name="NELMIN">     5</i>
  <i name="EDIFF">      0.00001000</i>
  <i type="int" name="NSW">     0</i>
  <i name="ENCUT">    680.00000000</i>
  <i name="ENAUG">   1360.00000000</i>
  <i type="int" name="NBANDS">    58</i>
  <i type="int" name="NEDOS">  1282</i>
  <i type="logical" name="LREAL"> F  </i>
  <i type="int" name="ISMEAR">    -5</i>
  <i name="SIGMA">      0.05000000</i>
  <i type="int" name="LMAXMIX">     4</i>
  <i type="logical" name="LWAVE"> T  </i>
  <i type="logical" name="LCHARG"> T  </i>
  <i type="logical" name="LVTOT"> T  </i>
  <i type="int" name="LORBIT">    11</i>
  <i type="logical" name="LELF"> F  </i>
  <i type="logical" name="LOPTICS"> T  </i>
  <i type="logical" name="LASPH"> T  </i>
  <i type="logical" name="LAECHG"> T  </i>
  <i name="CSHIFT">      0.00001000</i>
  <i name="HFSCREEN">      0.20000000</i>
  <i type="logical" name="LHFCALC"> T  </i>
  <i type="string" name="GGA">Pe</i>
  <i type="string" name="PRECFOCK">Fast</i>
  <i type="logical" name="LDAU"> F  </i>
  <i type="logical" name="LMIXTAU"> T  </i>
 </incar>
 <primitive_cell>
  <structure name="primitive_cell" >
   <crystal>
    <varray name="basis" >
     <v>       5.30291920       0.00000000      -2.36402939 </v>
     <v>      -1.05387957       5.19714218      -2.36402972 </v>
     <v>       0.00000000       0.00000000       7.12968660 </v>
    </varray>
    <i name="volume">    196.49434127 </i>
    <varray name="rec_basis" >
     <v>       0.18857538       0.03823943       0.00000000 </v>
     <v>       0.00000000       0.19241344       0.00000000 </v>
     <v>       0.06252698       0.07647885       0.14025862 </v>
    </varray>
   </crystal>
   <varray name="positions" >
    <v>       0.50000000       0.50000000       1.00000000 </v>
    <v>       0.75000000       0.25000000       0.50000000 </v>
    <v>       0.00000000       0.00000000       0.00000000 </v>
    <v>       0.25000000       0.75000000       0.50000000 </v>
    <v>       0.34516103       0.37500000       0.25000000 </v>
    <v>       0.90483897       0.87500000       0.25000000 </v>
    <v>       0.12500000       0.65483897       0.75000000 </v>
    <v>       0.62500000       0.09516103       0.75000000 </v>
   </varray>
  </structure>
  <varray name="primitive_index" >
   <v type="int" >        1 </v>
   <v type="int" >        2 </v>
   <v type="int" >        3 </v>
   <v type="int" >        4 </v>
   <v type="int" >        5 </v>
   <v type="int" >        6 </v>
   <v type="int" >        7 </v>
   <v type="int" >        8 </v>
  </varray>
 </primitive_cell>
 <kpoints>
  <generation param="Gamma">
   <v type="int" name="divisions">       4        4        3 </v>
   <v name="usershift">      0.00000000       0.00000000       0.00000000 </v>
   <v name="genvec1">      0.25000000      -0.00000000       0.00000000 </v>
   <v name="genvec2">      0.00000000       0.25000000       0.00000000 </v>
   <v name="genvec3">      0.00000000      -0.00000000       0.33333333 </v>
   <v name="shift">      0.00000000       0.00000000       0.00000000 </v>
  </generation>
  <varray name="kpointlist" >
   <v>       0.00000000       0.00000000       0.00000000 </v>
   <v>       0.25000000      -0.00000000       0.00000000 </v>
   <v>       0.50000000      -0.00000000       0.00000000 </v>
   <v>       0.25000000       0.25000000       0.00000000 </v>
   <v>       0.50000000       0.25000000       0.00000000 </v>
   <v>      -0.25000000       0.25000000       0.00000000 </v>
   <v>       0.50000000       0.50000000       0.00000000 </v>
   <v>       0.00000000       0.00000000       0.33333333 </v>
   <v>       0.25000000      -0.00000000       0.33333333 </v>
   <v>       0.50000000       0.00000000       0.33333333 </v>
   <v>      -0.25000000       0.00000000       0.33333333 </v>
   <v>       0.25000000       0.25000000       0.33333333 </v>
   <v>       0.50000000       0.25000000       0.33333333 </v>
   <v>      -0.25000000       0.25000000       0.33333333 </v>
   <v>       0.50000000       0.50000000       0.33333333 </v>
   <v>      -0.25000000       0.50000000       0.33333333 </v>
   <v>      -0.25000000      -0.25000000       0.33333333 </v>
  </varray>
  <varray name="weights" >
   <v>       0.02083333 </v>
   <v>       0.08333333 </v>
   <v>       0.04166667 </v>
   <v>       0.04166667 </v>
   <v>       0.08333333 </v>
   <v>       0.04166667 </v>
   <v>       0.02083333 </v>
   <v>       0.04166667 </v>
   <v>       0.08333333 </v>
   <v>       0.08333333 </v>
   <v>       0.08333333 </v>
   <v>       0.04166667 </v>
   <v>       0.08333333 </v>
   <v>       0.08333333 </v>
   <v>       0.04166667 </v>
   <v>       0.08333333 </v>
   <v>       0.04166667 </v>
  </varray>
  <varray name="tetrahedronlist"  type="int" >
   <v type="int" >        4        9       10       14       14 </v>
   <v type="int" >        4       10       14       14       16 </v>
   <v type="int" >        4       10       13       14       16 </v>
   <v type="int" >        4        9       10       11       14 </v>
   <v type="int" >        4       10       10       11       14 </v>
   <v type="int" >        4       10       10       13       14 </v>
   <v type="int" >        4       10       11       13       16 </v>
   <v type="int" >        4       11       13       16       17 </v>
   <v type="int" >        4       11       12       13       17 </v>
   <v type="int" >        4       10       10       11       13 </v>
   <v type="int" >        4        9       10       11       13 </v>
   <v type="int" >        4        9       11       12       13 </v>
   <v type="int" >        4        8       11       12       17 </v>
   <v type="int" >        4        8        9       11       12 </v>
   <v type="int" >        4        8        8        9       12 </v>
   <v type="int" >        4        8        9        9       11 </v>
   <v type="int" >        4        9        9       11       14 </v>
   <v type="int" >        2        9        9       14       14 </v>
   <v type="int" >        2        8        8        9        9 </v>
   <v type="int" >        4        5       13       14       16 </v>
   <v type="int" >        4        5       13       15       16 </v>
   <v type="int" >        4        5        7       13       15 </v>
   <v type="int" >        4        5        6       13       14 </v>
   <v type="int" >        4        5        5        6       13 </v>
   <v type="int" >        4        5        5        7       13 </v>
   <v type="int" >        4        7       12       13       15 </v>
   <v type="int" >        4        5        7       12       13 </v>
   <v type="int" >        4        4        5        7       12 </v>
   <v type="int" >        4        5        9       12       13 </v>
   <v type="int" >        4        5        9       10       13 </v>
   <v type="int" >        4        3        5        9       10 </v>
   <v type="int" >        4        4        5        9       12 </v>
   <v type="int" >        4        2        4        5        9 </v>
   <v type="int" >        4        2        3        5        9 </v>
   <v type="int" >        4        3        9       10       14 </v>
   <v type="int" >        4        3       10       14       16 </v>
   <v type="int" >        4        3        5       14       16 </v>
   <v type="int" >        4        2        3        9       14 </v>
   <v type="int" >        4        2        3        6       14 </v>
   <v type="int" >        4        3        5        6       14 </v>
   <v type="int" >        4        6       10       11       14 </v>
   <v type="int" >        4        6       10       13       14 </v>
   <v type="int" >        4        5        6       10       13 </v>
   <v type="int" >        4        2        6       10       11 </v>
   <v type="int" >        4        2        3        6       10 </v>
   <v type="int" >        4        3        5        6       10 </v>
   <v type="int" >        4        4        8        9       12 </v>
   <v type="int" >        4        2        4        8        9 </v>
   <v type="int" >        4        1        2        4        8 </v>
   <v type="int" >        4        2        8        9       11 </v>
   <v type="int" >        4        2        9       11       14 </v>
   <v type="int" >        4        2        6       11       14 </v>
   <v type="int" >        4        1        2        8       11 </v>
   <v type="int" >        4        1        2        2       11 </v>
   <v type="int" >        4        2        2        6       11 </v>
   <v type="int" >        4        4        5        7       15 </v>
   <v type="int" >        4        4        5       15       16 </v>
   <v type="int" >        4        4       15       16       17 </v>
   <v type="int" >        4        2        4        5       16 </v>
   <v type="int" >        4        2        3        5       16 </v>
   <v type="int" >        4        2        3       10       16 </v>
   <v type="int" >        4        2        4       16       17 </v>
   <v type="int" >        4        2       11       16       17 </v>
   <v type="int" >        4        2       10       11       16 </v>
   <v type="int" >        4       12       13       15       17 </v>
   <v type="int" >        4       13       15       16       17 </v>
   <v type="int" >        4       15       15       16       17 </v>
   <v type="int" >        4       13       15       16       16 </v>
   <v type="int" >        4       13       14       16       16 </v>
   <v type="int" >        2       14       14       16       16 </v>
   <v type="int" >        2       15       15       16       16 </v>
   <v type="int" >        4        1        8       11       17 </v>
   <v type="int" >        4        1        2       11       17 </v>
   <v type="int" >        4        1        2        4       17 </v>
  </varray>
  <i name="volumeweight">      0.00347222 </i>
 </kpoints>
 <parameters>
  <separator name="general" >
   <i type="string" name="SYSTEM">unknown system</i>
   <i type="logical" name="LCOMPAT"> F  </i>
  </separator>
  <separator name="electronic" >
   <i type="string" name="PREC">accura</i>
   <i name="ENMAX">    680.00000000</i>
   <i name="ENAUG">   1360.00000000</i>
   <i name="EDIFF">      0.00001000</i>
   <i type="int" name="IALGO">    38</i>
   <i type="int" name="IWAVPR">    10</i>
   <i type="int" name="NBANDS">    60</i>
   <i type="int" name="NBANDSLOW">    -1</i>
   <i type="int" name="NBANDSHIGH">    -1</i>
   <i name="NELECT">     72.00000000</i>
   <i type="int" name="TURBO">     0</i>
   <i type="int" name="IRESTART">     0</i>
   <i type="int" name="NREBOOT">     0</i>
   <i type="int" name="NMIN">     0</i>
   <i name="EREF">      0.00000000</i>
   <separator name="electronic smearing" >
    <i type="int" name="ISMEAR">    -5</i>
    <i name="SIGMA">      0.05000000</i>
    <i name="KSPACING">      0.50000000</i>
    <i type="logical" name="KGAMMA"> T  </i>
    <i type="logical" name="KBLOWUP"> F  </i>
   </separator>
   <separator name="electronic projectors" >
    <i type="logical" name="LREAL"> F  </i>
    <v name="ROPT">      0.00000000      0.00000000      0.00000000</v>
    <i type="int" name="LMAXPAW">  -100</i>
    <i type="int" name="LMAXMIX">     4</i>
    <i type="logical" name="NLSPLINE"> F  </i>
   </separator>
   <separator name="electronic startup" >
    <i type="int" name="ISTART">     0</i>
    <i type="int" name="ICHARG">     2</i>
    <i type="int" name="INIWAV">     1</i>
   </separator>
   <separator name="electronic spin" >
    <i type="int" name="ISPIN">     1</i>
    <i type="logical" name="LNONCOLLINEAR"> F  </i>
    <v name="MAGMOM">      1.00000000      1.00000000      1.00000000      1.00000000      1.00000000      1.00000000      1.00000000      1.00000000</v>
    <i name="NUPDOWN">     -1.00000000</i>
    <i type="logical" name="LSORBIT"> F  </i>
    <v name="SAXIS">      0.00000000      0.00000000      1.00000000</v>
    <i type="logical" name="LSPIRAL"> F  </i>
    <v name="QSPIRAL">      0.00000000      0.00000000      0.00000000</v>
    <i type="logical" name="LZEROZ"> F  </i>
   </separator>
   <separator name="electronic exchange-correlation" >
    <i type="logical" name="LASPH"> T  </i>
    <i type="logical" name="LMETAGGA"> F  </i>
   </separator>
   <separator name="electronic convergence" >
    <i type="int" name="NELM">   200</i>
    <i type="int" name="NELMDL">     0</i>
    <i type="int" name="NELMIN">     5</i>
    <i name="ENINI">    680.00000000</i>
    <separator name="electronic convergence detail" >
     <i type="logical" name="LDIAG"> T  </i>
     <i type="logical" name="LSUBROT"> F  </i>
     <i name="WEIMIN">      0.00000000</i>
     <i name="EBREAK">      0.00000004</i>
     <i name="DEPER">      0.30000000</i>
     <i type="int" name="NRMM">     4</i>
     <i name="TIME">      0.40000000</i>
    </separator>
   </separator>
   <separator name="electronic mixer" >
    <i name="AMIX">      0.40000000</i>
    <i name="BMIX">      1.00000000</i>
    <i name="AMIN">      0.10000000</i>
    <i name="AMIX_MAG">      1.60000000</i>
    <i name="BMIX_MAG">      1.00000000</i>
    <separator name="electronic mixer details" >
     <i type="int" name="IMIX">     1</i>
     <i type="logical" name="MIXFIRST"> F  </i>
     <i type="int" name="MAXMIX">   -45</i>
     <i name="WC">    100.00000000</i>
     <i type="int" name="INIMIX">     1</i>
     <i type="int" name="MIXPRE">     1</i>
     <i type="int" name="MREMOVE">     5</i>
    </separator>
   </separator>
   <separator name="electronic dipolcorrection" >
    <i type="logical" name="LDIPOL"> F  </i>
    <i type="logical" name="LMONO"> F  </i>
    <i type="int" name="IDIPOL">     0</i>
    <i name="EPSILON">      1.00000000</i>
    <v name="DIPOL">   -100.00000000   -100.00000000   -100.00000000</v>
    <i name="EFIELD">      0.00000000</i>
   </separator>
  </separator>
  <separator name="grids" >
   <i type="int" name="NGX">    50</i>
   <i type="int" name="NGY">    50</i>
   <i type="int" name="NGZ">    64</i>
   <i type="int" name="NGXF">   100</i>
   <i type="int" name="NGYF">   100</i>
   <i type="int" name="NGZF">   128</i>
   <i type="logical" name="ADDGRID"> F  </i>
  </separator>
  <separator name="ionic" >
   <i type="int" name="NSW">     0</i>
   <i type="int" name="IBRION">    -1</i>
   <i type="int" name="MDALGO">     0</i>
   <i type="int" name="ISIF">     0</i>
   <i name="PSTRESS">      0.00000000</i>
   <i name="EDIFFG">      0.00010000</i>
   <i type="int" name="NFREE">     0</i>
   <i name="POTIM">      0.50000000</i>
   <i name="SMASS">     -3.00000000</i>
   <i name="SCALEE">      1.00000000</i>
  </separator>
  <separator name="ionic md" >
   <i name="TEBEG">      0.00010000</i>
   <i name="TEEND">      0.00010000</i>
   <i type="int" name="NBLOCK">     1</i>
   <i type="int" name="KBLOCK">     1</i>
   <i type="int" name="NPACO">   256</i>
   <i name="APACO">     10.00000000</i>
  </separator>
  <separator name="symmetry" >
   <i type="int" name="ISYM">     3</i>
   <i name="SYMPREC">      0.00001000</i>
  </separator>
  <separator name="dos" >
   <i type="int" name="LORBIT">    11</i>
   <v name="RWIGS">     -1.00000000     -1.00000000     -1.00000000</v>
   <i type="int" name="NEDOS">  1282</i>
   <i name="EMIN">     10.00000000</i>
   <i name="EMAX">    -10.00000000</i>
   <i name="EFERMI">      0.00000000</i>
  </separator>
  <separator name="writing" >
   <i type="int" name="NWRITE">     2</i>
   <i type="logical" name="LWAVE"> T  </i>
   <i type="logical" name="LDOWNSAMPLE"> F  </i>
   <i type="logical" name="LCHARG"> T  </i>
   <i type="logical" name="LPARD"> F  </i>
   <i type="logical" name="LVTOT"> T  </i>
   <i type="logical" name="LVHAR"> F  </i>
   <i type="logical" name="LELF"> F  </i>
   <i type="logical" name="LOPTICS"> T  </i>
   <v name="STM">      0.00000000      0.00000000      0.00000000      0.00000000      0.00000000      0.00000000      0.00000000</v>
  </separator>
  <separator name="performance" >
   <i type="int" name="NPAR">    12</i>
   <i type="int" name="NSIM">     4</i>
   <i type="int" name="NBLK">    -1</i>
   <i type="logical" name="LPLANE"> T  </i>
   <i type="logical" name="LSCALAPACK"> T  </i>
   <i type="logical" name="LSCAAWARE"> F  </i>
   <i type="logical" name="LSCALU"> F  </i>
   <i type="logical" name="LASYNC"> F  </i>
   <i type="logical" name="LORBITALREAL"> F  </i>
  </separator>
  <separator name="miscellaneous" >
   <i type="int" name="IDIOT">     3</i>
   <i type="int" name="PHON_NSTRUCT">    -1</i>
   <i type="logical" name="LMUSIC"> F  </i>
   <v name="POMASS">    114.82000000     63.54600000     78.96000000</v>
   <v name="DARWINR">      0.00000000      0.00000000      0.00000000</v>
   <v name="DARWINV">      1.00000000      1.00000000      1.00000000</v>
   <i type="logical" name="LCORR"> T  </i>
  </separator>
  <i type="logical" name="GGA_COMPAT"> T  </i>
  <i type="logical" name="LBERRY"> F  </i>
  <i type="int" name="ICORELEVEL">     0</i>
  <i type="logical" name="LDAU"> F  </i>
  <i type="int" name="I_CONSTRAINED_M">     0</i>
  <separator name="electronic exchange-correlation" >
   <i type="string" name="GGA">PE</i>
   <i type="int" name="VOSKOWN">     0</i>
   <i type="logical" name="LHFCALC"> T  </i>
   <i type="string" name="PRECFOCK">fast</i>
   <i type="logical" name="LSYMGRAD"> F  </i>
   <i type="logical" name="LHFONE"> F  </i>
   <i type="logical" name="LRHFCALC"> F  </i>
   <i type="logical" name="LTHOMAS"> F  </i>
   <i type="logical" name="LMODELHF"> F  </i>
   <i type="logical" name="LFOCKACE"> T  </i>
   <i name="ENCUT4O">     -1.00000000</i>
   <i type="int" name="EXXOEP">     0</i>
   <i type="int" name="FOURORBIT">     0</i>
   <i name="AEXX">      0.25000000</i>
   <i name="HFALPHA">     -1.00000000</i>
   <i name="MCALPHA">      0.00000000</i>
   <i name="ALDAX">      0.75000000</i>
   <i name="AGGAX">      0.75000000</i>
   <i name="ALDAC">      1.00000000</i>
   <i name="AGGAC">      1.00000000</i>
   <i type="int" name="NKREDX">     1</i>
   <i type="int" name="NKREDY">     1</i>
   <i type="int" name="NKREDZ">     1</i>
   <i type="logical" name="SHIFTRED"> F  </i>
   <i type="logical" name="ODDONLY"> F  </i>
   <i type="logical" name="EVENONLY"> F  </i>
   <i type="int" name="LMAXFOCK">     4</i>
   <i type="int" name="NMAXFOCKAE">     1</i>
   <i type="logical" name="LFOCKAEDFT"> F  </i>
   <i name="HFSCREEN">      0.20000000</i>
   <i name="HFSCREENC">      0.20000000</i>
   <i type="int" name="NBANDSGWLOW">     1</i>
  </separator>
  <separator name="vdW DFT" >
   <i type="logical" name="LUSE_VDW"> F  </i>
   <i type="int" name="IVDW_NL">     1</i>
   <i type="logical" name="LSPIN_VDW"> F  </i>
   <i name="Zab_VDW">     -0.84910000</i>
   <i name="PARAM1">      0.12340000</i>
   <i name="PARAM2">      1.00000000</i>
   <i name="PARAM3">      0.00000000</i>
  </separator>
  <separator name="model GW" >
   <i type="int" name="MODEL_GW">     0</i>
   <i name="MODEL_EPS0">     14.73707560</i>
   <i name="MODEL_ALPHA">      1.00000000</i>
  </separator>
  <separator name="linear response parameters" >
   <i type="logical" name="LEPSILON"> F  </i>
   <i type="logical" name="LRPA"> F  </i>
   <i type="logical" name="LNABLA"> F  </i>
   <i type="logical" name="LVEL"> F  </i>
   <i name="CSHIFT">      0.00001000</i>
   <i name="OMEGAMAX">     -1.00000000</i>
   <i name="DEG_THRESHOLD">      0.00200000</i>
   <i name="RTIME">     -0.10000000</i>
   <i name="WPLASMAI">      0.00000000</i>
   <v name="DFIELD">      0.00000000      0.00000000      0.00000000</v>
   <v name="WPLASMA">      0.00000000      0.00000000      0.00000000      0.00000000      0.00000000      0.00000000      0.00000000      0.00000000      0.00000000</v>
  </separator>
  <separator name="orbital magnetization" >
   <i type="logical" name="NUCIND"> F  </i>
   <v name="MAGPOS">      0.00000000      0.00000000      0.00000000</v>
   <i type="logical" name="LNICSALL"> T  </i>
   <i type="logical" name="ORBITALMAG"> F  </i>
   <i type="logical" name="LMAGBLOCH"> F  </i>
   <i type="logical" name="LCHIMAG"> F  </i>
   <i type="logical" name="LGAUGE"> T  </i>
   <i type="int" name="MAGATOM">     0</i>
   <v name="MAGDIPOL">      0.00000000      0.00000000      0.00000000</v>
   <v name="AVECCONST">      0.00000000      0.00000000      0.00000000</v>
  </separator>
  <separator name="response functions" >
   <i type="logical" name="LALL_IN_ONE"> F  </i>
   <i type="int" name="IALL_IN_ONE">    -1</i>
   <i type="int" name="NBANDS_WAVE">    -1</i>
   <i type="logical" name="LFINITE_TEMPERATURE"> F  </i>
   <i type="logical" name="LADDER"> F  </i>
   <i type="logical" name="LRPAFORCE"> F  </i>
   <i type="logical" name="LFXC"> F  </i>
   <i type="logical" name="LHARTREE"> T  </i>
   <i type="int" name="IBSE">     0</i>
   <v type="int" name="KPOINT">    -1     0     0     0</v>
   <i type="logical" name="LTCTC"> F  </i>
   <i type="logical" name="LTCTE"> F  </i>
   <i type="logical" name="LTETE"> F  </i>
   <i type="logical" name="LTRIPLET"> F  </i>
   <i type="logical" name="LFXCEPS"> F  </i>
   <i type="logical" name="LFXHEG"> F  </i>
   <i type="int" name="NATURALO">     2</i>
   <i type="logical" name="LHOLEGF"> F  </i>
   <i type="logical" name="L2ORDER"> F  </i>
   <i type="logical" name="LDMP1"> F  </i>
   <i type="logical" name="LMP2LT"> F  </i>
   <i type="logical" name="LSMP2LT"> F  </i>
   <i type="logical" name="LGWLF"> F  </i>
   <i name="ENCUTGW">     -1.60000002</i>
   <i name="ENCUTGWSOFT">     -1.60000002</i>
   <i name="ENCUTLF">     -1.00000000</i>
   <i type="logical" name="LESF_SPLINES"> F  </i>
   <i type="int" name="LMAXMP2">    -1</i>
   <i name="SCISSOR">      0.00000000</i>
   <i type="int" name="NOMEGA">     0</i>
   <i type="int" name="NOMEGAR">     0</i>
   <i type="int" name="NBANDSGW">    -1</i>
   <i type="int" name="NBANDSO">    -1</i>
   <i type="int" name="NBANDSV">    -1</i>
   <i type="int" name="NELMGW">     1</i>
   <i type="int" name="NELMHF">     1</i>
   <i type="int" name="DIM">     3</i>
   <i type="int" name="IESPILON">     4</i>
   <i type="int" name="ANTIRES">     0</i>
   <i name="OMEGAMAX">    -30.00000000</i>
   <i name="OMEGAMIN">    -30.00000000</i>
   <i name="OMEGATL">   -200.00000000</i>
   <i type="int" name="OMEGAGRID">     0</i>
   <i name="CSHIFT">      0.00001000</i>
   <i type="logical" name="LSELFENERGY"> F  </i>
   <i type="logical" name="LSPECTRAL"> F  </i>
   <i type="logical" name="LSPECTRALGW"> F  </i>
   <i type="logical" name="LSINGLES"> F  </i>
   <i type="logical" name="LFERMIGW"> F  </i>
   <i type="logical" name="ODDONLYGW"> F  </i>
   <i type="logical" name="EVENONLYGW"> F  </i>
   <i type="int" name="NKREDLFX">     1</i>
   <i type="int" name="NKREDLFY">     1</i>
   <i type="int" name="NKREDLFZ">     1</i>
   <i type="int" name="MAXMEM">  2800</i>
   <i type="int" name="TELESCOPE">     0</i>
   <i type="int" name="NTAUPAR">    -1</i>
   <i type="int" name="NOMEGAPAR">    -1</i>
   <i name="DAMP_NEWTON">      0.80000001</i>
   <i name="LAMBDA">      1.00000000</i>
  </separator>
  <separator name="External order field" >
   <i name="OFIELD_KAPPA">      0.00000000</i>
   <v name="OFIELD_K">      0.00000000      0.00000000      0.00000000</v>
   <i name="OFIELD_Q6_NEAR">      0.00000000</i>
   <i name="OFIELD_Q6_FAR">      0.00000000</i>
   <i name="OFIELD_A">      0.00000000</i>
  </separator>
  <separator name="optional k-points parameters" >
   <i type="int" name="KPOINTS_OPT_MODE">     1</i>
   <i type="logical" name="LKPOINTS_OPT"> F  </i>
  </separator>
 </parameters>
 <atominfo>
  <atoms>       8 </atoms>
  <types>       3 </types>
  <array name="atoms" >
   <dimension dim="1">ion</dimension>
   <field type="string">element</field>
   <field type="int">atomtype</field>
   <set>
    <rc><c>In</c><c>   1</c></rc>
    <rc><c>In</c><c>   1</c></rc>
    <rc><c>Cu</c><c>   2</c></rc>
    <rc><c>Cu</c><c>   2</c></rc>
    <rc><c>Se</c><c>   3</c></rc>
    <rc><c>Se</c><c>   3</c></rc>
    <rc><c>Se</c><c>   3</c></rc>
    <rc><c>Se</c><c>   3</c></rc>
   </set>
  </array>
  <array name="atomtypes" >
   <dimension dim="1">type</dimension>
   <field type="int">atomspertype</field>
   <field type="string">element</field>
   <field>mass</field>
   <field>valence</field>
   <field type="string">pseudopotential</field>
   <set>
    <rc><c>   2</c><c>In</c><c>    114.82000000</c><c>     13.00000000</c><c>  PAW_PBE In_d 06Sep2000                </c></rc>
    <rc><c>   2</c><c>Cu</c><c>     63.54600000</c><c>     11.00000000</c><c>  PAW_PBE Cu 22Jun2005                  </c></rc>
    <rc><c>   4</c><c>Se</c><c>     78.96000000</c><c>      6.00000000</c><c>  PAW_PBE Se 06Sep2000                  </c></rc>
   </set>
  </array>
 </atominfo>
 <structure name="initialpos" >
  <crystal>
   <varray name="basis" >
    <v>       5.30291920       0.00000000      -2.36402939 </v>
    <v>      -1.05387957       5.19714218      -2.36402972 </v>
    <v>       0.00000000       0.00000000       7.12968660 </v>
   </varray>
   <i name="volume">    196.49434127 </i>
   <varray name="rec_basis" >
    <v>       0.18857538       0.03823943       0.00000000 </v>
    <v>       0.00000000       0.19241344       0.00000000 </v>
    <v>       0.06252698       0.07647885       0.14025862 </v>
   </varray>
  </crystal>
  <varray name="positions" >
   <v>       0.50000000       0.50000000       0.00000000 </v>
   <v>       0.75000000       0.25000000       0.50000000 </v>
   <v>       0.00000000       0.00000000       0.00000000 </v>
   <v>       0.25000000       0.75000000       0.50000000 </v>
   <v>       0.34516103       0.37500000       0.25000000 </v>
   <v>       0.90483897       0.87500000       0.25000000 </v>
   <v>       0.12500000       0.65483897       0.75000000 </v>
   <v>       0.62500000       0.09516103       0.75000000 </v>
  </varray>
 </structure>
 <calculation>
  <scstep>
   <time name="dav">    0.63    1.84</time>
   <time name="total">    0.79    2.18</time>
   <energy>
    <i name="alphaZ">    185.64929911 </i>
    <i name="ewald">  -4678.36476469 </i>
    <i name="hartreedc">  -2345.03363423 </i>
    <i name="XCdc">    171.93044184 </i>
    <i name="pawpsdc">   6059.49561051 </i>
    <i name="pawaedc"> -11108.65884479 </i>
    <i name="eentropy">      0.00000000 </i>
    <i name="bandstr">    417.17934714 </i>
    <i name="atom">   6950.95472638 </i>
    <i name="e_fr_energy">  -4346.84781873 </i>
    <i name="e_wo_entrp">  -4346.84781873 </i>
    <i name="e_0_energy">  -4346.84781873 </i>
   </energy>
  </scstep>
  <scstep>
   <time name="dav">    0.42    0.43</time>
   <time name="total">    0.43    0.44</time>
   <energy>
    <i name="e_fr_energy">  -5007.95003557 </i>
    <i name="e_wo_entrp">  -5007.95003557 </i>
    <i name="e_0_energy">  -5007.95003557 </i>
   </energy>
  </scstep>
  <scstep>
   <time name="dav">    0.47    0.52</time>
   <time name="total">    0.48    0.53</time>
   <energy>
    <i name="e_fr_energy">  -5128.98593394 </i>
    <i name="e_wo_entrp">  -5128.98593394 </i>
    <i name="e_0_energy">  -5128.98593394 </i>
   </energy>
  </scstep>
  <scstep>
   <time name="dav">    0.52    0.54</time>
   <time name="total">    0.52    0.54</time>
   <energy>
    <i name="e_fr_energy">  -5136.10077795 </i>
    <i name="e_wo_entrp">  -5136.10077795 </i>
    <i name="e_0_energy">  -5136.10077795 </i>
   </energy>
  </scstep>
  <scstep>
   <time name="dav">   29.47   29.68</time>
   <time name="total">   29.93   30.19</time>
   <energy>
    <i name="e_fr_energy">    -36.34664768 </i>
    <i name="e_wo_entrp">    -36.34664768 </i>
    <i name="e_0_energy">    -36.34664768 </i>
   </energy>
  </scstep>
  <scstep>
   <time name="dav">   30.18   30.26</time>
   <time name="total">   30.59   30.69</time>
   <energy>
    <i name="e_fr_energy">    -35.75645847 </i>
    <i name="e_wo_entrp">    -35.75645847 </i>
    <i name="e_0_energy">    -35.75645847 </i>
   </energy>
  </scstep>
  <scstep>
   <time name="dav">   29.25   29.33</time>
   <time name="total">   29.68   29.76</time>
   <energy>
    <i name="e_fr_energy">    -35.68350921 </i>
    <i name="e_wo_entrp">    -35.68350921 </i>
    <i name="e_0_energy">    -35.68350921 </i>
   </energy>
  </scstep>
  <scstep>
   <time name="dav">   28.54   28.62</time>
   <time name="total">   28.96   29.05</time>
   <energy>
    <i name="e_fr_energy">    -35.70335308 </i>
    <i name="e_wo_entrp">    -35.70335308 </i>
    <i name="e_0_energy">    -35.70335308 </i>
   </energy>
  </scstep>
  <scstep>
   <time name="dav">   29.80   29.88</time>
   <time name="total">   30.23   30.31</time>
   <energy>
    <i name="e_fr_energy">    -35.69148068 </i>
    <i name="e_wo_entrp">    -35.69148068 </i>
    <i name="e_0_energy">    -35.69148068 </i>
   </energy>
  </scstep>
  <scstep>
   <time name="dav">   29.99   30.07</time>
   <time name="total">   30.39   30.49</time>
   <energy>
    <i name="e_fr_energy">    -35.68730971 </i>
    <i name="e_wo_entrp">    -35.68730971 </i>
    <i name="e_0_energy">    -35.68730971 </i>
   </energy>
  </scstep>
  <scstep>
   <time name="dav">   29.16   29.24</time>
   <time name="total">   29.59   29.66</time>
   <energy>
    <i name="e_fr_energy">    -35.68689817 </i>
    <i name="e_wo_entrp">    -35.68689817 </i>
    <i name="e_0_energy">    -35.68689817 </i>
   </energy>
  </scstep>
  <scstep>
   <time name="dav">   28.41   28.49</time>
   <time name="total">   28.82   28.92</time>
   <energy>
    <i name="e_fr_energy">    -35.68688043 </i>
    <i name="e_wo_entrp">    -35.68688043 </i>
    <i name="e_0_energy">    -35.68688043 </i>
   </energy>
  </scstep>
  <scstep>
   <time name="dav">   29.71   29.78</time>
   <time name="total">   30.13   30.22</time>
   <energy>
    <i name="e_fr_energy">    -35.68694929 </i>
    <i name="e_wo_entrp">    -35.68694929 </i>
    <i name="e_0_energy">    -35.68694929 </i>
   </energy>
  </scstep>
  <scstep>
   <time name="dav">   29.95   30.02</time>
   <time name="total">   30.35   30.44</time>
   <energy>
    <i name="e_fr_energy">    -35.68701960 </i>
    <i name="e_wo_entrp">    -35.68701960 </i>
    <i name="e_0_energy">    -35.68701960 </i>
   </energy>
  </scstep>
  <scstep>
   <time name="dav">   29.30   29.37</time>
   <time name="total">   29.71   29.81</time>
   <energy>
    <i name="e_fr_energy">    -35.68706820 </i>
    <i name="e_wo_entrp">    -35.68706820 </i>
    <i name="e_0_energy">    -35.68706820 </i>
   </energy>
  </scstep>
  <scstep>
   <time name="dav">   28.43   28.50</time>
   <time name="total">   28.84   28.93</time>
   <energy>
    <i name="e_fr_energy">    -35.68709641 </i>
    <i name="e_wo_entrp">    -35.68709641 </i>
    <i name="e_0_energy">    -35.68709641 </i>
   </energy>
  </scstep>
  <scstep>
   <time name="dav">   29.49   29.57</time>
   <time name="total">   29.91   30.00</time>
   <energy>
    <i name="e_fr_energy">    -35.68711178 </i>
    <i name="e_wo_entrp">    -35.68711178 </i>
    <i name="e_0_energy">    -35.68711178 </i>
   </energy>
  </scstep>
  <scstep>
   <time name="dav">   29.91   29.98</time>
   <time name="total">   30.28   30.37</time>
   <energy>
    <i name="alphaZ">    185.64929911 </i>
    <i name="ewald">  -4678.36476469 </i>
    <i name="hartreedc">  -2332.97276185 </i>
    <i name="XCdc">    128.59691398 </i>
    <i name="pawpsdc">  10121.08934131 </i>
    <i name="pawaedc"> -10244.87853970 </i>
    <i name="eentropy">      0.00000000 </i>
    <i name="bandstr">   -326.01282264 </i>
    <i name="atom">   6950.95472638 </i>
    <i name="e_fr_energy">    -35.68712000 </i>
    <i name="e_wo_entrp">    -35.68712000 </i>
    <i name="e_0_energy">    -35.68712000 </i>
   </energy>
  </scstep>
  <structure>
   <crystal>
    <varray name="basis" >
     <v>       5.30291920       0.00000000      -2.36402939 </v>
     <v>      -1.05387957       5.19714218      -2.36402972 </v>
     <v>       0.00000000       0.00000000       7.12968660 </v>
    </varray>
    <i name="volume">    196.49434127 </i>
    <varray name="rec_basis" >
     <v>       0.18857538       0.03823943       0.00000000 </v>
     <v>       0.00000000       0.19241344       0.00000000 </v>
     <v>       0.06252698       0.07647885       0.14025862 </v>
    </varray>
   </crystal>
   <varray name="positions" >
    <v>       0.50000000       0.50000000       0.00000000 </v>
    <v>       0.75000000       0.25000000       0.50000000 </v>
    <v>       0.00000000       0.00000000       0.00000000 </v>
    <v>       0.25000000       0.75000000       0.50000000 </v>
    <v>       0.34516103       0.37500000       0.25000000 </v>
    <v>       0.90483897       0.87500000       0.25000000 </v>
    <v>       0.12500000       0.65483897       0.75000000 </v>
    <v>       0.62500000       0.09516103       0.75000000 </v>
   </varray>
  </structure>
  <varray name="forces" >
   <v>      -0.00000000       0.00000000      -0.00000000 </v>
   <v>      -0.00000000       0.00000000      -0.00000000 </v>
   <v>      -0.00000000       0.00000000      -0.00000000 </v>
   <v>      -0.00000000       0.00000000      -0.00000000 </v>
   <v>       0.30535342       0.00000000      -0.13612587 </v>
   <v>      -0.30535342       0.00000000       0.13612587 </v>
   <v>       0.06068464      -0.29926256       0.13612588 </v>
   <v>      -0.06068464       0.29926256      -0.13612588 </v>
  </varray>
  <energy>
   <i name="e_fr_energy">    -35.68712000 </i>
   <i name="e_wo_entrp">    -35.68712000 </i>
   <i name="e_0_energy">    -35.68712000 </i>
  </energy>
  <time name="totalsc">  442.12  445.12</time>
  <eigenvalues>
   <array>
    <dimension dim="1">band</dimension>
    <dimension dim="2">kpoint</dimension>
    <dimension dim="3">spin</dimension>
    <field>eigene</field>
    <field>occ</field>
    <set>
     <set comment="spin 1">
      <set comment="kpoint 1">
       <r>  -13.1862    1.0000 </r>
       <r>  -13.1737    1.0000 </r>
       <r>  -13.1736    1.0000 </r>
       <r>  -12.9743    1.0000 </r>
       <r>  -12.9550    1.0000 </r>
       <r>  -12.9550    1.0000 </r>
       <r>  -12.8875    1.0000 </r>
       <r>  -12.8831    1.0000 </r>
       <r>  -12.8675    1.0000 </r>
       <r>  -12.8627    1.0000 </r>
       <r>  -11.5576    1.0000 </r>
       <r>  -10.0929    1.0000 </r>
       <r>  -10.0752    1.0000 </r>
       <r>  -10.0752    1.0000 </r>
       <r>   -3.2813    1.0000 </r>
       <r>   -2.4678    1.0000 </r>
       <r>   -1.4770    1.0000 </r>
       <r>   -0.9135    1.0000 </r>
       <r>   -0.8379    1.0000 </r>
       <r>   -0.2990    1.0000 </r>
       <r>   -0.2989    1.0000 </r>
       <r>   -0.0569    1.0000 </r>
       <r>   -0.0568    1.0000 </r>
       <r>    0.0192    1.0000 </r>
       <r>    0.0193    1.0000 </r>
       <r>    0.0312    1.0000 </r>
       <r>    0.9209    1.0000 </r>
       <r>    0.9477    1.0000 </r>
       <r>    1.0132    1.0000 </r>
       <r>    1.3860    1.0000 </r>
       <r>    1.4726    1.0000 </r>
       <r>    1.4727    1.0000 </r>
       <r>    1.5690    1.0000 </r>
       <r>    3.5467    1.0000 </r>
       <r>    3.5623    1.0000 </r>
       <r>    3.5625    1.0000 </r>
       <r>    4.3258    0.0000 </r>
       <r>    6.3590    0.0000 </r>
       <r>    6.5231    0.0000 </r>
       <r>    8.4394    0.0000 </r>
       <r>    8.4395    0.0000 </r>
       <r>    9.1655    0.0000 </r>
       <r>    9.5292    0.0000 </r>
       <r>    9.5292    0.0000 </r>
       <r>    9.7736    0.0000 </r>
       <r>   10.0556    0.0000 </r>
       <r>   10.8199    0.0000 </r>
       <r>   10.8199    0.0000 </r>
       <r>   11.2566    0.0000 </r>
       <r>   11.3402    0.0000 </r>
       <r>   13.9673    0.0000 </r>
       <r>   14.3878    0.0000 </r>
       <r>   14.7139    0.0000 </r>
       <r>   14.8827    0.0000 </r>
       <r>   14.8827    0.0000 </r>
       <r>   15.1316    0.0000 </r>
       <r>   15.7691    0.0000 </r>
       <r>   16.1330    0.0000 </r>
       <r>   16.3376    0.0000 </r>
       <r>   16.3444    0.0000 </r>
      </set>
      <set comment="kpoint 2">
       <r>  -13.1896    1.0000 </r>
       <r>  -13.1823    1.0000 </r>
       <r>  -13.1613    1.0000 </r>
       <r>  -12.9931    1.0000 </r>
       <r>  -12.9687    1.0000 </r>
       <r>  -12.9496    1.0000 </r>
       <r>  -12.8882    1.0000 </r>
       <r>  -12.8777    1.0000 </r>
       <r>  -12.8706    1.0000 </r>
       <r>  -12.8607    1.0000 </r>
       <r>  -11.3282    1.0000 </r>
       <r>  -10.2427    1.0000 </r>
       <r>  -10.1719    1.0000 </r>
       <r>  -10.1100    1.0000 </r>
       <r>   -3.1010    1.0000 </r>
       <r>   -2.5376    1.0000 </r>
       <r>   -1.4984    1.0000 </r>
       <r>   -1.0127    1.0000 </r>
       <r>   -0.7307    1.0000 </r>
       <r>   -0.4141    1.0000 </r>
       <r>   -0.3893    1.0000 </r>
       <r>   -0.2530    1.0000 </r>
       <r>   -0.1319    1.0000 </r>
       <r>   -0.0028    1.0000 </r>
       <r>    0.1091    1.0000 </r>
       <r>    0.3620    1.0000 </r>
       <r>    0.9961    1.0000 </r>
       <r>    1.0920    1.0000 </r>
       <r>    1.1807    1.0000 </r>
       <r>    1.3016    1.0000 </r>
       <r>    1.4483    1.0000 </r>
       <r>    1.7406    1.0000 </r>
       <r>    1.7727    1.0000 </r>
       <r>    2.3650    1.0000 </r>
       <r>    3.0364    1.0000 </r>
       <r>    3.3055    1.0000 </r>
       <r>    5.7050    0.0000 </r>
       <r>    6.8481    0.0000 </r>
       <r>    7.2662    0.0000 </r>
       <r>    7.7651    0.0000 </r>
       <r>    8.0538    0.0000 </r>
       <r>    9.0084    0.0000 </r>
       <r>    9.4914    0.0000 </r>
       <r>    9.6239    0.0000 </r>
       <r>    9.7311    0.0000 </r>
       <r>   10.2824    0.0000 </r>
       <r>   10.8367    0.0000 </r>
       <r>   11.5106    0.0000 </r>
       <r>   11.9345    0.0000 </r>
       <r>   12.4658    0.0000 </r>
       <r>   12.9306    0.0000 </r>
       <r>   13.3937    0.0000 </r>
       <r>   13.7812    0.0000 </r>
       <r>   13.8600    0.0000 </r>
       <r>   14.0263    0.0000 </r>
       <r>   14.5083    0.0000 </r>
       <r>   14.8195    0.0000 </r>
       <r>   15.3465    0.0000 </r>
       <r>   15.5466    0.0000 </r>
       <r>   16.2623    0.0000 </r>
      </set>
      <set comment="kpoint 3">
       <r>  -13.1984    1.0000 </r>
       <r>  -13.1874    1.0000 </r>
       <r>  -13.1412    1.0000 </r>
       <r>  -13.0232    1.0000 </r>
       <r>  -12.9726    1.0000 </r>
       <r>  -12.9457    1.0000 </r>
       <r>  -12.8849    1.0000 </r>
       <r>  -12.8814    1.0000 </r>
       <r>  -12.8642    1.0000 </r>
       <r>  -12.8635    1.0000 </r>
       <r>  -10.8732    1.0000 </r>
       <r>  -10.6634    1.0000 </r>
       <r>  -10.2370    1.0000 </r>
       <r>  -10.1392    1.0000 </r>
       <r>   -2.8722    1.0000 </r>
       <r>   -2.5348    1.0000 </r>
       <r>   -1.4245    1.0000 </r>
       <r>   -1.1156    1.0000 </r>
       <r>   -0.9335    1.0000 </r>
       <r>   -0.6151    1.0000 </r>
       <r>   -0.3966    1.0000 </r>
       <r>   -0.2409    1.0000 </r>
       <r>   -0.0977    1.0000 </r>
       <r>    0.0624    1.0000 </r>
       <r>    0.2207    1.0000 </r>
       <r>    0.3830    1.0000 </r>
       <r>    1.0488    1.0000 </r>
       <r>    1.1021    1.0000 </r>
       <r>    1.1654    1.0000 </r>
       <r>    1.3865    1.0000 </r>
       <r>    1.5495    1.0000 </r>
       <r>    1.8289    1.0000 </r>
       <r>    2.1138    1.0000 </r>
       <r>    2.1337    1.0000 </r>
       <r>    2.3700    1.0000 </r>
       <r>    2.9246    1.0000 </r>
       <r>    6.5742    0.0000 </r>
       <r>    6.9641    0.0000 </r>
       <r>    7.6784    0.0000 </r>
       <r>    8.3729    0.0000 </r>
       <r>    8.6210    0.0000 </r>
       <r>    8.8555    0.0000 </r>
       <r>    9.2965    0.0000 </r>
       <r>    9.6630    0.0000 </r>
       <r>    9.9562    0.0000 </r>
       <r>   10.1151    0.0000 </r>
       <r>   10.8469    0.0000 </r>
       <r>   11.2594    0.0000 </r>
       <r>   11.3687    0.0000 </r>
       <r>   12.2485    0.0000 </r>
       <r>   12.5109    0.0000 </r>
       <r>   12.5701    0.0000 </r>
       <r>   12.9222    0.0000 </r>
       <r>   13.1653    0.0000 </r>
       <r>   13.5854    0.0000 </r>
       <r>   14.3184    0.0000 </r>
       <r>   15.3491    0.0000 </r>
       <r>   15.4184    0.0000 </r>
       <r>   15.8539    0.0000 </r>
       <r>   16.0936    0.0000 </r>
      </set>
      <set comment="kpoint 4">
       <r>  -13.1944    1.0000 </r>
       <r>  -13.1901    1.0000 </r>
       <r>  -13.1398    1.0000 </r>
       <r>  -13.0263    1.0000 </r>
       <r>  -12.9641    1.0000 </r>
       <r>  -12.9538    1.0000 </r>
       <r>  -12.8865    1.0000 </r>
       <r>  -12.8763    1.0000 </r>
       <r>  -12.8697    1.0000 </r>
       <r>  -12.8604    1.0000 </r>
       <r>  -11.0571    1.0000 </r>
       <r>  -10.3452    1.0000 </r>
       <r>  -10.2680    1.0000 </r>
       <r>  -10.2142    1.0000 </r>
       <r>   -3.0445    1.0000 </r>
       <r>   -2.7217    1.0000 </r>
       <r>   -1.6711    1.0000 </r>
       <r>   -1.0441    1.0000 </r>
       <r>   -0.5864    1.0000 </r>
       <r>   -0.5463    1.0000 </r>
       <r>   -0.3990    1.0000 </r>
       <r>   -0.2029    1.0000 </r>
       <r>   -0.0151    1.0000 </r>
       <r>    0.0293    1.0000 </r>
       <r>    0.2570    1.0000 </r>
       <r>    0.4081    1.0000 </r>
       <r>    0.9958    1.0000 </r>
       <r>    1.1135    1.0000 </r>
       <r>    1.2918    1.0000 </r>
       <r>    1.3509    1.0000 </r>
       <r>    1.5984    1.0000 </r>
       <r>    1.7785    1.0000 </r>
       <r>    1.9158    1.0000 </r>
       <r>    2.2467    1.0000 </r>
       <r>    3.0739    1.0000 </r>
       <r>    3.1196    1.0000 </r>
       <r>    5.6655    0.0000 </r>
       <r>    6.4668    0.0000 </r>
       <r>    7.3298    0.0000 </r>
       <r>    7.5811    0.0000 </r>
       <r>    8.2488    0.0000 </r>
       <r>    9.2156    0.0000 </r>
       <r>    9.8453    0.0000 </r>
       <r>    9.8751    0.0000 </r>
       <r>   10.1545    0.0000 </r>
       <r>   10.3232    0.0000 </r>
       <r>   11.0984    0.0000 </r>
       <r>   11.2207    0.0000 </r>
       <r>   11.4853    0.0000 </r>
       <r>   11.8465    0.0000 </r>
       <r>   12.2274    0.0000 </r>
       <r>   12.5936    0.0000 </r>
       <r>   13.7803    0.0000 </r>
       <r>   14.1069    0.0000 </r>
       <r>   14.1977    0.0000 </r>
       <r>   14.6488    0.0000 </r>
       <r>   14.8346    0.0000 </r>
       <r>   15.0414    0.0000 </r>
       <r>   16.5381    0.0000 </r>
       <r>   16.8779    0.0000 </r>
      </set>
      <set comment="kpoint 5">
       <r>  -13.2020    1.0000 </r>
       <r>  -13.1929    1.0000 </r>
       <r>  -13.1221    1.0000 </r>
       <r>  -13.0421    1.0000 </r>
       <r>  -12.9698    1.0000 </r>
       <r>  -12.9560    1.0000 </r>
       <r>  -12.8808    1.0000 </r>
       <r>  -12.8769    1.0000 </r>
       <r>  -12.8657    1.0000 </r>
       <r>  -12.8654    1.0000 </r>
       <r>  -10.7970    1.0000 </r>
       <r>  -10.5445    1.0000 </r>
       <r>  -10.3519    1.0000 </r>
       <r>  -10.1805    1.0000 </r>
       <r>   -3.0380    1.0000 </r>
       <r>   -2.8276    1.0000 </r>
       <r>   -1.7323    1.0000 </r>
       <r>   -1.3721    1.0000 </r>
       <r>   -0.8107    1.0000 </r>
       <r>   -0.4006    1.0000 </r>
       <r>   -0.2662    1.0000 </r>
       <r>   -0.2043    1.0000 </r>
       <r>   -0.0378    1.0000 </r>
       <r>    0.1259    1.0000 </r>
       <r>    0.3035    1.0000 </r>
       <r>    0.4648    1.0000 </r>
       <r>    1.0153    1.0000 </r>
       <r>    1.0737    1.0000 </r>
       <r>    1.2030    1.0000 </r>
       <r>    1.4403    1.0000 </r>
       <r>    1.8578    1.0000 </r>
       <r>    1.9662    1.0000 </r>
       <r>    2.1502    1.0000 </r>
       <r>    2.4072    1.0000 </r>
       <r>    2.7162    1.0000 </r>
       <r>    2.8500    1.0000 </r>
       <r>    6.0527    0.0000 </r>
       <r>    6.3407    0.0000 </r>
       <r>    7.7572    0.0000 </r>
       <r>    8.2381    0.0000 </r>
       <r>    8.7177    0.0000 </r>
       <r>    8.9296    0.0000 </r>
       <r>    9.2172    0.0000 </r>
       <r>    9.7100    0.0000 </r>
       <r>   10.0422    0.0000 </r>
       <r>   10.6938    0.0000 </r>
       <r>   10.9312    0.0000 </r>
       <r>   11.0205    0.0000 </r>
       <r>   11.2597    0.0000 </r>
       <r>   11.8625    0.0000 </r>
       <r>   12.3390    0.0000 </r>
       <r>   12.7907    0.0000 </r>
       <r>   13.2853    0.0000 </r>
       <r>   13.6391    0.0000 </r>
       <r>   14.2718    0.0000 </r>
       <r>   14.5992    0.0000 </r>
       <r>   15.0558    0.0000 </r>
       <r>   15.6000    0.0000 </r>
       <r>   15.6972    0.0000 </r>
       <r>   15.8301    0.0000 </r>
      </set>
      <set comment="kpoint 6">
       <r>  -13.1922    1.0000 </r>
       <r>  -13.1904    1.0000 </r>
       <r>  -13.1503    1.0000 </r>
       <r>  -13.0000    1.0000 </r>
       <r>  -12.9698    1.0000 </r>
       <r>  -12.9599    1.0000 </r>
       <r>  -12.8829    1.0000 </r>
       <r>  -12.8774    1.0000 </r>
       <r>  -12.8672    1.0000 </r>
       <r>  -12.8650    1.0000 </r>
       <r>  -11.2088    1.0000 </r>
       <r>  -10.2815    1.0000 </r>
       <r>  -10.2531    1.0000 </r>
       <r>  -10.0930    1.0000 </r>
       <r>   -3.1152    1.0000 </r>
       <r>   -2.7153    1.0000 </r>
       <r>   -1.6696    1.0000 </r>
       <r>   -0.9934    1.0000 </r>
       <r>   -0.9219    1.0000 </r>
       <r>   -0.5288    1.0000 </r>
       <r>   -0.3518    1.0000 </r>
       <r>   -0.2100    1.0000 </r>
       <r>   -0.1309    1.0000 </r>
       <r>    0.0741    1.0000 </r>
       <r>    0.2070    1.0000 </r>
       <r>    0.5809    1.0000 </r>
       <r>    0.9945    1.0000 </r>
       <r>    1.1213    1.0000 </r>
       <r>    1.2235    1.0000 </r>
       <r>    1.3265    1.0000 </r>
       <r>    1.5921    1.0000 </r>
       <r>    1.9677    1.0000 </r>
       <r>    1.9917    1.0000 </r>
       <r>    2.0457    1.0000 </r>
       <r>    2.8505    1.0000 </r>
       <r>    3.3845    1.0000 </r>
       <r>    5.8907    0.0000 </r>
       <r>    6.5329    0.0000 </r>
       <r>    7.5926    0.0000 </r>
       <r>    8.0609    0.0000 </r>
       <r>    8.5528    0.0000 </r>
       <r>    8.7188    0.0000 </r>
       <r>    9.2504    0.0000 </r>
       <r>    9.7936    0.0000 </r>
       <r>   10.0504    0.0000 </r>
       <r>   10.1826    0.0000 </r>
       <r>   11.0445    0.0000 </r>
       <r>   11.7152    0.0000 </r>
       <r>   12.1302    0.0000 </r>
       <r>   12.5058    0.0000 </r>
       <r>   12.8184    0.0000 </r>
       <r>   12.9223    0.0000 </r>
       <r>   13.0921    0.0000 </r>
       <r>   13.5785    0.0000 </r>
       <r>   13.8621    0.0000 </r>
       <r>   13.9572    0.0000 </r>
       <r>   14.3934    0.0000 </r>
       <r>   15.6025    0.0000 </r>
       <r>   15.8082    0.0000 </r>
       <r>   16.0351    0.0000 </r>
      </set>
      <set comment="kpoint 7">
       <r>  -13.2014    1.0000 </r>
       <r>  -13.2014    1.0000 </r>
       <r>  -13.0816    1.0000 </r>
       <r>  -13.0816    1.0000 </r>
       <r>  -12.9670    1.0000 </r>
       <r>  -12.9670    1.0000 </r>
       <r>  -12.8732    1.0000 </r>
       <r>  -12.8732    1.0000 </r>
       <r>  -12.8692    1.0000 </r>
       <r>  -12.8691    1.0000 </r>
       <r>  -10.5775    1.0000 </r>
       <r>  -10.5773    1.0000 </r>
       <r>  -10.3401    1.0000 </r>
       <r>  -10.3398    1.0000 </r>
       <r>   -3.1413    1.0000 </r>
       <r>   -3.1413    1.0000 </r>
       <r>   -1.7154    1.0000 </r>
       <r>   -1.7153    1.0000 </r>
       <r>   -0.5500    1.0000 </r>
       <r>   -0.5500    1.0000 </r>
       <r>   -0.1782    1.0000 </r>
       <r>   -0.1782    1.0000 </r>
       <r>    0.1460    1.0000 </r>
       <r>    0.1461    1.0000 </r>
       <r>    0.3162    1.0000 </r>
       <r>    0.3163    1.0000 </r>
       <r>    1.0311    1.0000 </r>
       <r>    1.0312    1.0000 </r>
       <r>    1.3765    1.0000 </r>
       <r>    1.3765    1.0000 </r>
       <r>    2.1297    1.0000 </r>
       <r>    2.1300    1.0000 </r>
       <r>    2.6056    1.0000 </r>
       <r>    2.6059    1.0000 </r>
       <r>    2.9739    1.0000 </r>
       <r>    2.9744    1.0000 </r>
       <r>    5.5024    0.0000 </r>
       <r>    5.5030    0.0000 </r>
       <r>    7.8938    0.0000 </r>
       <r>    7.8939    0.0000 </r>
       <r>    9.1796    0.0000 </r>
       <r>    9.1797    0.0000 </r>
       <r>    9.6242    0.0000 </r>
       <r>    9.6244    0.0000 </r>
       <r>   10.4934    0.0000 </r>
       <r>   10.4934    0.0000 </r>
       <r>   10.9073    0.0000 </r>
       <r>   10.9074    0.0000 </r>
       <r>   11.0500    0.0000 </r>
       <r>   11.0500    0.0000 </r>
       <r>   12.3788    0.0000 </r>
       <r>   12.3788    0.0000 </r>
       <r>   13.5117    0.0000 </r>
       <r>   13.5117    0.0000 </r>
       <r>   14.6916    0.0000 </r>
       <r>   14.6916    0.0000 </r>
       <r>   15.4410    0.0000 </r>
       <r>   15.4410    0.0000 </r>
       <r>   16.5955    0.0000 </r>
       <r>   16.5965    0.0000 </r>
      </set>
      <set comment="kpoint 8">
       <r>  -13.1826    1.0000 </r>
       <r>  -13.1826    1.0000 </r>
       <r>  -13.1465    1.0000 </r>
       <r>  -13.0451    1.0000 </r>
       <r>  -12.9407    1.0000 </r>
       <r>  -12.9407    1.0000 </r>
       <r>  -12.8950    1.0000 </r>
       <r>  -12.8849    1.0000 </r>
       <r>  -12.8664    1.0000 </r>
       <r>  -12.8565    1.0000 </r>
       <r>  -11.2225    1.0000 </r>
       <r>  -10.5050    1.0000 </r>
       <r>  -10.0938    1.0000 </r>
       <r>  -10.0938    1.0000 </r>
       <r>   -3.1202    1.0000 </r>
       <r>   -2.8166    1.0000 </r>
       <r>   -1.3440    1.0000 </r>
       <r>   -0.6740    1.0000 </r>
       <r>   -0.3216    1.0000 </r>
       <r>   -0.3216    1.0000 </r>
       <r>   -0.2442    1.0000 </r>
       <r>   -0.0993    1.0000 </r>
       <r>   -0.0992    1.0000 </r>
       <r>    0.1261    1.0000 </r>
       <r>    0.2796    1.0000 </r>
       <r>    0.2797    1.0000 </r>
       <r>    0.8954    1.0000 </r>
       <r>    0.9860    1.0000 </r>
       <r>    1.1177    1.0000 </r>
       <r>    1.1887    1.0000 </r>
       <r>    1.5610    1.0000 </r>
       <r>    1.9282    1.0000 </r>
       <r>    1.9283    1.0000 </r>
       <r>    2.2386    1.0000 </r>
       <r>    2.9171    1.0000 </r>
       <r>    2.9171    1.0000 </r>
       <r>    5.8837    0.0000 </r>
       <r>    6.3435    0.0000 </r>
       <r>    6.7736    0.0000 </r>
       <r>    6.7736    0.0000 </r>
       <r>    6.8035    0.0000 </r>
       <r>    7.7849    0.0000 </r>
       <r>    8.7832    0.0000 </r>
       <r>    8.8143    0.0000 </r>
       <r>   10.4845    0.0000 </r>
       <r>   10.4846    0.0000 </r>
       <r>   12.3559    0.0000 </r>
       <r>   12.4352    0.0000 </r>
       <r>   12.6049    0.0000 </r>
       <r>   12.6050    0.0000 </r>
       <r>   13.5336    0.0000 </r>
       <r>   13.6582    0.0000 </r>
       <r>   14.3287    0.0000 </r>
       <r>   14.3287    0.0000 </r>
       <r>   14.9007    0.0000 </r>
       <r>   15.2875    0.0000 </r>
       <r>   16.1631    0.0000 </r>
       <r>   16.2348    0.0000 </r>
       <r>   16.3367    0.0000 </r>
       <r>   17.2126    0.0000 </r>
      </set>
      <set comment="kpoint 9">
       <r>  -13.1974    1.0000 </r>
       <r>  -13.1837    1.0000 </r>
       <r>  -13.1143    1.0000 </r>
       <r>  -13.0748    1.0000 </r>
       <r>  -12.9503    1.0000 </r>
       <r>  -12.9383    1.0000 </r>
       <r>  -12.8893    1.0000 </r>
       <r>  -12.8871    1.0000 </r>
       <r>  -12.8619    1.0000 </r>
       <r>  -12.8597    1.0000 </r>
       <r>  -10.8510    1.0000 </r>
       <r>  -10.6864    1.0000 </r>
       <r>  -10.3295    1.0000 </r>
       <r>  -10.0869    1.0000 </r>
       <r>   -2.9049    1.0000 </r>
       <r>   -2.7779    1.0000 </r>
       <r>   -1.2271    1.0000 </r>
       <r>   -1.0315    1.0000 </r>
       <r>   -0.5925    1.0000 </r>
       <r>   -0.3770    1.0000 </r>
       <r>   -0.2472    1.0000 </r>
       <r>   -0.1458    1.0000 </r>
       <r>   -0.0938    1.0000 </r>
       <r>    0.1010    1.0000 </r>
       <r>    0.2701    1.0000 </r>
       <r>    0.4120    1.0000 </r>
       <r>    1.0009    1.0000 </r>
       <r>    1.0829    1.0000 </r>
       <r>    1.1059    1.0000 </r>
       <r>    1.3220    1.0000 </r>
       <r>    1.4778    1.0000 </r>
       <r>    1.8172    1.0000 </r>
       <r>    1.9007    1.0000 </r>
       <r>    2.3388    1.0000 </r>
       <r>    2.5103    1.0000 </r>
       <r>    2.8311    1.0000 </r>
       <r>    6.3004    0.0000 </r>
       <r>    6.5439    0.0000 </r>
       <r>    6.6719    0.0000 </r>
       <r>    7.1542    0.0000 </r>
       <r>    7.9809    0.0000 </r>
       <r>    8.2053    0.0000 </r>
       <r>    9.0249    0.0000 </r>
       <r>    9.3424    0.0000 </r>
       <r>    9.9774    0.0000 </r>
       <r>   10.4803    0.0000 </r>
       <r>   10.9138    0.0000 </r>
       <r>   11.7736    0.0000 </r>
       <r>   12.6177    0.0000 </r>
       <r>   12.9123    0.0000 </r>
       <r>   12.9757    0.0000 </r>
       <r>   13.1958    0.0000 </r>
       <r>   13.2707    0.0000 </r>
       <r>   13.8206    0.0000 </r>
       <r>   14.2908    0.0000 </r>
       <r>   15.4287    0.0000 </r>
       <r>   15.6385    0.0000 </r>
       <r>   16.2432    0.0000 </r>
       <r>   16.6110    0.0000 </r>
       <r>   16.8244    0.0000 </r>
      </set>
      <set comment="kpoint 10">
       <r>  -13.2035    1.0000 </r>
       <r>  -13.1828    1.0000 </r>
       <r>  -13.1378    1.0000 </r>
       <r>  -13.0308    1.0000 </r>
       <r>  -12.9698    1.0000 </r>
       <r>  -12.9439    1.0000 </r>
       <r>  -12.8845    1.0000 </r>
       <r>  -12.8815    1.0000 </r>
       <r>  -12.8641    1.0000 </r>
       <r>  -12.8638    1.0000 </r>
       <r>  -10.9105    1.0000 </r>
       <r>  -10.5555    1.0000 </r>
       <r>  -10.3659    1.0000 </r>
       <r>  -10.0813    1.0000 </r>
       <r>   -2.8591    1.0000 </r>
       <r>   -2.5555    1.0000 </r>
       <r>   -1.4203    1.0000 </r>
       <r>   -1.0701    1.0000 </r>
       <r>   -0.9209    1.0000 </r>
       <r>   -0.5577    1.0000 </r>
       <r>   -0.4631    1.0000 </r>
       <r>   -0.2362    1.0000 </r>
       <r>   -0.1894    1.0000 </r>
       <r>    0.0698    1.0000 </r>
       <r>    0.2024    1.0000 </r>
       <r>    0.4306    1.0000 </r>
       <r>    1.0304    1.0000 </r>
       <r>    1.0865    1.0000 </r>
       <r>    1.1588    1.0000 </r>
       <r>    1.4593    1.0000 </r>
       <r>    1.5287    1.0000 </r>
       <r>    1.6059    1.0000 </r>
       <r>    2.0129    1.0000 </r>
       <r>    2.4497    1.0000 </r>
       <r>    2.4779    1.0000 </r>
       <r>    2.8830    1.0000 </r>
       <r>    6.5312    0.0000 </r>
       <r>    6.9528    0.0000 </r>
       <r>    7.3091    0.0000 </r>
       <r>    8.2436    0.0000 </r>
       <r>    8.7655    0.0000 </r>
       <r>    9.1059    0.0000 </r>
       <r>    9.5562    0.0000 </r>
       <r>    9.6014    0.0000 </r>
       <r>   10.1989    0.0000 </r>
       <r>   10.4972    0.0000 </r>
       <r>   11.0105    0.0000 </r>
       <r>   11.1970    0.0000 </r>
       <r>   11.4254    0.0000 </r>
       <r>   11.6084    0.0000 </r>
       <r>   11.8494    0.0000 </r>
       <r>   12.2715    0.0000 </r>
       <r>   12.4216    0.0000 </r>
       <r>   13.3758    0.0000 </r>
       <r>   13.7490    0.0000 </r>
       <r>   14.9728    0.0000 </r>
       <r>   15.3399    0.0000 </r>
       <r>   15.8672    0.0000 </r>
       <r>   16.3626    0.0000 </r>
       <r>   16.8001    0.0000 </r>
      </set>
      <set comment="kpoint 11">
       <r>  -13.1882    1.0000 </r>
       <r>  -13.1845    1.0000 </r>
       <r>  -13.1565    1.0000 </r>
       <r>  -13.0094    1.0000 </r>
       <r>  -12.9628    1.0000 </r>
       <r>  -12.9472    1.0000 </r>
       <r>  -12.8900    1.0000 </r>
       <r>  -12.8777    1.0000 </r>
       <r>  -12.8708    1.0000 </r>
       <r>  -12.8591    1.0000 </r>
       <r>  -11.2507    1.0000 </r>
       <r>  -10.2843    1.0000 </r>
       <r>  -10.2338    1.0000 </r>
       <r>  -10.1111    1.0000 </r>
       <r>   -3.0625    1.0000 </r>
       <r>   -2.5889    1.0000 </r>
       <r>   -1.4662    1.0000 </r>
       <r>   -0.9637    1.0000 </r>
       <r>   -0.6741    1.0000 </r>
       <r>   -0.4263    1.0000 </r>
       <r>   -0.3586    1.0000 </r>
       <r>   -0.2260    1.0000 </r>
       <r>   -0.1228    1.0000 </r>
       <r>    0.0040    1.0000 </r>
       <r>    0.1824    1.0000 </r>
       <r>    0.3504    1.0000 </r>
       <r>    1.0226    1.0000 </r>
       <r>    1.0761    1.0000 </r>
       <r>    1.2029    1.0000 </r>
       <r>    1.2811    1.0000 </r>
       <r>    1.5410    1.0000 </r>
       <r>    1.6862    1.0000 </r>
       <r>    1.7877    1.0000 </r>
       <r>    2.2325    1.0000 </r>
       <r>    2.8637    1.0000 </r>
       <r>    3.3613    1.0000 </r>
       <r>    5.7907    0.0000 </r>
       <r>    6.7548    0.0000 </r>
       <r>    7.3670    0.0000 </r>
       <r>    7.4884    0.0000 </r>
       <r>    7.6878    0.0000 </r>
       <r>    8.9143    0.0000 </r>
       <r>    9.4229    0.0000 </r>
       <r>    9.6144    0.0000 </r>
       <r>    9.9005    0.0000 </r>
       <r>   10.1503    0.0000 </r>
       <r>   11.0401    0.0000 </r>
       <r>   11.3415    0.0000 </r>
       <r>   12.3895    0.0000 </r>
       <r>   12.5507    0.0000 </r>
       <r>   13.0266    0.0000 </r>
       <r>   13.4023    0.0000 </r>
       <r>   13.8290    0.0000 </r>
       <r>   13.8875    0.0000 </r>
       <r>   14.1932    0.0000 </r>
       <r>   14.3122    0.0000 </r>
       <r>   14.4788    0.0000 </r>
       <r>   15.4996    0.0000 </r>
       <r>   15.7370    0.0000 </r>
       <r>   16.6480    0.0000 </r>
      </set>
      <set comment="kpoint 12">
       <r>  -13.1962    1.0000 </r>
       <r>  -13.1936    1.0000 </r>
       <r>  -13.1105    1.0000 </r>
       <r>  -13.0681    1.0000 </r>
       <r>  -12.9544    1.0000 </r>
       <r>  -12.9505    1.0000 </r>
       <r>  -12.8858    1.0000 </r>
       <r>  -12.8822    1.0000 </r>
       <r>  -12.8641    1.0000 </r>
       <r>  -12.8607    1.0000 </r>
       <r>  -10.8239    1.0000 </r>
       <r>  -10.5533    1.0000 </r>
       <r>  -10.2790    1.0000 </r>
       <r>  -10.2704    1.0000 </r>
       <r>   -2.9259    1.0000 </r>
       <r>   -2.7946    1.0000 </r>
       <r>   -1.5299    1.0000 </r>
       <r>   -1.2856    1.0000 </r>
       <r>   -0.4638    1.0000 </r>
       <r>   -0.3906    1.0000 </r>
       <r>   -0.3001    1.0000 </r>
       <r>   -0.1305    1.0000 </r>
       <r>   -0.0700    1.0000 </r>
       <r>    0.0737    1.0000 </r>
       <r>    0.2736    1.0000 </r>
       <r>    0.3012    1.0000 </r>
       <r>    1.0315    1.0000 </r>
       <r>    1.0537    1.0000 </r>
       <r>    1.2857    1.0000 </r>
       <r>    1.2937    1.0000 </r>
       <r>    1.5998    1.0000 </r>
       <r>    1.7436    1.0000 </r>
       <r>    2.2386    1.0000 </r>
       <r>    2.3566    1.0000 </r>
       <r>    2.7449    1.0000 </r>
       <r>    2.8044    1.0000 </r>
       <r>    5.9485    0.0000 </r>
       <r>    6.3591    0.0000 </r>
       <r>    7.3457    0.0000 </r>
       <r>    7.5094    0.0000 </r>
       <r>    8.2889    0.0000 </r>
       <r>    8.7162    0.0000 </r>
       <r>    9.4508    0.0000 </r>
       <r>    9.5533    0.0000 </r>
       <r>   10.2007    0.0000 </r>
       <r>   10.3902    0.0000 </r>
       <r>   10.8501    0.0000 </r>
       <r>   11.2268    0.0000 </r>
       <r>   11.5680    0.0000 </r>
       <r>   11.6006    0.0000 </r>
       <r>   13.1795    0.0000 </r>
       <r>   13.2088    0.0000 </r>
       <r>   13.7860    0.0000 </r>
       <r>   13.9970    0.0000 </r>
       <r>   14.5104    0.0000 </r>
       <r>   14.6168    0.0000 </r>
       <r>   14.8363    0.0000 </r>
       <r>   15.3742    0.0000 </r>
       <r>   16.0537    0.0000 </r>
       <r>   16.3344    0.0000 </r>
      </set>
      <set comment="kpoint 13">
       <r>  -13.2011    1.0000 </r>
       <r>  -13.1933    1.0000 </r>
       <r>  -13.1241    1.0000 </r>
       <r>  -13.0389    1.0000 </r>
       <r>  -12.9713    1.0000 </r>
       <r>  -12.9561    1.0000 </r>
       <r>  -12.8809    1.0000 </r>
       <r>  -12.8769    1.0000 </r>
       <r>  -12.8656    1.0000 </r>
       <r>  -12.8654    1.0000 </r>
       <r>  -10.7823    1.0000 </r>
       <r>  -10.5829    1.0000 </r>
       <r>  -10.3149    1.0000 </r>
       <r>  -10.1936    1.0000 </r>
       <r>   -3.0447    1.0000 </r>
       <r>   -2.8056    1.0000 </r>
       <r>   -1.7802    1.0000 </r>
       <r>   -1.3881    1.0000 </r>
       <r>   -0.7117    1.0000 </r>
       <r>   -0.4420    1.0000 </r>
       <r>   -0.2740    1.0000 </r>
       <r>   -0.2266    1.0000 </r>
       <r>   -0.0010    1.0000 </r>
       <r>    0.1159    1.0000 </r>
       <r>    0.3247    1.0000 </r>
       <r>    0.4230    1.0000 </r>
       <r>    1.0009    1.0000 </r>
       <r>    1.0814    1.0000 </r>
       <r>    1.2304    1.0000 </r>
       <r>    1.4317    1.0000 </r>
       <r>    1.9123    1.0000 </r>
       <r>    1.9698    1.0000 </r>
       <r>    2.2032    1.0000 </r>
       <r>    2.3639    1.0000 </r>
       <r>    2.7050    1.0000 </r>
       <r>    2.7780    1.0000 </r>
       <r>    6.0412    0.0000 </r>
       <r>    6.3937    0.0000 </r>
       <r>    7.6859    0.0000 </r>
       <r>    8.2916    0.0000 </r>
       <r>    8.6870    0.0000 </r>
       <r>    9.0167    0.0000 </r>
       <r>    9.1118    0.0000 </r>
       <r>    9.5830    0.0000 </r>
       <r>   10.2273    0.0000 </r>
       <r>   10.5608    0.0000 </r>
       <r>   11.0844    0.0000 </r>
       <r>   11.2017    0.0000 </r>
       <r>   11.3731    0.0000 </r>
       <r>   11.5837    0.0000 </r>
       <r>   12.4242    0.0000 </r>
       <r>   12.6343    0.0000 </r>
       <r>   13.3388    0.0000 </r>
       <r>   13.8560    0.0000 </r>
       <r>   14.1314    0.0000 </r>
       <r>   14.3244    0.0000 </r>
       <r>   15.1918    0.0000 </r>
       <r>   15.4533    0.0000 </r>
       <r>   15.8242    0.0000 </r>
       <r>   15.9440    0.0000 </r>
      </set>
      <set comment="kpoint 14">
       <r>  -13.1958    1.0000 </r>
       <r>  -13.1915    1.0000 </r>
       <r>  -13.1275    1.0000 </r>
       <r>  -13.0461    1.0000 </r>
       <r>  -12.9590    1.0000 </r>
       <r>  -12.9515    1.0000 </r>
       <r>  -12.8866    1.0000 </r>
       <r>  -12.8795    1.0000 </r>
       <r>  -12.8667    1.0000 </r>
       <r>  -12.8601    1.0000 </r>
       <r>  -10.9496    1.0000 </r>
       <r>  -10.4320    1.0000 </r>
       <r>  -10.2749    1.0000 </r>
       <r>  -10.2523    1.0000 </r>
       <r>   -2.9907    1.0000 </r>
       <r>   -2.7479    1.0000 </r>
       <r>   -1.6168    1.0000 </r>
       <r>   -1.1507    1.0000 </r>
       <r>   -0.5251    1.0000 </r>
       <r>   -0.4669    1.0000 </r>
       <r>   -0.3360    1.0000 </r>
       <r>   -0.1575    1.0000 </r>
       <r>   -0.0608    1.0000 </r>
       <r>    0.0644    1.0000 </r>
       <r>    0.2873    1.0000 </r>
       <r>    0.3237    1.0000 </r>
       <r>    1.0255    1.0000 </r>
       <r>    1.0561    1.0000 </r>
       <r>    1.3063    1.0000 </r>
       <r>    1.3528    1.0000 </r>
       <r>    1.5633    1.0000 </r>
       <r>    1.7858    1.0000 </r>
       <r>    2.0320    1.0000 </r>
       <r>    2.2631    1.0000 </r>
       <r>    2.9404    1.0000 </r>
       <r>    3.0064    1.0000 </r>
       <r>    5.7444    0.0000 </r>
       <r>    6.4356    0.0000 </r>
       <r>    7.2883    0.0000 </r>
       <r>    7.5719    0.0000 </r>
       <r>    8.2038    0.0000 </r>
       <r>    9.0014    0.0000 </r>
       <r>    9.6481    0.0000 </r>
       <r>    9.8583    0.0000 </r>
       <r>   10.0934    0.0000 </r>
       <r>   10.3431    0.0000 </r>
       <r>   10.8912    0.0000 </r>
       <r>   11.3822    0.0000 </r>
       <r>   11.5467    0.0000 </r>
       <r>   11.5838    0.0000 </r>
       <r>   12.6589    0.0000 </r>
       <r>   12.8038    0.0000 </r>
       <r>   13.8075    0.0000 </r>
       <r>   14.0375    0.0000 </r>
       <r>   14.3196    0.0000 </r>
       <r>   14.7377    0.0000 </r>
       <r>   14.8709    0.0000 </r>
       <r>   15.1795    0.0000 </r>
       <r>   16.6731    0.0000 </r>
       <r>   16.8251    0.0000 </r>
      </set>
      <set comment="kpoint 15">
       <r>  -13.2014    1.0000 </r>
       <r>  -13.2014    1.0000 </r>
       <r>  -13.0814    1.0000 </r>
       <r>  -13.0814    1.0000 </r>
       <r>  -12.9672    1.0000 </r>
       <r>  -12.9672    1.0000 </r>
       <r>  -12.8732    1.0000 </r>
       <r>  -12.8732    1.0000 </r>
       <r>  -12.8691    1.0000 </r>
       <r>  -12.8691    1.0000 </r>
       <r>  -10.5765    1.0000 </r>
       <r>  -10.5764    1.0000 </r>
       <r>  -10.3411    1.0000 </r>
       <r>  -10.3410    1.0000 </r>
       <r>   -3.1110    1.0000 </r>
       <r>   -3.1110    1.0000 </r>
       <r>   -1.8272    1.0000 </r>
       <r>   -1.8272    1.0000 </r>
       <r>   -0.4286    1.0000 </r>
       <r>   -0.4286    1.0000 </r>
       <r>   -0.1858    1.0000 </r>
       <r>   -0.1858    1.0000 </r>
       <r>    0.0714    1.0000 </r>
       <r>    0.0714    1.0000 </r>
       <r>    0.4090    1.0000 </r>
       <r>    0.4091    1.0000 </r>
       <r>    1.0036    1.0000 </r>
       <r>    1.0037    1.0000 </r>
       <r>    1.4809    1.0000 </r>
       <r>    1.4810    1.0000 </r>
       <r>    2.0463    1.0000 </r>
       <r>    2.0464    1.0000 </r>
       <r>    2.6184    1.0000 </r>
       <r>    2.6184    1.0000 </r>
       <r>    2.8264    1.0000 </r>
       <r>    2.8265    1.0000 </r>
       <r>    5.7113    0.0000 </r>
       <r>    5.7113    0.0000 </r>
       <r>    7.7622    0.0000 </r>
       <r>    7.7623    0.0000 </r>
       <r>    9.0768    0.0000 </r>
       <r>    9.0769    0.0000 </r>
       <r>    9.5673    0.0000 </r>
       <r>    9.5673    0.0000 </r>
       <r>   10.4082    0.0000 </r>
       <r>   10.4083    0.0000 </r>
       <r>   10.7301    0.0000 </r>
       <r>   10.7302    0.0000 </r>
       <r>   11.6532    0.0000 </r>
       <r>   11.6532    0.0000 </r>
       <r>   12.3778    0.0000 </r>
       <r>   12.3778    0.0000 </r>
       <r>   14.0743    0.0000 </r>
       <r>   14.0743    0.0000 </r>
       <r>   14.6193    0.0000 </r>
       <r>   14.6193    0.0000 </r>
       <r>   15.0235    0.0000 </r>
       <r>   15.0235    0.0000 </r>
       <r>   15.7335    0.0000 </r>
       <r>   15.7335    0.0000 </r>
      </set>
      <set comment="kpoint 16">
       <r>  -13.2028    1.0000 </r>
       <r>  -13.1925    1.0000 </r>
       <r>  -13.1200    1.0000 </r>
       <r>  -13.0452    1.0000 </r>
       <r>  -12.9685    1.0000 </r>
       <r>  -12.9558    1.0000 </r>
       <r>  -12.8806    1.0000 </r>
       <r>  -12.8769    1.0000 </r>
       <r>  -12.8658    1.0000 </r>
       <r>  -12.8654    1.0000 </r>
       <r>  -10.8090    1.0000 </r>
       <r>  -10.4925    1.0000 </r>
       <r>  -10.4018    1.0000 </r>
       <r>  -10.1705    1.0000 </r>
       <r>   -3.0289    1.0000 </r>
       <r>   -2.8520    1.0000 </r>
       <r>   -1.6730    1.0000 </r>
       <r>   -1.3642    1.0000 </r>
       <r>   -0.8966    1.0000 </r>
       <r>   -0.3772    1.0000 </r>
       <r>   -0.2558    1.0000 </r>
       <r>   -0.1742    1.0000 </r>
       <r>   -0.0767    1.0000 </r>
       <r>    0.1243    1.0000 </r>
       <r>    0.3011    1.0000 </r>
       <r>    0.4936    1.0000 </r>
       <r>    1.0325    1.0000 </r>
       <r>    1.0587    1.0000 </r>
       <r>    1.1735    1.0000 </r>
       <r>    1.4716    1.0000 </r>
       <r>    1.8026    1.0000 </r>
       <r>    1.9346    1.0000 </r>
       <r>    2.1034    1.0000 </r>
       <r>    2.4708    1.0000 </r>
       <r>    2.7533    1.0000 </r>
       <r>    2.8816    1.0000 </r>
       <r>    6.0962    0.0000 </r>
       <r>    6.2500    0.0000 </r>
       <r>    7.8848    0.0000 </r>
       <r>    8.2060    0.0000 </r>
       <r>    8.5313    0.0000 </r>
       <r>    8.9981    0.0000 </r>
       <r>    9.3399    0.0000 </r>
       <r>    9.7968    0.0000 </r>
       <r>   10.0711    0.0000 </r>
       <r>   10.5566    0.0000 </r>
       <r>   10.7397    0.0000 </r>
       <r>   10.8258    0.0000 </r>
       <r>   11.4587    0.0000 </r>
       <r>   11.9583    0.0000 </r>
       <r>   12.3141    0.0000 </r>
       <r>   12.8346    0.0000 </r>
       <r>   13.1934    0.0000 </r>
       <r>   13.6308    0.0000 </r>
       <r>   14.5665    0.0000 </r>
       <r>   14.7937    0.0000 </r>
       <r>   15.0122    0.0000 </r>
       <r>   15.1147    0.0000 </r>
       <r>   15.4157    0.0000 </r>
       <r>   15.8616    0.0000 </r>
      </set>
      <set comment="kpoint 17">
       <r>  -13.1915    1.0000 </r>
       <r>  -13.1910    1.0000 </r>
       <r>  -13.1497    1.0000 </r>
       <r>  -13.0024    1.0000 </r>
       <r>  -12.9697    1.0000 </r>
       <r>  -12.9590    1.0000 </r>
       <r>  -12.8840    1.0000 </r>
       <r>  -12.8758    1.0000 </r>
       <r>  -12.8695    1.0000 </r>
       <r>  -12.8633    1.0000 </r>
       <r>  -11.1912    1.0000 </r>
       <r>  -10.2864    1.0000 </r>
       <r>  -10.2551    1.0000 </r>
       <r>  -10.1101    1.0000 </r>
       <r>   -3.1073    1.0000 </r>
       <r>   -2.7139    1.0000 </r>
       <r>   -1.6796    1.0000 </r>
       <r>   -0.9916    1.0000 </r>
       <r>   -0.8654    1.0000 </r>
       <r>   -0.5154    1.0000 </r>
       <r>   -0.4030    1.0000 </r>
       <r>   -0.2106    1.0000 </r>
       <r>   -0.0971    1.0000 </r>
       <r>    0.0654    1.0000 </r>
       <r>    0.2125    1.0000 </r>
       <r>    0.5554    1.0000 </r>
       <r>    0.9893    1.0000 </r>
       <r>    1.1430    1.0000 </r>
       <r>    1.2449    1.0000 </r>
       <r>    1.3072    1.0000 </r>
       <r>    1.6007    1.0000 </r>
       <r>    1.8621    1.0000 </r>
       <r>    1.9495    1.0000 </r>
       <r>    2.1708    1.0000 </r>
       <r>    2.8964    1.0000 </r>
       <r>    3.3530    1.0000 </r>
       <r>    5.8370    0.0000 </r>
       <r>    6.5228    0.0000 </r>
       <r>    7.5820    0.0000 </r>
       <r>    7.8095    0.0000 </r>
       <r>    8.5796    0.0000 </r>
       <r>    8.8513    0.0000 </r>
       <r>    9.4231    0.0000 </r>
       <r>    9.7398    0.0000 </r>
       <r>   10.1661    0.0000 </r>
       <r>   10.2579    0.0000 </r>
       <r>   11.0041    0.0000 </r>
       <r>   11.6397    0.0000 </r>
       <r>   12.0160    0.0000 </r>
       <r>   12.2894    0.0000 </r>
       <r>   12.3575    0.0000 </r>
       <r>   12.9403    0.0000 </r>
       <r>   13.2790    0.0000 </r>
       <r>   13.7809    0.0000 </r>
       <r>   14.0888    0.0000 </r>
       <r>   14.2263    0.0000 </r>
       <r>   14.3485    0.0000 </r>
       <r>   15.3667    0.0000 </r>
       <r>   15.8040    0.0000 </r>
       <r>   16.1685    0.0000 </r>
      </set>
     </set>
    </set>
   </array>
  </eigenvalues>
  <separator name="orbital magnetization" >
   <v name="MAGDIPOLOUT">      0.00000000      0.00000000      0.00000000</v>
  </separator>
  <dielectricfunction comment="density-density">
   <imag>
    <array>
     <dimension dim="1">gridpoints</dimension>
     <field>energy</field>
     <field>xx</field>
     <field>yy</field>
     <field>zz</field>
     <field>xy</field>
     <field>yz</field>
     <field>zx</field>
     <set>
      <r>     0.0000     0.0000     0.0000     0.0000     0.0000     0.0000     0.0000 </r>
      <r>     0.0285     0.0000     0.0000     0.0000     0.0000     0.0000     0.0000 </r>
      <r>     0.0570     0.0000     0.0000     0.0000     0.0000     0.0000     0.0000 </r>
      <r>     0.0855     0.0000     0.0000     0.0000     0.0000     0.0000     0.0000 </r>
      <r>     0.1140     0.0000     0.0000     0.0000     0.0000     0.0000     0.0000 </r>
      <r>     0.1425     0.0000     0.0000     0.0000     0.0000     0.0000     0.0000 </r>
      <r>     0.1710     0.0000     0.0000     0.0000     0.0000     0.0000     0.0000 </r>
      <r>     0.1994     0.0000     0.0000     0.0000     0.0000     0.0000     0.0000 </r>
      <r>     0.2279     0.0000     0.0000     0.0000     0.0000     0.0000     0.0000 </r>
      <r>     0.2564     0.0000     0.0000     0.0000     0.0000     0.0000     0.0000 </r>
      <r>     0.2849     0.0000     0.0000     0.0000     0.0000     0.0000     0.0000 </r>
      <r>     0.3134     0.0000     0.0000     0.0000     0.0000     0.0000     0.0000 </r>
      <r>     0.3419     0.0000     0.0000     0.0000     0.0000     0.0000     0.0000 </r>
      <r>     0.3704     0.0000     0.0000     0.0000     0.0000     0.0000     0.0000 </r>
      <r>     0.3989     0.0000     0.0000     0.0000     0.0000     0.0000     0.0000 </r>
      <r>     0.4274     0.0000     0.0000     0.0000     0.0000     0.0000     0.0000 </r>
      <r>     0.4559     0.0000     0.0000     0.0000     0.0000     0.0000     0.0000 </r>
      <r>     0.4844     0.0000     0.0000     0.0000     0.0000     0.0000     0.0000 </r>
      <r>     0.5129     0.0000     0.0000     0.0000     0.0000     0.0000     0.0000 </r>
      <r>     0.5414     0.0000     0.0000     0.0000     0.0000     0.0000     0.0000 </r>
      <r>     0.5699     0.0000     0.0000     0.0000     0.0000     0.0000     0.0000 </r>
      <r>     0.5983     0.0000     0.0000     0.0000     0.0000     0.0000     0.0000 </r>
      <r>     0.6268     0.0000     0.0000     0.0000     0.0000     0.0000     0.0000 </r>
      <r>     0.6553     0.0000     0.0000     0.0000     0.0000     0.0000     0.0000 </r>
      <r>     0.6838     0.0000     0.0000     0.0000     0.0000     0.0000     0.0000 </r>
      <r>     0.7123     0.0000     0.0000     0.0000     0.0000     0.0000     0.0000 </r>
      <r>     0.7408     0.0000     0.0000     0.0000     0.0000     0.0000     0.0000 </r>
      <r>     0.7693     0.0001     0.0001     0.0001    -0.0000    -0.0000    -0.0000 </r>
      <r>     0.7978     0.0038     0.0036     0.0019    -0.0006    -0.0013    -0.0011 </r>
      <r>     0.8263     0.0129     0.0121     0.0070    -0.0018    -0.0040    -0.0033 </r>
      <r>     0.8548     0.0273     0.0258     0.0154    -0.0036    -0.0081    -0.0066 </r>
      <r>     0.8833     0.0470     0.0446     0.0271    -0.0061    -0.0136    -0.0111 </r>
      <r>     0.9118     0.0722     0.0685     0.0421    -0.0091    -0.0205    -0.0167 </r>
      <r>     0.9403     0.1027     0.0975     0.0604    -0.0128    -0.0288    -0.0235 </r>
      <r>     0.9688     0.1385     0.1316     0.0820    -0.0171    -0.0385    -0.0314 </r>
      <r>     0.9972     0.1797     0.1708     0.1069    -0.0221    -0.0495    -0.0405 </r>
      <r>     1.0257     0.2263     0.2151     0.1351    -0.0277    -0.0620    -0.0507 </r>
      <r>     1.0542     0.2782     0.2645     0.1667    -0.0338    -0.0759    -0.0621 </r>
      <r>     1.0827     0.3355     0.3190     0.2015    -0.0407    -0.0912    -0.0746 </r>
      <r>     1.1112     0.3982     0.3786     0.2396    -0.0481    -0.1079    -0.0882 </r>
      <r>     1.1397     0.4662     0.4434     0.2811    -0.0562    -0.1260    -0.1030 </r>
      <r>     1.1682     0.5395     0.5132     0.3258    -0.0648    -0.1454    -0.1189 </r>
      <r>     1.1967     0.6183     0.5882     0.3739    -0.0741    -0.1663    -0.1360 </r>
      <r>     1.2252     0.7024     0.6683     0.4252    -0.0841    -0.1886    -0.1542 </r>
      <r>     1.2537     0.7918     0.7534     0.4799    -0.0946    -0.2123    -0.1736 </r>
      <r>     1.2822     0.8866     0.8437     0.5378    -0.1058    -0.2374    -0.1941 </r>
      <r>     1.3107     0.9868     0.9391     0.5991    -0.1176    -0.2638    -0.2157 </r>
      <r>     1.3392     1.0923     1.0396     0.6637    -0.1300    -0.2917    -0.2385 </r>
      <r>     1.3677     1.2032     1.1452     0.7316    -0.1431    -0.3210    -0.2624 </r>
      <r>     1.3961     1.3195     1.2559     0.8027    -0.1568    -0.3516    -0.2875 </r>
      <r>     1.4246     1.4411     1.3717     0.8772    -0.1711    -0.3837    -0.3137 </r>
      <r>     1.4531     1.5681     1.4926     0.9550    -0.1860    -0.4172    -0.3411 </r>
      <r>     1.4816     1.7004     1.6187     1.0361    -0.2015    -0.4520    -0.3696 </r>
      <r>     1.5101     1.8381     1.7498     1.1205    -0.2177    -0.4883    -0.3992 </r>
      <r>     1.5386     1.9811     1.8860     1.2082    -0.2345    -0.5260    -0.4300 </r>
      <r>     1.5671     2.1296     2.0274     1.2992    -0.2519    -0.5650    -0.4620 </r>
      <r>     1.5956     2.2833     2.1739     1.3936    -0.2699    -0.6055    -0.4950 </r>
      <r>     1.6241     2.4425     2.3254     1.4912    -0.2886    -0.6474    -0.5293 </r>
      <r>     1.6526     2.6070     2.4821     1.5921    -0.3079    -0.6906    -0.5646 </r>
      <r>     1.6811     2.7768     2.6439     1.6963    -0.3278    -0.7353    -0.6011 </r>
      <r>     1.7096     2.9520     2.8108     1.8039    -0.3483    -0.7813    -0.6388 </r>
      <r>     1.7381     3.1326     2.9828     1.9147    -0.3695    -0.8288    -0.6776 </r>
      <r>     1.7666     3.3185     3.1599     2.0289    -0.3913    -0.8776    -0.7175 </r>
      <r>     1.7950     3.5098     3.3421     2.1463    -0.4137    -0.9279    -0.7586 </r>
      <r>     1.8235     3.7065     3.5294     2.2671    -0.4367    -0.9796    -0.8009 </r>
      <r>     1.8520     3.9085     3.7218     2.3911    -0.4603    -1.0326    -0.8442 </r>
      <r>     1.8805     4.1159     3.9194     2.5185    -0.4846    -1.0871    -0.8887 </r>
      <r>     1.9090     4.3286     4.1220     2.6492    -0.5095    -1.1429    -0.9344 </r>
      <r>     1.9375     4.5467     4.3297     2.7831    -0.5350    -1.2002    -0.9812 </r>
      <r>     1.9660     4.7702     4.5426     2.9204    -0.5612    -1.2588    -1.0292 </r>
      <r>     1.9945     4.9990     4.7606     3.0610    -0.5879    -1.3188    -1.0783 </r>
      <r>     2.0230     5.2332     4.9836     3.2049    -0.6153    -1.3803    -1.1285 </r>
      <r>     2.0515     5.4727     5.2118     3.3521    -0.6433    -1.4431    -1.1799 </r>
      <r>     2.0800     5.7176     5.4451     3.5026    -0.6720    -1.5074    -1.2324 </r>
      <r>     2.1085     5.9679     5.6835     3.6564    -0.7012    -1.5730    -1.2861 </r>
      <r>     2.1370     6.2235     5.9270     3.8135    -0.7311    -1.6401    -1.3409 </r>
      <r>     2.1655     6.4845     6.1756     3.9739    -0.7616    -1.7085    -1.3968 </r>
      <r>     2.1939     6.7508     6.4293     4.1376    -0.7928    -1.7783    -1.4539 </r>
      <r>     2.2224     7.0225     6.6881     4.3046    -0.8245    -1.8496    -1.5122 </r>
      <r>     2.2509     7.2996     6.9521     4.4749    -0.8569    -1.9222    -1.5715 </r>
      <r>     2.2794     7.5820     7.2211     4.6486    -0.8899    -1.9962    -1.6321 </r>
[...]
        <r>  0.0000  0.0062  0.0005  0.0056  0.0059  0.0378  0.0011  0.0669  0.0641 </r>
        <r>  0.0000  0.0033  0.0005  0.0085  0.0014  0.0469  0.0011  0.0578  0.0686 </r>
        <r>  0.0011  0.0446  0.0027  0.0413  0.0001  0.0001  0.0001  0.0000  0.0006 </r>
        <r>  0.0009  0.0281  0.0036  0.0570  0.0002  0.0001  0.0001  0.0002  0.0001 </r>
        <r>  0.0009  0.0403  0.0036  0.0448  0.0003  0.0001  0.0001  0.0002  0.0000 </r>
        <r>  0.0011  0.0247  0.0027  0.0612  0.0004  0.0000  0.0001  0.0001  0.0003 </r>
       </set>
       <set comment="band 37">
        <r>  0.1023  0.0005  0.0101  0.0015  0.0001  0.0003  0.0001  0.0003  0.0000 </r>
        <r>  0.1023  0.0016  0.0101  0.0005  0.0001  0.0003  0.0001  0.0003  0.0000 </r>
        <r>  0.0086  0.0024  0.0051  0.0001  0.0030  0.0025  0.0059  0.0002  0.0004 </r>
        <r>  0.0086  0.0004  0.0051  0.0021  0.0033  0.0000  0.0059  0.0027  0.0001 </r>
        <r>  0.0195  0.0142  0.0175  0.0377  0.0005  0.0000  0.0006  0.0009  0.0002 </r>
        <r>  0.0222  0.0097  0.0227  0.0321  0.0003  0.0011  0.0010  0.0001  0.0001 </r>
        <r>  0.0222  0.0347  0.0227  0.0070  0.0002  0.0002  0.0010  0.0010  0.0002 </r>
        <r>  0.0195  0.0428  0.0175  0.0091  0.0007  0.0009  0.0006  0.0000  0.0000 </r>
       </set>
       <set comment="band 38">
        <r>  0.1186  0.0064  0.0070  0.0062  0.0021  0.0003  0.0005  0.0007  0.0000 </r>
        <r>  0.1186  0.0067  0.0070  0.0059  0.0019  0.0006  0.0005  0.0004  0.0002 </r>
        <r>  0.0001  0.0003  0.0036  0.0019  0.0104  0.0032  0.0073  0.0029  0.0006 </r>
        <r>  0.0001  0.0019  0.0036  0.0003  0.0107  0.0035  0.0073  0.0026  0.0003 </r>
        <r>  0.0090  0.0084  0.0334  0.0106  0.0022  0.0007  0.0026  0.0008  0.0005 </r>
        <r>  0.0068  0.0438  0.0039  0.0008  0.0050  0.0002  0.0005  0.0011  0.0000 </r>
        <r>  0.0068  0.0033  0.0039  0.0413  0.0042  0.0009  0.0005  0.0004  0.0008 </r>
        <r>  0.0090  0.0077  0.0334  0.0113  0.0028  0.0006  0.0026  0.0010  0.0000 </r>
       </set>
       <set comment="band 39">
        <r>  0.0134  0.0021  0.0335  0.0122  0.0071  0.0005  0.0038  0.0013  0.0002 </r>
        <r>  0.0134  0.0115  0.0335  0.0027  0.0067  0.0011  0.0038  0.0007  0.0005 </r>
        <r>  0.0172  0.0028  0.0040  0.0029  0.0060  0.0006  0.0017  0.0011  0.0003 </r>
        <r>  0.0172  0.0040  0.0040  0.0018  0.0059  0.0010  0.0017  0.0008  0.0004 </r>
        <r>  0.0097  0.0078  0.0158  0.0119  0.0021  0.0001  0.0033  0.0047  0.0000 </r>
        <r>  0.0076  0.0101  0.0057  0.0080  0.0020  0.0039  0.0021  0.0000  0.0007 </r>
        <r>  0.0076  0.0115  0.0057  0.0065  0.0027  0.0001  0.0021  0.0039  0.0001 </r>
        <r>  0.0097  0.0154  0.0158  0.0043  0.0018  0.0044  0.0033  0.0004  0.0003 </r>
       </set>
       <set comment="band 40">
        <r>  0.0127  0.0301  0.0313  0.0124  0.0004  0.0009  0.0025  0.0027  0.0001 </r>
        <r>  0.0127  0.0162  0.0313  0.0263  0.0003  0.0020  0.0025  0.0016  0.0002 </r>
        <r>  0.0272  0.0017  0.0021  0.0026  0.0006  0.0042  0.0040  0.0016  0.0004 </r>
        <r>  0.0272  0.0021  0.0021  0.0022  0.0006  0.0007  0.0040  0.0050  0.0003 </r>
        <r>  0.0176  0.0004  0.0049  0.0004  0.0000  0.0039  0.0068  0.0020  0.0000 </r>
        <r>  0.0143  0.0048  0.0192  0.0008  0.0003  0.0007  0.0014  0.0046  0.0001 </r>
        <r>  0.0143  0.0008  0.0192  0.0049  0.0003  0.0039  0.0014  0.0014  0.0000 </r>
        <r>  0.0176  0.0005  0.0049  0.0003  0.0000  0.0010  0.0068  0.0049  0.0000 </r>
       </set>
       <set comment="band 41">
        <r>  0.0108  0.0518  0.0014  0.0116  0.0039  0.0029  0.0034  0.0037  0.0012 </r>
        <r>  0.0108  0.0099  0.0014  0.0536  0.0022  0.0028  0.0034  0.0037  0.0029 </r>
        <r>  0.0076  0.0006  0.0015  0.0026  0.0004  0.0006  0.0036  0.0056  0.0006 </r>
        <r>  0.0076  0.0029  0.0015  0.0002  0.0001  0.0050  0.0036  0.0012  0.0009 </r>
        <r>  0.0015  0.0035  0.0090  0.0010  0.0009  0.0055  0.0013  0.0027  0.0014 </r>
        <r>  0.0008  0.0399  0.0059  0.0140  0.0028  0.0002  0.0027  0.0014  0.0045 </r>
        <r>  0.0008  0.0241  0.0059  0.0298  0.0005  0.0015  0.0027  0.0001  0.0067 </r>
        <r>  0.0015  0.0008  0.0090  0.0038  0.0011  0.0018  0.0013  0.0063  0.0012 </r>
       </set>
       <set comment="band 42">
        <r>  0.0094  0.0237  0.0000  0.0427  0.0023  0.0034  0.0023  0.0003  0.0022 </r>
        <r>  0.0094  0.0507  0.0000  0.0156  0.0027  0.0000  0.0023  0.0036  0.0018 </r>
        <r>  0.0332  0.0025  0.0019  0.0015  0.0029  0.0012  0.0011  0.0018  0.0043 </r>
        <r>  0.0332  0.0018  0.0019  0.0022  0.0056  0.0014  0.0011  0.0017  0.0016 </r>
        <r>  0.0073  0.0093  0.0137  0.0155  0.0020  0.0003  0.0005  0.0005  0.0033 </r>
        <r>  0.0076  0.0153  0.0033  0.0070  0.0073  0.0005  0.0027  0.0001  0.0066 </r>
        <r>  0.0076  0.0112  0.0033  0.0111  0.0108  0.0000  0.0027  0.0006  0.0030 </r>
        <r>  0.0073  0.0196  0.0137  0.0052  0.0004  0.0003  0.0005  0.0004  0.0049 </r>
       </set>
       <set comment="band 43">
        <r>  0.0068  0.0085  0.0224  0.0865  0.0003  0.0011  0.0005  0.0012  0.0052 </r>
        <r>  0.0068  0.0770  0.0224  0.0181  0.0004  0.0017  0.0005  0.0006  0.0051 </r>
        <r>  0.0065  0.0067  0.0010  0.0028  0.0023  0.0003  0.0012  0.0014  0.0005 </r>
        <r>  0.0065  0.0020  0.0010  0.0075  0.0013  0.0017  0.0012  0.0001  0.0015 </r>
        <r>  0.0032  0.0036  0.0187  0.0074  0.0012  0.0013  0.0017  0.0035  0.0018 </r>
        <r>  0.0079  0.0003  0.0007  0.0006  0.0010  0.0040  0.0020  0.0035  0.0121 </r>
        <r>  0.0079  0.0005  0.0007  0.0005  0.0043  0.0024  0.0020  0.0051  0.0087 </r>
        <r>  0.0032  0.0077  0.0187  0.0033  0.0003  0.0041  0.0017  0.0006  0.0027 </r>
       </set>
       <set comment="band 44">
        <r>  0.0073  0.0180  0.0646  0.0080  0.0010  0.0009  0.0004  0.0005  0.0001 </r>
        <r>  0.0073  0.0088  0.0646  0.0173  0.0008  0.0004  0.0004  0.0010  0.0003 </r>
        <r>  0.0171  0.0038  0.0097  0.0008  0.0001  0.0012  0.0057  0.0019  0.0002 </r>
        <r>  0.0171  0.0010  0.0097  0.0036  0.0001  0.0025  0.0057  0.0007  0.0002 </r>
        <r>  0.0011  0.0067  0.0291  0.0024  0.0002  0.0033  0.0084  0.0047  0.0001 </r>
        <r>  0.0029  0.0076  0.0098  0.0013  0.0043  0.0040  0.0090  0.0002  0.0002 </r>
        <r>  0.0029  0.0020  0.0098  0.0068  0.0038  0.0001  0.0090  0.0041  0.0008 </r>
        <r>  0.0011  0.0041  0.0291  0.0050  0.0002  0.0053  0.0084  0.0027  0.0001 </r>
       </set>
       <set comment="band 45">
        <r>  0.0027  0.0287  0.0167  0.0061  0.0021  0.0008  0.0009  0.0008  0.0023 </r>
        <r>  0.0027  0.0109  0.0167  0.0239  0.0031  0.0006  0.0009  0.0010  0.0013 </r>
        <r>  0.0189  0.0199  0.0017  0.0109  0.0025  0.0029  0.0003  0.0003  0.0016 </r>
        <r>  0.0189  0.0168  0.0017  0.0139  0.0027  0.0008  0.0003  0.0025  0.0014 </r>
        <r>  0.0018  0.0025  0.0067  0.0077  0.0149  0.0003  0.0012  0.0011  0.0084 </r>
        <r>  0.0002  0.0128  0.0029  0.0107  0.0078  0.0011  0.0018  0.0003  0.0037 </r>
        <r>  0.0002  0.0151  0.0029  0.0084  0.0048  0.0003  0.0018  0.0011  0.0067 </r>
        <r>  0.0018  0.0073  0.0067  0.0029  0.0198  0.0012  0.0012  0.0001  0.0036 </r>
       </set>
       <set comment="band 46">
        <r>  0.0001  0.0166  0.0036  0.0153  0.0006  0.0038  0.0014  0.0038  0.0000 </r>
        <r>  0.0001  0.0097  0.0036  0.0222  0.0006  0.0053  0.0014  0.0023  0.0000 </r>
        <r>  0.0530  0.0156  0.0002  0.0196  0.0009  0.0024  0.0001  0.0004  0.0021 </r>
        <r>  0.0530  0.0127  0.0002  0.0225  0.0009  0.0002  0.0001  0.0026  0.0022 </r>
        <r>  0.0013  0.0138  0.0048  0.0056  0.0101  0.0061  0.0003  0.0016  0.0114 </r>
        <r>  0.0038  0.0034  0.0060  0.0042  0.0025  0.0040  0.0008  0.0093  0.0013 </r>
        <r>  0.0038  0.0051  0.0060  0.0026  0.0019  0.0086  0.0008  0.0048  0.0019 </r>
        <r>  0.0013  0.0063  0.0048  0.0130  0.0055  0.0009  0.0003  0.0068  0.0160 </r>
       </set>
       <set comment="band 47">
        <r>  0.0132  0.0325  0.0018  0.0090  0.0003  0.0001  0.0007  0.0016  0.0050 </r>
        <r>  0.0132  0.0033  0.0018  0.0382  0.0018  0.0014  0.0007  0.0002  0.0035 </r>
        <r>  0.0307  0.0086  0.0093  0.0028  0.0004  0.0008  0.0006  0.0001  0.0022 </r>
        <r>  0.0307  0.0049  0.0093  0.0064  0.0002  0.0001  0.0006  0.0007  0.0025 </r>
        <r>  0.0060  0.0033  0.0061  0.0259  0.0044  0.0011  0.0019  0.0065  0.0009 </r>
        <r>  0.0016  0.0072  0.0184  0.0267  0.0003  0.0060  0.0089  0.0021  0.0006 </r>
        <r>  0.0016  0.0208  0.0184  0.0130  0.0001  0.0032  0.0089  0.0050  0.0008 </r>
        <r>  0.0060  0.0251  0.0061  0.0042  0.0046  0.0073  0.0019  0.0003  0.0006 </r>
       </set>
       <set comment="band 48">
        <r>  0.0027  0.0047  0.0110  0.0019  0.0006  0.0012  0.0009  0.0015  0.0029 </r>
        <r>  0.0027  0.0032  0.0110  0.0035  0.0001  0.0017  0.0009  0.0010  0.0034 </r>
        <r>  0.0187  0.0046  0.0013  0.0308  0.0027  0.0019  0.0022  0.0015  0.0032 </r>
        <r>  0.0187  0.0261  0.0013  0.0093  0.0011  0.0018  0.0022  0.0016  0.0047 </r>
        <r>  0.0001  0.0112  0.0075  0.0054  0.0062  0.0087  0.0028  0.0005  0.0096 </r>
        <r>  0.0029  0.0136  0.0193  0.0020  0.0003  0.0049  0.0012  0.0118  0.0003 </r>
        <r>  0.0029  0.0007  0.0193  0.0149  0.0005  0.0134  0.0012  0.0033  0.0001 </r>
        <r>  0.0001  0.0064  0.0075  0.0102  0.0086  0.0015  0.0028  0.0078  0.0073 </r>
       </set>
       <set comment="band 49">
        <r>  0.0031  0.0028  0.0166  0.0019  0.0032  0.0023  0.0035  0.0074  0.0026 </r>
        <r>  0.0031  0.0013  0.0166  0.0034  0.0017  0.0088  0.0035  0.0010  0.0041 </r>
        <r>  0.0040  0.0067  0.0091  0.0006  0.0021  0.0056  0.0034  0.0009  0.0009 </r>
        <r>  0.0040  0.0014  0.0091  0.0058  0.0029  0.0019  0.0034  0.0046  0.0001 </r>
        <r>  0.0005  0.0018  0.0038  0.0260  0.0038  0.0049  0.0029  0.0101  0.0013 </r>
        <r>  0.0021  0.0031  0.0235  0.0124  0.0002  0.0056  0.0060  0.0049  0.0004 </r>
        <r>  0.0021  0.0098  0.0235  0.0057  0.0004  0.0068  0.0060  0.0036  0.0003 </r>
        <r>  0.0005  0.0268  0.0038  0.0010  0.0040  0.0114  0.0029  0.0036  0.0011 </r>
       </set>
       <set comment="band 50">
        <r>  0.0011  0.0206  0.0150  0.0088  0.0004  0.0014  0.0033  0.0006  0.0031 </r>
        <r>  0.0011  0.0145  0.0150  0.0150  0.0003  0.0009  0.0033  0.0010  0.0032 </r>
        <r>  0.0208  0.0035  0.0218  0.0032  0.0020  0.0038  0.0045  0.0007  0.0013 </r>
        <r>  0.0208  0.0045  0.0218  0.0022  0.0020  0.0015  0.0045  0.0030  0.0013 </r>
        <r>  0.0070  0.0023  0.0231  0.0012  0.0011  0.0017  0.0043  0.0052  0.0022 </r>
        <r>  0.0072  0.0020  0.0203  0.0018  0.0057  0.0072  0.0097  0.0004  0.0025 </r>
        <r>  0.0072  0.0014  0.0203  0.0024  0.0073  0.0014  0.0097  0.0062  0.0009 </r>
        <r>  0.0070  0.0008  0.0231  0.0027  0.0015  0.0058  0.0043  0.0011  0.0018 </r>
       </set>
       <set comment="band 51">
        <r>  0.0009  0.0022  0.0050  0.0157  0.0015  0.0100  0.0028  0.0071  0.0014 </r>
        <r>  0.0009  0.0173  0.0050  0.0007  0.0025  0.0104  0.0028  0.0067  0.0004 </r>
        <r>  0.0021  0.0013  0.0188  0.0050  0.0027  0.0037  0.0023  0.0013  0.0015 </r>
        <r>  0.0021  0.0059  0.0188  0.0005  0.0036  0.0023  0.0023  0.0027  0.0006 </r>
        <r>  0.0016  0.0142  0.0058  0.0029  0.0058  0.0072  0.0085  0.0031  0.0002 </r>
        <r>  0.0021  0.0106  0.0073  0.0044  0.0094  0.0102  0.0013  0.0032  0.0035 </r>
        <r>  0.0021  0.0023  0.0073  0.0127  0.0104  0.0057  0.0013  0.0077  0.0025 </r>
        <r>  0.0016  0.0009  0.0058  0.0163  0.0042  0.0051  0.0085  0.0052  0.0017 </r>
       </set>
       <set comment="band 52">
        <r>  0.0001  0.0153  0.0051  0.0219  0.0007  0.0026  0.0007  0.0027  0.0016 </r>
        <r>  0.0001  0.0158  0.0051  0.0214  0.0011  0.0019  0.0007  0.0034  0.0011 </r>
        <r>  0.0002  0.0162  0.0038  0.0162  0.0004  0.0023  0.0000  0.0059  0.0034 </r>
        <r>  0.0002  0.0110  0.0038  0.0214  0.0008  0.0044  0.0000  0.0038  0.0029 </r>
        <r>  0.0002  0.0189  0.0005  0.0145  0.0038  0.0114  0.0005  0.0022  0.0078 </r>
        <r>  0.0002  0.0042  0.0003  0.0128  0.0013  0.0043  0.0007  0.0162  0.0059 </r>
        <r>  0.0002  0.0098  0.0003  0.0071  0.0003  0.0136  0.0007  0.0069  0.0068 </r>
        <r>  0.0002  0.0082  0.0005  0.0251  0.0005  0.0009  0.0005  0.0127  0.0111 </r>
       </set>
       <set comment="band 53">
        <r>  0.0009  0.0069  0.0049  0.0156  0.0004  0.0089  0.0008  0.0077  0.0114 </r>
        <r>  0.0009  0.0191  0.0049  0.0034  0.0007  0.0050  0.0008  0.0117  0.0111 </r>
        <r>  0.0108  0.0011  0.0041  0.0020  0.0003  0.0003  0.0005  0.0046  0.0078 </r>
        <r>  0.0108  0.0025  0.0041  0.0006  0.0011  0.0045  0.0005  0.0003  0.0069 </r>
        <r>  0.0022  0.0183  0.0033  0.0005  0.0015  0.0058  0.0027  0.0033  0.0074 </r>
        <r>  0.0015  0.0012  0.0033  0.0147  0.0028  0.0033  0.0020  0.0051  0.0143 </r>
        <r>  0.0015  0.0158  0.0033  0.0001  0.0002  0.0034  0.0020  0.0049  0.0169 </r>
        <r>  0.0022  0.0024  0.0033  0.0164  0.0008  0.0019  0.0027  0.0073  0.0081 </r>
       </set>
       <set comment="band 54">
        <r>  0.0008  0.0165  0.0075  0.0050  0.0028  0.0054  0.0024  0.0002  0.0047 </r>
        <r>  0.0008  0.0087  0.0075  0.0128  0.0030  0.0000  0.0024  0.0056  0.0045 </r>
        <r>  0.0127  0.0076  0.0071  0.0053  0.0018  0.0042  0.0014  0.0033  0.0032 </r>
        <r>  0.0127  0.0079  0.0071  0.0051  0.0012  0.0035  0.0014  0.0041  0.0038 </r>
        <r>  0.0052  0.0227  0.0049  0.0045  0.0014  0.0004  0.0035  0.0063  0.0040 </r>
        <r>  0.0055  0.0072  0.0026  0.0179  0.0027  0.0029  0.0020  0.0020  0.0081 </r>
        <r>  0.0055  0.0218  0.0026  0.0033  0.0038  0.0011  0.0020  0.0038  0.0070 </r>
        <r>  0.0052  0.0080  0.0049  0.0192  0.0035  0.0060  0.0035  0.0006  0.0020 </r>
       </set>
       <set comment="band 55">
        <r>  0.0010  0.0214  0.0288  0.0020  0.0069  0.0001  0.0082  0.0038  0.0018 </r>
        <r>  0.0010  0.0052  0.0288  0.0182  0.0079  0.0039  0.0082  0.0000  0.0008 </r>
        <r>  0.0030  0.0122  0.0026  0.0018  0.0005  0.0060  0.0001  0.0008  0.0007 </r>
        <r>  0.0030  0.0009  0.0026  0.0131  0.0002  0.0004  0.0001  0.0064  0.0010 </r>
        <r>  0.0022  0.0011  0.0041  0.0048  0.0016  0.0007  0.0014  0.0184  0.0005 </r>
        <r>  0.0057  0.0097  0.0054  0.0037  0.0019  0.0037  0.0070  0.0002  0.0038 </r>
        <r>  0.0057  0.0016  0.0054  0.0118  0.0019  0.0006  0.0070  0.0033  0.0038 </r>
        <r>  0.0022  0.0038  0.0041  0.0021  0.0018  0.0177  0.0014  0.0014  0.0003 </r>
       </set>
       <set comment="band 56">
        <r>  0.0002  0.0028  0.0355  0.0129  0.0022  0.0000  0.0016  0.0008  0.0035 </r>
        <r>  0.0002  0.0141  0.0355  0.0016  0.0025  0.0008  0.0016  0.0000  0.0033 </r>
        <r>  0.0011  0.0039  0.0084  0.0175  0.0048  0.0008  0.0026  0.0059  0.0018 </r>
        <r>  0.0011  0.0197  0.0084  0.0016  0.0037  0.0050  0.0026  0.0018  0.0030 </r>
        <r>  0.0094  0.0002  0.0053  0.0096  0.0006  0.0077  0.0044  0.0026  0.0065 </r>
        <r>  0.0043  0.0057  0.0038  0.0049  0.0021  0.0057  0.0037  0.0045  0.0008 </r>
        <r>  0.0043  0.0030  0.0038  0.0076  0.0025  0.0037  0.0037  0.0066  0.0004 </r>
        <r>  0.0094  0.0087  0.0053  0.0011  0.0003  0.0011  0.0044  0.0092  0.0069 </r>
       </set>
       <set comment="band 57">
        <r>  0.0031  0.0012  0.0007  0.0026  0.0023  0.0062  0.0074  0.0002  0.0010 </r>
        <r>  0.0031  0.0031  0.0007  0.0008  0.0015  0.0009  0.0074  0.0055  0.0018 </r>
        <r>  0.0031  0.0170  0.0188  0.0085  0.0038  0.0007  0.0065  0.0046  0.0010 </r>
        <r>  0.0031  0.0130  0.0188  0.0125  0.0041  0.0051  0.0065  0.0002  0.0006 </r>
        <r>  0.0031  0.0037  0.0013  0.0011  0.0053  0.0145  0.0056  0.0006  0.0023 </r>
        <r>  0.0034  0.0009  0.0019  0.0035  0.0023  0.0069  0.0010  0.0097  0.0028 </r>
        <r>  0.0034  0.0031  0.0019  0.0012  0.0040  0.0128  0.0010  0.0038  0.0010 </r>
        <r>  0.0031  0.0010  0.0013  0.0038  0.0056  0.0023  0.0056  0.0128  0.0020 </r>
       </set>
       <set comment="band 58">
        <r>  0.0222  0.0008  0.0045  0.0033  0.0049  0.0036  0.0059  0.0022  0.0001 </r>
        <r>  0.0222  0.0036  0.0045  0.0004  0.0041  0.0032  0.0059  0.0025  0.0010 </r>
        <r>  0.0255  0.0026  0.0115  0.0012  0.0017  0.0013  0.0010  0.0021  0.0000 </r>
        <r>  0.0255  0.0019  0.0115  0.0019  0.0013  0.0027  0.0010  0.0007  0.0004 </r>
        <r>  0.0009  0.0002  0.0022  0.0002  0.0018  0.0041  0.0018  0.0088  0.0003 </r>
        <r>  0.0003  0.0009  0.0022  0.0001  0.0019  0.0097  0.0003  0.0047  0.0026 </r>
        <r>  0.0003  0.0000  0.0022  0.0009  0.0006  0.0067  0.0003  0.0077  0.0039 </r>
        <r>  0.0009  0.0002  0.0022  0.0002  0.0019  0.0106  0.0018  0.0023  0.0001 </r>
       </set>
       <set comment="band 59">
        <r>  0.0009  0.0139  0.0011  0.0278  0.0008  0.0087  0.0006  0.0050  0.0147 </r>
        <r>  0.0009  0.0196  0.0011  0.0221  0.0007  0.0026  0.0006  0.0110  0.0148 </r>
        <r>  0.0007  0.0057  0.0003  0.0054  0.0004  0.0015  0.0005  0.0031  0.0077 </r>
        <r>  0.0007  0.0033  0.0003  0.0078  0.0012  0.0026  0.0005  0.0020  0.0070 </r>
        <r>  0.0003  0.0012  0.0016  0.0058  0.0002  0.0105  0.0009  0.0043  0.0215 </r>
        <r>  0.0008  0.0005  0.0009  0.0005  0.0046  0.0071  0.0015  0.0122  0.0278 </r>
        <r>  0.0008  0.0007  0.0009  0.0003  0.0002  0.0087  0.0015  0.0106  0.0321 </r>
        <r>  0.0003  0.0047  0.0016  0.0023  0.0047  0.0019  0.0010  0.0129  0.0170 </r>
       </set>
       <set comment="band 60">
        <r>  0.0064  0.0001  0.0125  0.0005  0.0046  0.0010  0.0074  0.0034  0.0065 </r>
        <r>  0.0069  0.0005  0.0134  0.0002  0.0096  0.0038  0.0084  0.0009  0.0022 </r>
        <r>  0.0010  0.0026  0.0016  0.0034  0.0019  0.0006  0.0024  0.0004  0.0019 </r>
        <r>  0.0011  0.0031  0.0020  0.0028  0.0024  0.0006  0.0028  0.0005  0.0016 </r>
        <r>  0.0026  0.0041  0.0007  0.0054  0.0004  0.0072  0.0020  0.0135  0.0048 </r>
        <r>  0.0011  0.0050  0.0005  0.0086  0.0009  0.0002  0.0043  0.0053  0.0103 </r>
        <r>  0.0012  0.0055  0.0005  0.0068  0.0008  0.0046  0.0048  0.0001  0.0098 </r>
        <r>  0.0027  0.0035  0.0008  0.0050  0.0018  0.0098  0.0026  0.0099  0.0026 </r>
       </set>
      </set>
     </set>
    </set>
   </array>
  </projected>
 </calculation>
 <structure name="finalpos" >
  <crystal>
   <varray name="basis" >
    <v>       5.30291920       0.00000000      -2.36402939 </v>
    <v>      -1.05387957       5.19714218      -2.36402972 </v>
    <v>       0.00000000       0.00000000       7.12968660 </v>
   </varray>
   <i name="volume">    196.49434127 </i>
   <varray name="rec_basis" >
    <v>       0.18857538       0.03823943       0.00000000 </v>
    <v>       0.00000000       0.19241344       0.00000000 </v>
    <v>       0.06252698       0.07647885       0.14025862 </v>
   </varray>
  </crystal>
  <varray name="positions" >
   <v>       0.50000000       0.50000000       0.00000000 </v>
   <v>       0.75000000       0.25000000       0.50000000 </v>
   <v>       0.00000000       0.00000000       0.00000000 </v>
   <v>       0.25000000       0.75000000       0.50000000 </v>
   <v>       0.34516103       0.37500000       0.25000000 </v>
   <v>       0.90483897       0.87500000       0.25000000 </v>
   <v>       0.12500000       0.65483897       0.75000000 </v>
   <v>       0.62500000       0.09516103       0.75000000 </v>
  </varray>
 </structure>
</modeling>
