   2   2   1   0
  0.2016476E+02  0.3849278E-09  0.3849279E-09  0.3849278E-09  0.5000000E-15
  1.000000000000000E-004
  CAR 
 unknown system                          
     38.92139729     -8.37005619 1315      5.73823601      1.00000000
     -8.370  0.0000E+00  0.0000E+00
     -8.334  0.0000E+00  0.0000E+00
     -8.298  0.0000E+00  0.0000E+00
     -8.262  0.0000E+00  0.0000E+00
     -8.226  0.0000E+00  0.0000E+00
     -8.190  0.0000E+00  0.0000E+00
     -8.154  0.0000E+00  0.0000E+00
     -8.118  0.0000E+00  0.0000E+00
     -8.082  0.0000E+00  0.0000E+00
     -8.046  0.0000E+00  0.0000E+00
     -8.010  0.0000E+00  0.0000E+00
     -7.974  0.0000E+00  0.0000E+00
     -7.938  0.0000E+00  0.0000E+00
     -7.902  0.0000E+00  0.0000E+00
     -7.866  0.0000E+00  0.0000E+00
     -7.830  0.0000E+00  0.0000E+00
     -7.794  0.0000E+00  0.0000E+00
     -7.758  0.0000E+00  0.0000E+00
     -7.722  0.0000E+00  0.0000E+00
     -7.686  0.0000E+00  0.0000E+00
     -7.650  0.0000E+00  0.0000E+00
     -7.614  0.0000E+00  0.0000E+00
     -7.578  0.0000E+00  0.0000E+00
     -7.542  0.0000E+00  0.0000E+00
     -7.506  0.0000E+00  0.0000E+00
     -7.470  0.0000E+00  0.0000E+00
     -7.434  0.0000E+00  0.0000E+00
     -7.398  0.0000E+00  0.0000E+00
     -7.362  0.0000E+00  0.0000E+00
     -7.326  0.0000E+00  0.0000E+00
     -7.290  0.0000E+00  0.0000E+00
     -7.254  0.0000E+00  0.0000E+00
     -7.218  0.0000E+00  0.0000E+00
     -7.182  0.0000E+00  0.0000E+00
     -7.146  0.0000E+00  0.0000E+00
     -7.110  0.0000E+00  0.0000E+00
     -7.074  0.0000E+00  0.0000E+00
     -7.038  0.0000E+00  0.0000E+00
     -7.002  0.0000E+00  0.0000E+00
     -6.966  0.0000E+00  0.0000E+00
     -6.930  0.0000E+00  0.0000E+00
     -6.894  0.0000E+00  0.0000E+00
     -6.858  0.0000E+00  0.0000E+00
     -6.822  0.0000E+00  0.0000E+00
     -6.786  0.0000E+00  0.0000E+00
     -6.750  0.0000E+00  0.0000E+00
     -6.714  0.0000E+00  0.0000E+00
     -6.679  0.0000E+00  0.0000E+00
     -6.643  0.0000E+00  0.0000E+00
     -6.607  0.0000E+00  0.0000E+00
     -6.571  0.0000E+00  0.0000E+00
     -6.535  0.0000E+00  0.0000E+00
     -6.499  0.0000E+00  0.0000E+00
     -6.463  0.0000E+00  0.0000E+00
     -6.427  0.0000E+00  0.0000E+00
     -6.391  0.0000E+00  0.0000E+00
     -6.355  0.0000E+00  0.0000E+00
     -6.319  0.0000E+00  0.0000E+00
     -6.283  0.0000E+00  0.0000E+00
     -6.247  0.0000E+00  0.0000E+00
     -6.211  0.3998E-03  0.1308E-05
     -6.175  0.8707E-02  0.1329E-03
     -6.139  0.2776E-01  0.7570E-03
     -6.103  0.5757E-01  0.2260E-02
     -6.067  0.9813E-01  0.5030E-02
     -6.031  0.1494E+00  0.9453E-02
     -5.995  0.1558E+00  0.1529E-01
     -5.959  0.1486E+00  0.2070E-01
     -5.923  0.1595E+00  0.2622E-01
     -5.887  0.1718E+00  0.3218E-01
     -5.851  0.1845E+00  0.3860E-01
     -5.815  0.1977E+00  0.4547E-01
     -5.779  0.2112E+00  0.5283E-01
     -5.743  0.2251E+00  0.6068E-01
     -5.707  0.2394E+00  0.6904E-01
     -5.671  0.2540E+00  0.7792E-01
     -5.635  0.2668E+00  0.8730E-01
     -5.599  0.2772E+00  0.9710E-01
     -5.563  0.2852E+00  0.1072E+00
     -5.527  0.2906E+00  0.1176E+00
     -5.491  0.2936E+00  0.1281E+00
     -5.455  0.2977E+00  0.1387E+00
     -5.419  0.3052E+00  0.1496E+00
     -5.383  0.3139E+00  0.1607E+00
     -5.347  0.3227E+00  0.1722E+00
     -5.311  0.3317E+00  0.1840E+00
     -5.275  0.3407E+00  0.1961E+00
     -5.239  0.3498E+00  0.2085E+00
     -5.203  0.3591E+00  0.2212E+00
     -5.167  0.3684E+00  0.2343E+00
     -5.131  0.3778E+00  0.2478E+00
     -5.095  0.3874E+00  0.2615E+00
     -5.059  0.3971E+00  0.2756E+00
     -5.023  0.4069E+00  0.2901E+00
     -4.987  0.4169E+00  0.3049E+00
     -4.951  0.4235E+00  0.3201E+00
     -4.915  0.4292E+00  0.3354E+00
     -4.879  0.4367E+00  0.3510E+00
     -4.843  0.4446E+00  0.3669E+00
     -4.807  0.4526E+00  0.3830E+00
     -4.771  0.4608E+00  0.3994E+00
     -4.735  0.4690E+00  0.4162E+00
     -4.699  0.4774E+00  0.4332E+00
     -4.663  0.4859E+00  0.4505E+00
     -4.627  0.4947E+00  0.4682E+00
     -4.591  0.5042E+00  0.4861E+00
     -4.555  0.5142E+00  0.5045E+00
     -4.519  0.5249E+00  0.5232E+00
     -4.483  0.5360E+00  0.5423E+00
     -4.447  0.5475E+00  0.5618E+00
     -4.411  0.5597E+00  0.5817E+00
     -4.375  0.5723E+00  0.6020E+00
     -4.339  0.5853E+00  0.6229E+00
     -4.303  0.5987E+00  0.6442E+00
     -4.267  0.6125E+00  0.6660E+00
     -4.231  0.6267E+00  0.6883E+00
     -4.195  0.6412E+00  0.7111E+00
     -4.159  0.6562E+00  0.7344E+00
     -4.123  0.6722E+00  0.7583E+00
     -4.087  0.6892E+00  0.7828E+00
     -4.051  0.7071E+00  0.8080E+00
     -4.015  0.7382E+00  0.8339E+00
     -3.979  0.7955E+00  0.8614E+00
     -3.943  0.8725E+00  0.8914E+00
     -3.907  0.9687E+00  0.9244E+00
     -3.871  0.1064E+01  0.9612E+00
     -3.835  0.1022E+01  0.9992E+00
     -3.799  0.8475E+00  0.1033E+01
     -3.763  0.8425E+00  0.1063E+01
     -3.727  0.8379E+00  0.1094E+01
     -3.691  0.8336E+00  0.1124E+01
     -3.655  0.8296E+00  0.1154E+01
     -3.619  0.8260E+00  0.1183E+01
     -3.583  0.8226E+00  0.1213E+01
     -3.547  0.8193E+00  0.1243E+01
     -3.511  0.8162E+00  0.1272E+01
     -3.475  0.8100E+00  0.1301E+01
     -3.439  0.7953E+00  0.1330E+01
     -3.403  0.7720E+00  0.1358E+01
     -3.367  0.7401E+00  0.1386E+01
     -3.331  0.7060E+00  0.1412E+01
     -3.295  0.7000E+00  0.1437E+01
     -3.259  0.7054E+00  0.1462E+01
     -3.223  0.7073E+00  0.1488E+01
     -3.187  0.7056E+00  0.1513E+01
     -3.151  0.7004E+00  0.1538E+01
     -3.115  0.6916E+00  0.1563E+01
     -3.079  0.6802E+00  0.1588E+01
     -3.043  0.6684E+00  0.1612E+01
     -3.007  0.6562E+00  0.1636E+01
     -2.971  0.6437E+00  0.1660E+01
     -2.935  0.6309E+00  0.1682E+01
     -2.900  0.6289E+00  0.1705E+01
     -2.864  0.6240E+00  0.1728E+01
     -2.828  0.6161E+00  0.1750E+01
     -2.792  0.6052E+00  0.1772E+01
     -2.756  0.5909E+00  0.1794E+01
     -2.720  0.5590E+00  0.1814E+01
     -2.684  0.5271E+00  0.1834E+01
     -2.648  0.4951E+00  0.1852E+01
     -2.612  0.4631E+00  0.1869E+01
     -2.576  0.4311E+00  0.1886E+01
     -2.540  0.3990E+00  0.1900E+01
     -2.504  0.3668E+00  0.1914E+01
     -2.468  0.3349E+00  0.1927E+01
     -2.432  0.3038E+00  0.1938E+01
     -2.396  0.2736E+00  0.1949E+01
     -2.360  0.2443E+00  0.1958E+01
     -2.324  0.2158E+00  0.1966E+01
     -2.288  0.1883E+00  0.1974E+01
     -2.252  0.1616E+00  0.1980E+01
     -2.216  0.1358E+00  0.1985E+01
     -2.180  0.1110E+00  0.1990E+01
     -2.144  0.8697E-01  0.1993E+01
     -2.108  0.6386E-01  0.1996E+01
     -2.072  0.4217E-01  0.1998E+01
     -2.036  0.2729E-01  0.1999E+01
     -2.000  0.2069E-01  0.2000E+01
     -1.964  0.2350E-01  0.2001E+01
     -1.928  0.3633E-01  0.2002E+01
     -1.892  0.5669E-01  0.2003E+01
     -1.856  0.7830E-01  0.2006E+01
     -1.820  0.1009E+00  0.2009E+01
     -1.784  0.1244E+00  0.2013E+01
     -1.748  0.1488E+00  0.2018E+01
     -1.712  0.1742E+00  0.2024E+01
     -1.676  0.2006E+00  0.2031E+01
     -1.640  0.2278E+00  0.2038E+01
     -1.604  0.2561E+00  0.2047E+01
     -1.568  0.2853E+00  0.2057E+01
     -1.532  0.3154E+00  0.2068E+01
     -1.496  0.3465E+00  0.2079E+01
     -1.460  0.3789E+00  0.2092E+01
     -1.424  0.4129E+00  0.2107E+01
     -1.388  0.4486E+00  0.2122E+01
     -1.352  0.4859E+00  0.2139E+01
     -1.316  0.5248E+00  0.2157E+01
     -1.280  0.5654E+00  0.2177E+01
     -1.244  0.6087E+00  0.2198E+01
     -1.208  0.6622E+00  0.2221E+01
     -1.172  0.7930E+00  0.2247E+01
     -1.136  0.9213E+00  0.2278E+01
     -1.100  0.1035E+01  0.2313E+01
     -1.064  0.1161E+01  0.2352E+01
     -1.028  0.1620E+01  0.2403E+01
     -0.992  0.1732E+01  0.2463E+01
     -0.956  0.1706E+01  0.2526E+01
     -0.920  0.1543E+01  0.2584E+01
     -0.884  0.1312E+01  0.2636E+01
     -0.848  0.1153E+01  0.2680E+01
     -0.812  0.1049E+01  0.2719E+01
     -0.776  0.9629E+00  0.2755E+01
     -0.740  0.8939E+00  0.2789E+01
     -0.704  0.8419E+00  0.2820E+01
     -0.668  0.8072E+00  0.2850E+01
     -0.632  0.7835E+00  0.2878E+01
     -0.596  0.7607E+00  0.2906E+01
     -0.560  0.7385E+00  0.2933E+01
     -0.524  0.7169E+00  0.2959E+01
     -0.488  0.6959E+00  0.2985E+01
     -0.452  0.6754E+00  0.3009E+01
     -0.416  0.6556E+00  0.3033E+01
     -0.380  0.6364E+00  0.3056E+01
     -0.344  0.6178E+00  0.3079E+01
     -0.308  0.5998E+00  0.3101E+01
     -0.272  0.5824E+00  0.3122E+01
     -0.236  0.5656E+00  0.3143E+01
     -0.200  0.5467E+00  0.3163E+01
     -0.164  0.5232E+00  0.3182E+01
     -0.128  0.4950E+00  0.3201E+01
     -0.092  0.4767E+00  0.3218E+01
     -0.056  0.4620E+00  0.3235E+01
     -0.020  0.4483E+00  0.3251E+01
      0.016  0.4357E+00  0.3267E+01
      0.052  0.4242E+00  0.3283E+01
      0.088  0.4138E+00  0.3298E+01
      0.124  0.4044E+00  0.3312E+01
      0.160  0.3961E+00  0.3327E+01
      0.196  0.3889E+00  0.3341E+01
      0.232  0.3827E+00  0.3355E+01
      0.268  0.3773E+00  0.3368E+01
      0.304  0.3721E+00  0.3382E+01
      0.340  0.3669E+00  0.3395E+01
      0.376  0.3619E+00  0.3408E+01
      0.412  0.3569E+00  0.3421E+01
      0.448  0.3520E+00  0.3434E+01
      0.484  0.3470E+00  0.3447E+01
      0.520  0.3420E+00  0.3459E+01
      0.556  0.3368E+00  0.3471E+01
      0.592  0.3315E+00  0.3483E+01
      0.628  0.3261E+00  0.3495E+01
      0.664  0.3206E+00  0.3507E+01
      0.700  0.3150E+00  0.3518E+01
      0.736  0.3093E+00  0.3529E+01
      0.772  0.3035E+00  0.3540E+01
      0.808  0.2975E+00  0.3551E+01
      0.843  0.2915E+00  0.3562E+01
      0.879  0.2856E+00  0.3572E+01
      0.915  0.2799E+00  0.3582E+01
      0.951  0.2743E+00  0.3592E+01
      0.987  0.2689E+00  0.3602E+01
      1.023  0.2636E+00  0.3612E+01
      1.059  0.2584E+00  0.3621E+01
      1.095  0.2519E+00  0.3630E+01
      1.131  0.2410E+00  0.3639E+01
      1.167  0.2312E+00  0.3648E+01
      1.203  0.2223E+00  0.3656E+01
      1.239  0.2145E+00  0.3664E+01
      1.275  0.2076E+00  0.3671E+01
      1.311  0.2018E+00  0.3679E+01
      1.347  0.1969E+00  0.3686E+01
      1.383  0.1930E+00  0.3693E+01
      1.419  0.2211E+00  0.3700E+01
      1.455  0.3435E+00  0.3710E+01
      1.491  0.5395E+00  0.3726E+01
      1.527  0.7497E+00  0.3749E+01
      1.563  0.9707E+00  0.3780E+01
      1.599  0.1202E+01  0.3819E+01
      1.635  0.1433E+01  0.3867E+01
      1.671  0.1333E+01  0.3916E+01
      1.707  0.1256E+01  0.3963E+01
      1.743  0.1186E+01  0.4007E+01
      1.779  0.1136E+01  0.4048E+01
      1.815  0.1105E+01  0.4089E+01
      1.851  0.1093E+01  0.4128E+01
      1.887  0.1087E+01  0.4167E+01
      1.923  0.1085E+01  0.4206E+01
      1.959  0.1086E+01  0.4246E+01
      1.995  0.1089E+01  0.4285E+01
      2.031  0.1093E+01  0.4324E+01
      2.067  0.1099E+01  0.4363E+01
      2.103  0.1106E+01  0.4403E+01
      2.139  0.1115E+01  0.4443E+01
      2.175  0.1125E+01  0.4483E+01
      2.211  0.1125E+01  0.4524E+01
      2.247  0.1108E+01  0.4564E+01
      2.283  0.1686E+01  0.4611E+01
      2.319  0.1151E+01  0.4660E+01
      2.355  0.1062E+01  0.4699E+01
      2.391  0.1083E+01  0.4738E+01
      2.427  0.1087E+01  0.4777E+01
      2.463  0.1093E+01  0.4816E+01
      2.499  0.1103E+01  0.4856E+01
      2.535  0.1117E+01  0.4896E+01
      2.571  0.1135E+01  0.4936E+01
      2.607  0.1156E+01  0.4977E+01
      2.643  0.1181E+01  0.5019E+01
      2.679  0.1210E+01  0.5062E+01
      2.715  0.1242E+01  0.5106E+01
      2.751  0.1279E+01  0.5152E+01
      2.787  0.1322E+01  0.5199E+01
      2.823  0.1363E+01  0.5247E+01
      2.859  0.1400E+01  0.5297E+01
      2.895  0.1435E+01  0.5348E+01
      2.931  0.1469E+01  0.5400E+01
      2.967  0.1521E+01  0.5454E+01
      3.003  0.1675E+01  0.5511E+01
      3.039  0.1857E+01  0.5575E+01
      3.075  0.1590E+01  0.5637E+01
      3.111  0.1497E+01  0.5692E+01
      3.147  0.1489E+01  0.5746E+01
      3.183  0.1480E+01  0.5799E+01
      3.219  0.1471E+01  0.5852E+01
      3.255  0.1462E+01  0.5905E+01
      3.291  0.1453E+01  0.5957E+01
      3.327  0.1445E+01  0.6010E+01
      3.363  0.1436E+01  0.6061E+01
      3.399  0.1428E+01  0.6113E+01
      3.435  0.1413E+01  0.6164E+01
      3.471  0.1395E+01  0.6215E+01
      3.507  0.1377E+01  0.6264E+01
      3.543  0.1376E+01  0.6314E+01
      3.579  0.1385E+01  0.6364E+01
      3.615  0.1392E+01  0.6414E+01
      3.651  0.1396E+01  0.6464E+01
      3.687  0.1397E+01  0.6514E+01
      3.723  0.1394E+01  0.6564E+01
      3.759  0.1389E+01  0.6614E+01
      3.795  0.1381E+01  0.6664E+01
      3.831  0.1371E+01  0.6714E+01
      3.867  0.1360E+01  0.6763E+01
      3.903  0.1348E+01  0.6812E+01
      3.939  0.1334E+01  0.6860E+01
      3.975  0.1320E+01  0.6908E+01
      4.011  0.1304E+01  0.6955E+01
      4.047  0.1288E+01  0.7002E+01
      4.083  0.1271E+01  0.7048E+01
      4.119  0.1253E+01  0.7093E+01
      4.155  0.1236E+01  0.7138E+01
      4.191  0.1248E+01  0.7182E+01
      4.227  0.1256E+01  0.7228E+01
      4.263  0.1260E+01  0.7273E+01
      4.299  0.1258E+01  0.7318E+01
      4.335  0.1249E+01  0.7363E+01
      4.371  0.1234E+01  0.7408E+01
      4.407  0.1206E+01  0.7452E+01
      4.443  0.1154E+01  0.7494E+01
      4.479  0.1088E+01  0.7535E+01
      4.515  0.9933E+00  0.7572E+01
      4.551  0.8813E+00  0.7606E+01
      4.587  0.7951E+00  0.7636E+01
      4.622  0.7369E+00  0.7664E+01
      4.658  0.7006E+00  0.7690E+01
      4.694  0.6656E+00  0.7714E+01
      4.730  0.6304E+00  0.7737E+01
      4.766  0.5949E+00  0.7759E+01
      4.802  0.5591E+00  0.7780E+01
      4.838  0.5231E+00  0.7800E+01
      4.874  0.4868E+00  0.7818E+01
      4.910  0.4502E+00  0.7835E+01
      4.946  0.4134E+00  0.7850E+01
      4.982  0.3860E+00  0.7865E+01
      5.018  0.3630E+00  0.7878E+01
      5.054  0.3414E+00  0.7891E+01
      5.090  0.3214E+00  0.7903E+01
      5.126  0.3029E+00  0.7914E+01
      5.162  0.2859E+00  0.7925E+01
      5.198  0.2703E+00  0.7935E+01
      5.234  0.2563E+00  0.7944E+01
      5.270  0.2438E+00  0.7953E+01
      5.306  0.2328E+00  0.7962E+01
      5.342  0.2233E+00  0.7970E+01
      5.378  0.2153E+00  0.7978E+01
      5.414  0.2088E+00  0.7985E+01
      5.450  0.1015E+00  0.7991E+01
      5.486  0.7632E-01  0.7994E+01
      5.522  0.5475E-01  0.7996E+01
      5.558  0.3675E-01  0.7998E+01
      5.594  0.2233E-01  0.7999E+01
      5.630  0.1148E-01  0.8000E+01
      5.666  0.4208E-02  0.8000E+01
      5.702  0.5103E-03  0.8000E+01
      5.738  0.0000E+00  0.8000E+01
      5.774  0.0000E+00  0.8000E+01
      5.810  0.0000E+00  0.8000E+01
      5.846  0.0000E+00  0.8000E+01
      5.882  0.0000E+00  0.8000E+01
      5.918  0.0000E+00  0.8000E+01
      5.954  0.0000E+00  0.8000E+01
      5.990  0.0000E+00  0.8000E+01
      6.026  0.0000E+00  0.8000E+01
      6.062  0.0000E+00  0.8000E+01
      6.098  0.0000E+00  0.8000E+01
      6.134  0.0000E+00  0.8000E+01
      6.170  0.0000E+00  0.8000E+01
      6.206  0.0000E+00  0.8000E+01
      6.242  0.4640E-03  0.8000E+01
      6.278  0.1527E-01  0.8000E+01
      6.314  0.5089E-01  0.8001E+01
      6.350  0.9749E-01  0.8004E+01
      6.386  0.1322E+00  0.8008E+01
      6.422  0.1542E+00  0.8013E+01
      6.458  0.1634E+00  0.8019E+01
      6.494  0.1598E+00  0.8025E+01
      6.530  0.1642E+00  0.8031E+01
      6.566  0.1831E+00  0.8037E+01
      6.602  0.2030E+00  0.8044E+01
      6.638  0.2238E+00  0.8052E+01
      6.674  0.2454E+00  0.8060E+01
      6.710  0.2680E+00  0.8069E+01
      6.746  0.2915E+00  0.8079E+01
      6.782  0.3156E+00  0.8090E+01
      6.818  0.3388E+00  0.8102E+01
      6.854  0.3611E+00  0.8115E+01
      6.890  0.3827E+00  0.8128E+01
      6.926  0.4036E+00  0.8142E+01
      6.962  0.4237E+00  0.8157E+01
      6.998  0.4454E+00  0.8173E+01
      7.034  0.4686E+00  0.8189E+01
      7.070  0.4912E+00  0.8206E+01
      7.106  0.5133E+00  0.8224E+01
      7.142  0.5348E+00  0.8243E+01
      7.178  0.5572E+00  0.8263E+01
      7.214  0.5843E+00  0.8284E+01
      7.250  0.6166E+00  0.8305E+01
      7.286  0.6543E+00  0.8328E+01
      7.322  0.6963E+00  0.8352E+01
      7.358  0.7414E+00  0.8378E+01
      7.394  0.7893E+00  0.8406E+01
      7.430  0.8403E+00  0.8435E+01
      7.466  0.8943E+00  0.8466E+01
      7.502  0.9519E+00  0.8499E+01
      7.538  0.1014E+01  0.8535E+01
      7.574  0.1079E+01  0.8572E+01
      7.610  0.1164E+01  0.8613E+01
      7.646  0.1232E+01  0.8656E+01
      7.682  0.1305E+01  0.8702E+01
      7.718  0.1397E+01  0.8750E+01
      7.754  0.1510E+01  0.8802E+01
      7.790  0.1642E+01  0.8859E+01
      7.826  0.1774E+01  0.8921E+01
      7.862  0.1860E+01  0.8986E+01
      7.898  0.1906E+01  0.9054E+01
      7.934  0.1935E+01  0.9123E+01
      7.970  0.1954E+01  0.9193E+01
      8.006  0.1962E+01  0.9264E+01
      8.042  0.1985E+01  0.9335E+01
      8.078  0.2008E+01  0.9406E+01
      8.114  0.2104E+01  0.9480E+01
      8.150  0.2171E+01  0.9557E+01
      8.186  0.2130E+01  0.9635E+01
      8.222  0.2073E+01  0.9710E+01
      8.258  0.1994E+01  0.9784E+01
      8.294  0.1876E+01  0.9854E+01
      8.330  0.1718E+01  0.9918E+01
      8.366  0.1522E+01  0.9977E+01
      8.401  0.1339E+01  0.1003E+02
      8.437  0.1186E+01  0.1007E+02
      8.473  0.1061E+01  0.1011E+02
      8.509  0.8630E+00  0.1015E+02
      8.545  0.6679E+00  0.1018E+02
      8.581  0.5734E+00  0.1020E+02
      8.617  0.5106E+00  0.1022E+02
      8.653  0.4794E+00  0.1024E+02
      8.689  0.5009E+00  0.1025E+02
      8.725  0.5487E+00  0.1027E+02
      8.761  0.5971E+00  0.1029E+02
      8.797  0.6484E+00  0.1031E+02
      8.833  0.7091E+00  0.1034E+02
      8.869  0.7800E+00  0.1037E+02
      8.905  0.8611E+00  0.1040E+02
      8.941  0.9525E+00  0.1043E+02
      8.977  0.1054E+01  0.1046E+02
      9.013  0.1177E+01  0.1050E+02
      9.049  0.1393E+01  0.1055E+02
      9.085  0.1712E+01  0.1061E+02
      9.121  0.2137E+01  0.1067E+02
      9.157  0.2646E+01  0.1076E+02
      9.193  0.2934E+01  0.1086E+02
      9.229  0.3287E+01  0.1097E+02
      9.265  0.3450E+01  0.1109E+02
      9.301  0.2968E+01  0.1121E+02
      9.337  0.2529E+01  0.1131E+02
      9.373  0.2102E+01  0.1140E+02
      9.409  0.1834E+01  0.1147E+02
      9.445  0.1639E+01  0.1153E+02
      9.481  0.1510E+01  0.1158E+02
      9.517  0.1440E+01  0.1164E+02
      9.553  0.1414E+01  0.1169E+02
      9.589  0.1395E+01  0.1174E+02
      9.625  0.1373E+01  0.1179E+02
      9.661  0.1349E+01  0.1184E+02
      9.697  0.1321E+01  0.1189E+02
      9.733  0.1290E+01  0.1193E+02
      9.769  0.1266E+01  0.1198E+02
      9.805  0.1268E+01  0.1202E+02
      9.841  0.1285E+01  0.1207E+02
      9.877  0.1313E+01  0.1212E+02
      9.913  0.1908E+01  0.1217E+02
      9.949  0.1690E+01  0.1224E+02
      9.985  0.1494E+01  0.1229E+02
     10.021  0.1320E+01  0.1234E+02
     10.057  0.1171E+01  0.1239E+02
     10.093  0.1046E+01  0.1243E+02
     10.129  0.9479E+00  0.1246E+02
     10.165  0.9086E+00  0.1250E+02
     10.201  0.8996E+00  0.1253E+02
     10.237  0.8976E+00  0.1256E+02
     10.273  0.9001E+00  0.1259E+02
     10.309  0.9069E+00  0.1263E+02
     10.345  0.9138E+00  0.1266E+02
     10.381  0.9069E+00  0.1269E+02
     10.417  0.8882E+00  0.1273E+02
     10.453  0.8717E+00  0.1276E+02
     10.489  0.8568E+00  0.1279E+02
     10.525  0.8435E+00  0.1282E+02
     10.561  0.8318E+00  0.1285E+02
     10.597  0.8216E+00  0.1288E+02
     10.633  0.8129E+00  0.1291E+02
     10.669  0.8948E+00  0.1294E+02
     10.705  0.1026E+01  0.1297E+02
     10.741  0.1162E+01  0.1301E+02
     10.777  0.1305E+01  0.1306E+02
     10.813  0.1489E+01  0.1311E+02
     10.849  0.1713E+01  0.1316E+02
     10.885  0.1725E+01  0.1323E+02
     10.921  0.1491E+01  0.1328E+02
     10.957  0.1476E+01  0.1334E+02
     10.993  0.1453E+01  0.1339E+02
     11.029  0.1422E+01  0.1344E+02
     11.065  0.1383E+01  0.1349E+02
     11.101  0.1340E+01  0.1354E+02
     11.137  0.1302E+01  0.1359E+02
     11.173  0.1287E+01  0.1364E+02
     11.209  0.1267E+01  0.1368E+02
     11.245  0.1242E+01  0.1373E+02
     11.281  0.1210E+01  0.1377E+02
     11.317  0.1172E+01  0.1381E+02
     11.353  0.1129E+01  0.1386E+02
     11.389  0.1079E+01  0.1390E+02
     11.425  0.1030E+01  0.1393E+02
     11.461  0.9985E+00  0.1397E+02
     11.497  0.9846E+00  0.1401E+02
     11.533  0.9884E+00  0.1404E+02
     11.569  0.1009E+01  0.1408E+02
     11.605  0.1000E+01  0.1411E+02
     11.641  0.9724E+00  0.1415E+02
     11.677  0.9488E+00  0.1418E+02
     11.713  0.9264E+00  0.1422E+02
     11.749  0.9049E+00  0.1425E+02
     11.785  0.8828E+00  0.1428E+02
     11.821  0.8583E+00  0.1431E+02
     11.857  0.8314E+00  0.1434E+02
     11.893  0.8020E+00  0.1437E+02
     11.929  0.7977E+00  0.1440E+02
     11.965  0.8072E+00  0.1443E+02
     12.001  0.8172E+00  0.1446E+02
     12.037  0.8359E+00  0.1449E+02
     12.073  0.8663E+00  0.1452E+02
     12.109  0.9207E+00  0.1455E+02
     12.145  0.9846E+00  0.1459E+02
     12.180  0.1020E+01  0.1462E+02
     12.216  0.1054E+01  0.1466E+02
     12.252  0.1087E+01  0.1470E+02
     12.288  0.1119E+01  0.1474E+02
     12.324  0.1151E+01  0.1478E+02
     12.360  0.1181E+01  0.1482E+02
     12.396  0.1210E+01  0.1486E+02
     12.432  0.1238E+01  0.1491E+02
     12.468  0.1266E+01  0.1495E+02
     12.504  0.1292E+01  0.1500E+02
     12.540  0.1317E+01  0.1505E+02
     12.576  0.1342E+01  0.1509E+02
     12.612  0.1366E+01  0.1514E+02
     12.648  0.1418E+01  0.1519E+02
     12.684  0.1478E+01  0.1525E+02
     12.720  0.1505E+01  0.1530E+02
     12.756  0.1502E+01  0.1535E+02
     12.792  0.1491E+01  0.1541E+02
     12.828  0.1475E+01  0.1546E+02
     12.864  0.1455E+01  0.1551E+02
     12.900  0.1419E+01  0.1556E+02
     12.936  0.1384E+01  0.1562E+02
     12.972  0.1350E+01  0.1566E+02
     13.008  0.1311E+01  0.1571E+02
     13.044  0.1266E+01  0.1576E+02
     13.080  0.1243E+01  0.1580E+02
     13.116  0.1253E+01  0.1585E+02
     13.152  0.1269E+01  0.1589E+02
     13.188  0.1282E+01  0.1594E+02
     13.224  0.1292E+01  0.1599E+02
     13.260  0.1293E+01  0.1603E+02
     13.296  0.1283E+01  0.1608E+02
     13.332  0.1263E+01  0.1613E+02
     13.368  0.1231E+01  0.1617E+02
     13.404  0.1190E+01  0.1621E+02
     13.440  0.1168E+01  0.1626E+02
     13.476  0.1177E+01  0.1630E+02
     13.512  0.1213E+01  0.1634E+02
     13.548  0.1267E+01  0.1639E+02
     13.584  0.1347E+01  0.1643E+02
     13.620  0.1454E+01  0.1648E+02
     13.656  0.1459E+01  0.1654E+02
     13.692  0.1473E+01  0.1659E+02
     13.728  0.1522E+01  0.1664E+02
     13.764  0.1527E+01  0.1670E+02
     13.800  0.1485E+01  0.1675E+02
     13.836  0.1397E+01  0.1680E+02
     13.872  0.1307E+01  0.1685E+02
     13.908  0.1251E+01  0.1690E+02
     13.944  0.1187E+01  0.1694E+02
     13.980  0.1114E+01  0.1698E+02
     14.016  0.1093E+01  0.1702E+02
     14.052  0.1077E+01  0.1706E+02
     14.088  0.1079E+01  0.1710E+02
     14.124  0.1083E+01  0.1714E+02
     14.160  0.1087E+01  0.1718E+02
     14.196  0.1093E+01  0.1722E+02
     14.232  0.1098E+01  0.1726E+02
     14.268  0.1103E+01  0.1730E+02
     14.304  0.1109E+01  0.1734E+02
     14.340  0.1115E+01  0.1738E+02
     14.376  0.1120E+01  0.1742E+02
     14.412  0.1126E+01  0.1746E+02
     14.448  0.1133E+01  0.1750E+02
     14.484  0.1139E+01  0.1754E+02
     14.520  0.1145E+01  0.1758E+02
     14.556  0.1151E+01  0.1762E+02
     14.592  0.1158E+01  0.1766E+02
     14.628  0.1166E+01  0.1770E+02
     14.664  0.1173E+01  0.1775E+02
     14.700  0.1181E+01  0.1779E+02
     14.736  0.1192E+01  0.1783E+02
     14.772  0.1206E+01  0.1787E+02
     14.808  0.1222E+01  0.1792E+02
     14.844  0.1242E+01  0.1796E+02
     14.880  0.1266E+01  0.1801E+02
     14.916  0.1293E+01  0.1805E+02
     14.952  0.1325E+01  0.1810E+02
     14.988  0.1360E+01  0.1815E+02
     15.024  0.1396E+01  0.1820E+02
     15.060  0.1434E+01  0.1825E+02
     15.096  0.1472E+01  0.1830E+02
     15.132  0.1512E+01  0.1836E+02
     15.168  0.1552E+01  0.1841E+02
     15.204  0.1593E+01  0.1847E+02
     15.240  0.1636E+01  0.1853E+02
     15.276  0.1671E+01  0.1859E+02
     15.312  0.1696E+01  0.1865E+02
     15.348  0.1720E+01  0.1871E+02
     15.384  0.1702E+01  0.1877E+02
     15.420  0.1677E+01  0.1883E+02
     15.456  0.1655E+01  0.1889E+02
     15.492  0.1636E+01  0.1895E+02
     15.528  0.1620E+01  0.1901E+02
     15.564  0.1608E+01  0.1907E+02
     15.600  0.1599E+01  0.1912E+02
     15.636  0.1591E+01  0.1918E+02
     15.672  0.1608E+01  0.1924E+02
     15.708  0.1636E+01  0.1930E+02
     15.744  0.1661E+01  0.1936E+02
     15.780  0.1689E+01  0.1942E+02
     15.816  0.2024E+01  0.1948E+02
     15.852  0.1676E+01  0.1955E+02
     15.888  0.1534E+01  0.1961E+02
     15.923  0.1530E+01  0.1966E+02
     15.959  0.1528E+01  0.1972E+02
     15.995  0.1527E+01  0.1977E+02
     16.031  0.1527E+01  0.1983E+02
     16.067  0.1529E+01  0.1988E+02
     16.103  0.1532E+01  0.1994E+02
     16.139  0.1511E+01  0.1999E+02
     16.175  0.1312E+01  0.2004E+02
     16.211  0.1258E+01  0.2009E+02
     16.247  0.1294E+01  0.2014E+02
     16.283  0.1334E+01  0.2018E+02
     16.319  0.1379E+01  0.2023E+02
     16.355  0.1437E+01  0.2028E+02
     16.391  0.1422E+01  0.2034E+02
     16.427  0.1368E+01  0.2039E+02
     16.463  0.1247E+01  0.2043E+02
     16.499  0.1030E+01  0.2047E+02
     16.535  0.8523E+00  0.2051E+02
     16.571  0.7157E+00  0.2054E+02
     16.607  0.6197E+00  0.2056E+02
     16.643  0.5623E+00  0.2058E+02
     16.679  0.5142E+00  0.2060E+02
     16.715  0.4708E+00  0.2062E+02
     16.751  0.4854E+00  0.2064E+02
     16.787  0.5044E+00  0.2065E+02
     16.823  0.5440E+00  0.2067E+02
     16.859  0.6070E+00  0.2069E+02
     16.895  0.6906E+00  0.2072E+02
     16.931  0.7676E+00  0.2074E+02
     16.967  0.8291E+00  0.2077E+02
     17.003  0.8766E+00  0.2080E+02
     17.039  0.9108E+00  0.2083E+02
     17.075  0.9317E+00  0.2087E+02
     17.111  0.9213E+00  0.2090E+02
     17.147  0.8709E+00  0.2093E+02
     17.183  0.8384E+00  0.2096E+02
     17.219  0.8318E+00  0.2099E+02
     17.255  0.8475E+00  0.2102E+02
     17.291  0.8776E+00  0.2105E+02
     17.327  0.9058E+00  0.2109E+02
     17.363  0.9359E+00  0.2112E+02
     17.399  0.9679E+00  0.2115E+02
     17.435  0.1002E+01  0.2119E+02
     17.471  0.1038E+01  0.2123E+02
     17.507  0.1076E+01  0.2126E+02
     17.543  0.1116E+01  0.2130E+02
     17.579  0.1151E+01  0.2134E+02
     17.615  0.1183E+01  0.2139E+02
     17.651  0.1214E+01  0.2143E+02
     17.687  0.1242E+01  0.2147E+02
     17.723  0.1271E+01  0.2152E+02
     17.759  0.1299E+01  0.2157E+02
     17.795  0.1325E+01  0.2161E+02
     17.831  0.1364E+01  0.2166E+02
     17.867  0.1454E+01  0.2171E+02
     17.903  0.1530E+01  0.2177E+02
     17.939  0.1570E+01  0.2182E+02
     17.975  0.1555E+01  0.2188E+02
     18.011  0.1671E+01  0.2194E+02
     18.047  0.1776E+01  0.2200E+02
     18.083  0.1861E+01  0.2206E+02
     18.119  0.1936E+01  0.2213E+02
     18.155  0.1970E+01  0.2220E+02
     18.191  0.1963E+01  0.2227E+02
     18.227  0.1950E+01  0.2234E+02
     18.263  0.1944E+01  0.2241E+02
     18.299  0.1948E+01  0.2248E+02
     18.335  0.1971E+01  0.2255E+02
     18.371  0.2012E+01  0.2263E+02
     18.407  0.2071E+01  0.2270E+02
     18.443  0.2149E+01  0.2277E+02
     18.479  0.1953E+01  0.2285E+02
     18.515  0.1937E+01  0.2292E+02
     18.551  0.1954E+01  0.2299E+02
     18.587  0.1966E+01  0.2306E+02
     18.623  0.1996E+01  0.2313E+02
     18.659  0.2051E+01  0.2320E+02
     18.695  0.2084E+01  0.2328E+02
     18.731  0.2070E+01  0.2335E+02
     18.767  0.2011E+01  0.2343E+02
     18.803  0.1914E+01  0.2350E+02
     18.839  0.1779E+01  0.2356E+02
     18.875  0.1542E+01  0.2362E+02
     18.911  0.1425E+01  0.2368E+02
     18.947  0.1419E+01  0.2373E+02
     18.983  0.1445E+01  0.2378E+02
     19.019  0.1481E+01  0.2383E+02
     19.055  0.1524E+01  0.2388E+02
     19.091  0.1567E+01  0.2394E+02
     19.127  0.1610E+01  0.2400E+02
     19.163  0.1654E+01  0.2406E+02
     19.199  0.1699E+01  0.2412E+02
     19.235  0.1746E+01  0.2418E+02
     19.271  0.1793E+01  0.2424E+02
     19.307  0.1838E+01  0.2431E+02
     19.343  0.1885E+01  0.2437E+02
     19.379  0.1936E+01  0.2444E+02
     19.415  0.1985E+01  0.2451E+02
     19.451  0.2025E+01  0.2459E+02
     19.487  0.2033E+01  0.2466E+02
     19.523  0.1995E+01  0.2473E+02
     19.559  0.1912E+01  0.2480E+02
     19.595  0.1822E+01  0.2487E+02
     19.631  0.1752E+01  0.2493E+02
     19.667  0.1680E+01  0.2500E+02
     19.702  0.1606E+01  0.2505E+02
     19.738  0.1530E+01  0.2511E+02
     19.774  0.1457E+01  0.2516E+02
     19.810  0.1392E+01  0.2522E+02
     19.846  0.1144E+01  0.2526E+02
     19.882  0.1114E+01  0.2530E+02
     19.918  0.1103E+01  0.2534E+02
     19.954  0.1096E+01  0.2538E+02
     19.990  0.1117E+01  0.2542E+02
     20.026  0.1142E+01  0.2546E+02
     20.062  0.1164E+01  0.2550E+02
     20.098  0.1184E+01  0.2555E+02
     20.134  0.1204E+01  0.2559E+02
     20.170  0.1225E+01  0.2563E+02
     20.206  0.1257E+01  0.2568E+02
     20.242  0.1312E+01  0.2572E+02
     20.278  0.1391E+01  0.2577E+02
     20.314  0.1499E+01  0.2582E+02
     20.350  0.1636E+01  0.2588E+02
     20.386  0.1801E+01  0.2594E+02
     20.422  0.1930E+01  0.2601E+02
     20.458  0.2001E+01  0.2608E+02
     20.494  0.2030E+01  0.2615E+02
     20.530  0.2092E+01  0.2623E+02
     20.566  0.2182E+01  0.2630E+02
     20.602  0.2250E+01  0.2638E+02
     20.638  0.2276E+01  0.2647E+02
     20.674  0.2221E+01  0.2655E+02
     20.710  0.2123E+01  0.2662E+02
     20.746  0.2008E+01  0.2670E+02
     20.782  0.1859E+01  0.2677E+02
     20.818  0.1710E+01  0.2683E+02
     20.854  0.1589E+01  0.2689E+02
     20.890  0.1489E+01  0.2695E+02
     20.926  0.1410E+01  0.2700E+02
     20.962  0.1353E+01  0.2705E+02
     20.998  0.1337E+01  0.2710E+02
     21.034  0.1282E+01  0.2714E+02
     21.070  0.1182E+01  0.2719E+02
     21.106  0.1040E+01  0.2723E+02
     21.142  0.9438E+00  0.2726E+02
     21.178  0.9155E+00  0.2730E+02
     21.214  0.9069E+00  0.2733E+02
     21.250  0.9026E+00  0.2736E+02
     21.286  0.9041E+00  0.2740E+02
     21.322  0.9144E+00  0.2743E+02