<?xml version="1.0" encoding="ISO-8859-1"?>
<modeling>
 <generator>
  <i name="program" type="string">vasp </i>
  <i name="version" type="string">6.4.2  </i>
  <i name="subversion" type="string">20Jul23 (build Mar 15 2024 16:31:38) complex                          parallel </i>
  <i name="platform" type="string">LinuxIFC </i>
  <i name="date" type="string">2025 03 19 </i>
  <i name="time" type="string">14:40:15 </i>
 </generator>
 <incar>
  <i type="string" name="PREC">Accurate</i>
  <i type="string" name="ALGO">Fast</i>
  <i type="int" name="ISPIN">     1</i>
  <i type="int" name="ICHARG">    11</i>
  <i type="int" name="NELM">   200</i>
  <i name="EDIFF">      0.00001000</i>
  <i type="int" name="NSW">     0</i>
  <i type="int" name="ISYM">     2</i>
  <i name="ENCUT">    680.00000000</i>
  <i name="ENAUG">   1360.00000000</i>
  <i type="int" name="NBANDS">    15</i>
  <i type="int" name="NEDOS">  1315</i>
  <i type="logical" name="LREAL"> F  </i>
  <i type="int" name="ISMEAR">    -5</i>
  <i name="SIGMA">      0.05000000</i>
  <i type="logical" name="LWAVE"> T  </i>
  <i type="logical" name="LCHARG"> F  </i>
  <i type="logical" name="LVTOT"> T  </i>
  <i type="int" name="LORBIT">    11</i>
  <i type="logical" name="LELF"> F  </i>
  <i type="logical" name="LASPH"> T  </i>
  <i type="logical" name="LAECHG"> T  </i>
  <i type="string" name="GGA">Ps</i>
  <i type="logical" name="LMIXTAU"> T  </i>
 </incar>
 <primitive_cell>
  <structure name="primitive_cell" >
   <crystal>
    <varray name="basis" >
     <v>       3.33357300       0.00000000       1.92463900 </v>
     <v>       1.11119100       3.14292400       1.92463900 </v>
     <v>       0.00000000       0.00000000       3.84927800 </v>
    </varray>
    <i name="volume">     40.32952680 </i>
    <varray name="rec_basis" >
     <v>       0.29997843      -0.10605835       0.00000000 </v>
     <v>       0.00000000       0.31817505       0.00000000 </v>
     <v>      -0.14998922      -0.10605835       0.25978898 </v>
    </varray>
   </crystal>
   <varray name="positions" >
    <v>       0.87500000       0.87500000       0.87500000 </v>
    <v>       0.12500000       0.12500000       0.12500000 </v>
   </varray>
  </structure>
  <varray name="primitive_index" >
   <v type="int" >        1 </v>
   <v type="int" >        2 </v>
  </varray>
 </primitive_cell>
 <kpoints>
  <generation param="Gamma">
   <v type="int" name="divisions">       8        8        8 </v>
   <v name="usershift">      0.00000000       0.00000000       0.00000000 </v>
   <v name="genvec1">      0.12500000       0.00000000       0.00000000 </v>
   <v name="genvec2">      0.00000000       0.12500000       0.00000000 </v>
   <v name="genvec3">      0.00000000       0.00000000       0.12500000 </v>
   <v name="shift">      0.00000000       0.00000000       0.00000000 </v>
  </generation>
  <varray name="kpointlist" >
   <v>       0.00000000       0.00000000       0.00000000 </v>
   <v>       0.12500000       0.00000000       0.00000000 </v>
   <v>       0.25000000       0.00000000       0.00000000 </v>
   <v>       0.37500000       0.00000000       0.00000000 </v>
   <v>       0.50000000       0.00000000       0.00000000 </v>
   <v>       0.12500000       0.12500000       0.00000000 </v>
   <v>       0.25000000       0.12500000       0.00000000 </v>
   <v>       0.37500000       0.12500000       0.00000000 </v>
   <v>       0.50000000       0.12500000       0.00000000 </v>
   <v>      -0.37500000       0.12500000       0.00000000 </v>
   <v>      -0.25000000       0.12500000       0.00000000 </v>
   <v>      -0.12500000       0.12500000       0.00000000 </v>
   <v>       0.25000000       0.25000000       0.00000000 </v>
   <v>       0.37500000       0.25000000       0.00000000 </v>
   <v>       0.50000000       0.25000000       0.00000000 </v>
   <v>      -0.37500000       0.25000000       0.00000000 </v>
   <v>      -0.25000000       0.25000000       0.00000000 </v>
   <v>       0.37500000       0.37500000       0.00000000 </v>
   <v>       0.50000000       0.37500000       0.00000000 </v>
   <v>      -0.37500000       0.37500000       0.00000000 </v>
   <v>       0.50000000       0.50000000       0.00000000 </v>
   <v>       0.37500000       0.25000000       0.12500000 </v>
   <v>       0.50000000       0.25000000       0.12500000 </v>
   <v>      -0.37500000       0.25000000       0.12500000 </v>
   <v>       0.50000000       0.37500000       0.12500000 </v>
   <v>      -0.37500000       0.37500000       0.12500000 </v>
   <v>      -0.25000000       0.37500000       0.12500000 </v>
   <v>      -0.37500000       0.50000000       0.12500000 </v>
   <v>      -0.25000000       0.50000000       0.25000000 </v>
  </varray>
  <varray name="weights" >
   <v>       0.00195312 </v>
   <v>       0.01562500 </v>
   <v>       0.01562500 </v>
   <v>       0.01562500 </v>
   <v>       0.00781250 </v>
   <v>       0.01171875 </v>
   <v>       0.04687500 </v>
   <v>       0.04687500 </v>
   <v>       0.04687500 </v>
   <v>       0.04687500 </v>
   <v>       0.04687500 </v>
   <v>       0.02343750 </v>
   <v>       0.01171875 </v>
   <v>       0.04687500 </v>
   <v>       0.04687500 </v>
   <v>       0.04687500 </v>
   <v>       0.02343750 </v>
   <v>       0.01171875 </v>
   <v>       0.04687500 </v>
   <v>       0.02343750 </v>
   <v>       0.00585938 </v>
   <v>       0.04687500 </v>
   <v>       0.09375000 </v>
   <v>       0.04687500 </v>
   <v>       0.04687500 </v>
   <v>       0.09375000 </v>
   <v>       0.04687500 </v>
   <v>       0.02343750 </v>
   <v>       0.01171875 </v>
  </varray>
  <varray name="tetrahedronlist"  type="int" >
   <v type="int" >       48        2        3        7       12 </v>
   <v type="int" >       48        7       11       12       22 </v>
   <v type="int" >       24       11       11       12       22 </v>
   <v type="int" >       48        3        7       11       12 </v>
   <v type="int" >       48       11       17       22       23 </v>
   <v type="int" >       48       10       11       17       23 </v>
   <v type="int" >       24       11       11       17       22 </v>
   <v type="int" >       48       10       16       23       24 </v>
   <v type="int" >       48        9       10       16       24 </v>
   <v type="int" >       48       10       16       17       23 </v>
   <v type="int" >       48        9       15       23       24 </v>
   <v type="int" >       48        8        9       15       23 </v>
   <v type="int" >       48        9       15       16       24 </v>
   <v type="int" >       48        8       14       22       23 </v>
   <v type="int" >       48        7        8       14       22 </v>
   <v type="int" >       48        8       14       15       23 </v>
   <v type="int" >       24        7        7       13       22 </v>
   <v type="int" >       24        6        7        7       13 </v>
   <v type="int" >       48        7       13       14       22 </v>
   <v type="int" >       24        6        7        7       12 </v>
   <v type="int" >       48        2        6        7       12 </v>
   <v type="int" >       48        7        8       11       22 </v>
   <v type="int" >       48        3        7        8       11 </v>
   <v type="int" >       48       14       22       23       25 </v>
   <v type="int" >       24       22       23       23       25 </v>
   <v type="int" >       24       17       22       23       23 </v>
   <v type="int" >       48        8       11       22       23 </v>
   <v type="int" >       48       23       25       26       27 </v>
   <v type="int" >       48       23       24       26       27 </v>
   <v type="int" >       48       16       23       24       27 </v>
   <v type="int" >       24       23       23       25       27 </v>
   <v type="int" >       24       17       23       23       27 </v>
   <v type="int" >       48       16       17       23       27 </v>
   <v type="int" >       48       24       26       26       27 </v>
   <v type="int" >       48       15       23       24       26 </v>
   <v type="int" >       48       16       24       26       27 </v>
   <v type="int" >       48       15       16       24       26 </v>
   <v type="int" >       48       15       23       25       26 </v>
   <v type="int" >       48       14       15       23       25 </v>
   <v type="int" >       24       14       14       22       25 </v>
   <v type="int" >       24       13       14       14       22 </v>
   <v type="int" >       24        7        7       12       22 </v>
   <v type="int" >       48       14       15       19       25 </v>
   <v type="int" >       48       19       25       26       28 </v>
   <v type="int" >       24       25       26       26       28 </v>
   <v type="int" >       24       25       26       26       27 </v>
   <v type="int" >       48       15       19       25       26 </v>
   <v type="int" >       48       26       26       28       29 </v>
   <v type="int" >       96       26       26       27       29 </v>
   <v type="int" >       48        8        9       10       23 </v>
   <v type="int" >       48        8       10       11       23 </v>
   <v type="int" >       24       19       19       20       28 </v>
   <v type="int" >       48       19       20       26       28 </v>
   <v type="int" >       48       15       19       20       26 </v>
   <v type="int" >       24       20       26       26       28 </v>
   <v type="int" >       48        9        9       10       24 </v>
   <v type="int" >       48        9       10       23       24 </v>
   <v type="int" >       24        2        2        6       12 </v>
   <v type="int" >       48        3        4        8       11 </v>
   <v type="int" >       48        4        8       10       11 </v>
   <v type="int" >       24       16       16       17       27 </v>
   <v type="int" >       48       16       20       26       27 </v>
   <v type="int" >       48       15       16       20       26 </v>
   <v type="int" >       24       16       16       20       27 </v>
   <v type="int" >       24       14       14       18       25 </v>
   <v type="int" >       24       13       14       14       18 </v>
   <v type="int" >       48       14       18       19       25 </v>
   <v type="int" >       48        4        8        9       10 </v>
   <v type="int" >       24       20       26       26       27 </v>
   <v type="int" >       24       19       19       25       28 </v>
   <v type="int" >       24       18       19       19       25 </v>
   <v type="int" >       48        4        5        9       10 </v>
   <v type="int" >       48        5        9        9       10 </v>
   <v type="int" >       48       19       19       21       28 </v>
   <v type="int" >       24       18       19       19       21 </v>
   <v type="int" >       24        1        2        2        6 </v>
  </varray>
  <i name="volumeweight">      0.00032552 </i>
 </kpoints>
 <parameters>
  <separator name="general" >
   <i type="string" name="SYSTEM">unknown system</i>
   <i type="logical" name="LCOMPAT"> F  </i>
  </separator>
  <separator name="electronic" >
   <i type="string" name="PREC">accura</i>
   <i name="ENMAX">    680.00000000</i>
   <i name="ENAUG">   1360.00000000</i>
   <i name="EDIFF">      0.00001000</i>
   <i type="int" name="IALGO">    68</i>
   <i type="int" name="IWAVPR">    10</i>
   <i type="int" name="NBANDS">    24</i>
   <i type="int" name="NBANDSLOW">    -1</i>
   <i type="int" name="NBANDSHIGH">    -1</i>
   <i name="NELECT">      8.00000000</i>
   <i type="int" name="TURBO">     0</i>
   <i type="int" name="IRESTART">     0</i>
   <i type="int" name="NREBOOT">     0</i>
   <i type="int" name="NMIN">     0</i>
   <i name="EREF">      0.00000000</i>
   <separator name="electronic smearing" >
    <i type="int" name="ISMEAR">    -5</i>
    <i name="SIGMA">      0.05000000</i>
    <i name="KSPACING">      0.50000000</i>
    <i type="logical" name="KGAMMA"> T  </i>
    <i type="logical" name="KBLOWUP"> T  </i>
   </separator>
   <separator name="electronic projectors" >
    <i type="logical" name="LREAL"> F  </i>
    <v name="ROPT">      0.00000000</v>
    <i type="int" name="LMAXPAW">  -100</i>
    <i type="int" name="LMAXMIX">     2</i>
    <i type="logical" name="NLSPLINE"> F  </i>
   </separator>
   <separator name="electronic startup" >
    <i type="int" name="ISTART">     0</i>
    <i type="int" name="ICHARG">    11</i>
    <i type="int" name="INIWAV">     1</i>
   </separator>
   <separator name="electronic spin" >
    <i type="int" name="ISPIN">     1</i>
    <i type="logical" name="LNONCOLLINEAR"> F  </i>
    <v name="MAGMOM">      1.00000000      1.00000000</v>
    <i name="NUPDOWN">     -1.00000000</i>
    <i type="logical" name="LSORBIT"> F  </i>
    <v name="SAXIS">      0.00000000      0.00000000      1.00000000</v>
    <i type="logical" name="LSPIRAL"> F  </i>
    <v name="QSPIRAL">      0.00000000      0.00000000      0.00000000</v>
    <i type="logical" name="LZEROZ"> F  </i>
   </separator>
   <separator name="electronic exchange-correlation" >
    <i type="logical" name="LASPH"> T  </i>
    <i type="logical" name="LMETAGGA"> F  </i>
   </separator>
   <separator name="electronic convergence" >
    <i type="int" name="NELM">   200</i>
    <i type="int" name="NELMDL">    -5</i>
    <i type="int" name="NELMIN">     2</i>
    <i name="ENINI">    680.00000000</i>
    <separator name="electronic convergence detail" >
     <i type="logical" name="LDIAG"> T  </i>
     <i type="logical" name="LSUBROT"> F  </i>
     <i name="WEIMIN">      0.00000000</i>
     <i name="EBREAK">      0.00000010</i>
     <i name="DEPER">      0.30000000</i>
     <i type="int" name="NRMM">     4</i>
     <i name="TIME">      0.40000000</i>
    </separator>
   </separator>
   <separator name="electronic mixer" >
    <i name="AMIX">      0.40000000</i>
    <i name="BMIX">      1.00000000</i>
    <i name="AMIN">      0.10000000</i>
    <i name="AMIX_MAG">      1.60000000</i>
    <i name="BMIX_MAG">      1.00000000</i>
    <separator name="electronic mixer details" >
     <i type="int" name="IMIX">     4</i>
     <i type="logical" name="MIXFIRST"> F  </i>
     <i type="int" name="MAXMIX">   -45</i>
     <i name="WC">    100.00000000</i>
     <i type="int" name="INIMIX">     1</i>
     <i type="int" name="MIXPRE">     1</i>
     <i type="int" name="MREMOVE">     5</i>
    </separator>
   </separator>
   <separator name="electronic dipolcorrection" >
    <i type="logical" name="LDIPOL"> F  </i>
    <i type="logical" name="LMONO"> F  </i>
    <i type="int" name="IDIPOL">     0</i>
    <i name="EPSILON">      1.00000000</i>
    <v name="DIPOL">   -100.00000000   -100.00000000   -100.00000000</v>
    <i name="EFIELD">      0.00000000</i>
   </separator>
  </separator>
  <separator name="grids" >
   <i type="int" name="NGX">    36</i>
   <i type="int" name="NGY">    36</i>
   <i type="int" name="NGZ">    36</i>
   <i type="int" name="NGXF">    72</i>
   <i type="int" name="NGYF">    72</i>
   <i type="int" name="NGZF">    72</i>
   <i type="logical" name="ADDGRID"> F  </i>
  </separator>
  <separator name="ionic" >
   <i type="int" name="NSW">     0</i>
   <i type="int" name="IBRION">    -1</i>
   <i type="int" name="MDALGO">     0</i>
   <i type="int" name="ISIF">     2</i>
   <i name="PSTRESS">      0.00000000</i>
   <i name="EDIFFG">      0.00010000</i>
   <i type="int" name="NFREE">     0</i>
   <i name="POTIM">      0.50000000</i>
   <i name="SMASS">     -3.00000000</i>
   <i name="SCALEE">      1.00000000</i>
  </separator>
  <separator name="ionic md" >
   <i name="TEBEG">      0.00010000</i>
   <i name="TEEND">      0.00010000</i>
   <i type="int" name="NBLOCK">     1</i>
   <i type="int" name="KBLOCK">     1</i>
   <i type="int" name="NPACO">   256</i>
   <i name="APACO">     10.00000000</i>
  </separator>
  <separator name="symmetry" >
   <i type="int" name="ISYM">     2</i>
   <i name="SYMPREC">      0.00001000</i>
  </separator>
  <separator name="dos" >
   <i type="int" name="LORBIT">    11</i>
   <v name="RWIGS">     -1.00000000</v>
   <i type="int" name="NEDOS">  1315</i>
   <i name="EMIN">     10.00000000</i>
   <i name="EMAX">    -10.00000000</i>
   <i name="EFERMI">      0.00000000</i>
  </separator>
  <separator name="writing" >
   <i type="int" name="NWRITE">     2</i>
   <i type="logical" name="LWAVE"> T  </i>
   <i type="logical" name="LDOWNSAMPLE"> F  </i>
   <i type="logical" name="LCHARG"> F  </i>
   <i type="logical" name="LPARD"> F  </i>
   <i type="logical" name="LVTOT"> T  </i>
   <i type="logical" name="LVHAR"> F  </i>
   <i type="logical" name="LELF"> F  </i>
   <i type="logical" name="LOPTICS"> F  </i>
   <v name="STM">      0.00000000      0.00000000      0.00000000      0.00000000      0.00000000      0.00000000      0.00000000</v>
  </separator>
  <separator name="performance" >
   <i type="int" name="NPAR">    12</i>
   <i type="int" name="NSIM">     4</i>
   <i type="int" name="NBLK">    -1</i>
   <i type="logical" name="LPLANE"> T  </i>
   <i type="logical" name="LSCALAPACK"> T  </i>
   <i type="logical" name="LSCAAWARE"> T  </i>
   <i type="logical" name="LSCALU"> F  </i>
   <i type="logical" name="LASYNC"> F  </i>
   <i type="logical" name="LORBITALREAL"> F  </i>
  </separator>
  <separator name="miscellaneous" >
   <i type="int" name="IDIOT">     3</i>
   <i type="int" name="PHON_NSTRUCT">    -1</i>
   <i type="logical" name="LMUSIC"> F  </i>
   <v name="POMASS">     28.08500000</v>
   <v name="DARWINR">      0.00000000</v>
   <v name="DARWINV">      1.00000000</v>
   <i type="logical" name="LCORR"> T  </i>
  </separator>
  <i type="logical" name="GGA_COMPAT"> T  </i>
  <i type="logical" name="LBERRY"> F  </i>
  <i type="int" name="ICORELEVEL">     0</i>
  <i type="logical" name="LDAU"> F  </i>
  <i type="int" name="I_CONSTRAINED_M">     0</i>
  <separator name="electronic exchange-correlation" >
   <i type="string" name="GGA">PS</i>
   <i type="int" name="VOSKOWN">     0</i>
   <i type="logical" name="LHFCALC"> F  </i>
   <i type="string" name="PRECFOCK"></i>
   <i type="logical" name="LSYMGRAD"> F  </i>
   <i type="logical" name="LHFONE"> F  </i>
   <i type="logical" name="LRHFCALC"> F  </i>
   <i type="logical" name="LTHOMAS"> F  </i>
   <i type="logical" name="LMODELHF"> F  </i>
   <i type="logical" name="LFOCKACE"> F  </i>
   <i name="ENCUT4O">     -1.00000000</i>
   <i type="int" name="EXXOEP">     0</i>
   <i type="int" name="FOURORBIT">     0</i>
   <i name="AEXX">      0.00000000</i>
   <i name="HFALPHA">      0.00000000</i>
   <i name="MCALPHA">      0.00000000</i>
   <i name="ALDAX">      1.00000000</i>
   <i name="AGGAX">      1.00000000</i>
   <i name="ALDAC">      1.00000000</i>
   <i name="AGGAC">      1.00000000</i>
   <i type="int" name="NKREDX">     1</i>
   <i type="int" name="NKREDY">     1</i>
   <i type="int" name="NKREDZ">     1</i>
   <i type="logical" name="SHIFTRED"> F  </i>
   <i type="logical" name="ODDONLY"> F  </i>
   <i type="logical" name="EVENONLY"> F  </i>
   <i type="int" name="LMAXFOCK">     0</i>
   <i type="int" name="NMAXFOCKAE">     0</i>
   <i type="logical" name="LFOCKAEDFT"> F  </i>
   <i name="HFSCREEN">      0.00000000</i>
   <i name="HFSCREENC">      0.00000000</i>
   <i type="int" name="NBANDSGWLOW">     0</i>
  </separator>
  <separator name="vdW DFT" >
   <i type="logical" name="LUSE_VDW"> F  </i>
   <i type="int" name="IVDW_NL">     1</i>
   <i type="logical" name="LSPIN_VDW"> F  </i>
   <i name="Zab_VDW">     -0.84910000</i>
   <i name="PARAM1">      0.12340000</i>
   <i name="PARAM2">      1.00000000</i>
   <i name="PARAM3">      0.00000000</i>
  </separator>
  <separator name="model GW" >
   <i type="int" name="MODEL_GW">     0</i>
   <i name="MODEL_EPS0">     12.09885804</i>
   <i name="MODEL_ALPHA">      1.00000000</i>
  </separator>
  <separator name="linear response parameters" >
   <i type="logical" name="LEPSILON"> F  </i>
   <i type="logical" name="LRPA"> F  </i>
   <i type="logical" name="LNABLA"> F  </i>
   <i type="logical" name="LVEL"> F  </i>
   <i name="CSHIFT">      0.10000000</i>
   <i name="OMEGAMAX">     -1.00000000</i>
   <i name="DEG_THRESHOLD">      0.00200000</i>
   <i name="RTIME">     -0.10000000</i>
   <i name="WPLASMAI">      0.00000000</i>
   <v name="DFIELD">      0.00000000      0.00000000      0.00000000</v>
   <v name="WPLASMA">      0.00000000      0.00000000      0.00000000      0.00000000      0.00000000      0.00000000      0.00000000      0.00000000      0.00000000</v>
  </separator>
  <separator name="orbital magnetization" >
   <i type="logical" name="NUCIND"> F  </i>
   <v name="MAGPOS">      0.00000000      0.00000000      0.00000000</v>
   <i type="logical" name="LNICSALL"> T  </i>
   <i type="logical" name="ORBITALMAG"> F  </i>
   <i type="logical" name="LMAGBLOCH"> F  </i>
   <i type="logical" name="LCHIMAG"> F  </i>
   <i type="logical" name="LGAUGE"> T  </i>
   <i type="int" name="MAGATOM">     0</i>
   <v name="MAGDIPOL">      0.00000000      0.00000000      0.00000000</v>
   <v name="AVECCONST">      0.00000000      0.00000000      0.00000000</v>
  </separator>
  <separator name="response functions" >
   <i type="logical" name="LALL_IN_ONE"> F  </i>
   <i type="int" name="IALL_IN_ONE">    -1</i>
   <i type="int" name="NBANDS_WAVE">    -1</i>
   <i type="logical" name="LFINITE_TEMPERATURE"> F  </i>
   <i type="logical" name="LADDER"> F  </i>
   <i type="logical" name="LRPAFORCE"> F  </i>
   <i type="logical" name="LFXC"> F  </i>
   <i type="logical" name="LHARTREE"> T  </i>
   <i type="int" name="IBSE">     0</i>
   <v type="int" name="KPOINT">    -1     0     0     0</v>
   <i type="logical" name="LTCTC"> F  </i>
   <i type="logical" name="LTCTE"> F  </i>
   <i type="logical" name="LTETE"> F  </i>
   <i type="logical" name="LTRIPLET"> F  </i>
   <i type="logical" name="LFXCEPS"> F  </i>
   <i type="logical" name="LFXHEG"> F  </i>
   <i type="int" name="NATURALO">     2</i>
   <i type="logical" name="LHOLEGF"> F  </i>
   <i type="logical" name="L2ORDER"> F  </i>
   <i type="logical" name="LDMP1"> F  </i>
   <i type="logical" name="LMP2LT"> F  </i>
   <i type="logical" name="LSMP2LT"> F  </i>
   <i type="logical" name="LGWLF"> F  </i>
   <i name="ENCUTGW">     -1.60000002</i>
   <i name="ENCUTGWSOFT">     -1.60000002</i>
   <i name="ENCUTLF">     -1.00000000</i>
   <i type="logical" name="LESF_SPLINES"> F  </i>
   <i type="int" name="LMAXMP2">    -1</i>
   <i name="SCISSOR">      0.00000000</i>
   <i type="int" name="NOMEGA">     0</i>
   <i type="int" name="NOMEGAR">     0</i>
   <i type="int" name="NBANDSGW">    -1</i>
   <i type="int" name="NBANDSO">    -1</i>
   <i type="int" name="NBANDSV">    -1</i>
   <i type="int" name="NELMGW">     1</i>
   <i type="int" name="NELMHF">     1</i>
   <i type="int" name="DIM">     3</i>
   <i type="int" name="IESPILON">     4</i>
   <i type="int" name="ANTIRES">     0</i>
   <i name="OMEGAMAX">    -30.00000000</i>
   <i name="OMEGAMIN">    -30.00000000</i>
   <i name="OMEGATL">   -200.00000000</i>
   <i type="int" name="OMEGAGRID">     0</i>
   <i name="CSHIFT">     -0.10000000</i>
   <i type="logical" name="LSELFENERGY"> F  </i>
   <i type="logical" name="LSPECTRAL"> F  </i>
   <i type="logical" name="LSPECTRALGW"> F  </i>
   <i type="logical" name="LSINGLES"> F  </i>
   <i type="logical" name="LFERMIGW"> F  </i>
   <i type="logical" name="ODDONLYGW"> F  </i>
   <i type="logical" name="EVENONLYGW"> F  </i>
   <i type="int" name="NKREDLFX">     1</i>
   <i type="int" name="NKREDLFY">     1</i>
   <i type="int" name="NKREDLFZ">     1</i>
   <i type="int" name="MAXMEM">  2800</i>
   <i type="int" name="TELESCOPE">     0</i>
   <i type="int" name="NTAUPAR">    -1</i>
   <i type="int" name="NOMEGAPAR">    -1</i>
   <i name="DAMP_NEWTON">      0.80000001</i>
   <i name="LAMBDA">      1.00000000</i>
  </separator>
  <separator name="External order field" >
   <i name="OFIELD_KAPPA">      0.00000000</i>
   <v name="OFIELD_K">      0.00000000      0.00000000      0.00000000</v>
   <i name="OFIELD_Q6_NEAR">      0.00000000</i>
   <i name="OFIELD_Q6_FAR">      0.00000000</i>
   <i name="OFIELD_A">      0.00000000</i>
  </separator>
  <separator name="optional k-points parameters" >
   <i type="int" name="KPOINTS_OPT_MODE">     1</i>
   <i type="logical" name="LKPOINTS_OPT"> F  </i>
  </separator>
 </parameters>
 <atominfo>
  <atoms>       2 </atoms>
  <types>       1 </types>
  <array name="atoms" >
   <dimension dim="1">ion</dimension>
   <field type="string">element</field>
   <field type="int">atomtype</field>
   <set>
    <rc><c>Si</c><c>   1</c></rc>
    <rc><c>Si</c><c>   1</c></rc>
   </set>
  </array>
  <array name="atomtypes" >
   <dimension dim="1">type</dimension>
   <field type="int">atomspertype</field>
   <field type="string">element</field>
   <field>mass</field>
   <field>valence</field>
   <field type="string">pseudopotential</field>
   <set>
    <rc><c>   2</c><c>Si</c><c>     28.08500000</c><c>      4.00000000</c><c>  PAW_PBE Si 05Jan2001                  </c></rc>
   </set>
  </array>
 </atominfo>
 <structure name="initialpos" >
  <crystal>
   <varray name="basis" >
    <v>       3.33357300       0.00000000       1.92463900 </v>
    <v>       1.11119100       3.14292400       1.92463900 </v>
    <v>       0.00000000       0.00000000       3.84927800 </v>
   </varray>
   <i name="volume">     40.32952680 </i>
   <varray name="rec_basis" >
    <v>       0.29997843      -0.10605835       0.00000000 </v>
    <v>       0.00000000       0.31817505       0.00000000 </v>
    <v>      -0.14998922      -0.10605835       0.25978898 </v>
   </varray>
  </crystal>
  <varray name="positions" >
   <v>       0.87500000       0.87500000       0.87500000 </v>
   <v>       0.12500000       0.12500000       0.12500000 </v>
  </varray>
 </structure>
 <calculation>
  <scstep>
   <time name="dav">    0.23    0.24</time>
   <time name="total">    0.30    0.31</time>
   <energy>
    <i name="alphaZ">      3.33880742 </i>
    <i name="ewald">   -227.98820653 </i>
    <i name="hartreedc">    -14.72033828 </i>
    <i name="XCdc">    -16.87721261 </i>
    <i name="pawpsdc">    856.79434957 </i>
    <i name="pawaedc">   -822.42772418 </i>
    <i name="eentropy">      0.00000000 </i>
    <i name="bandstr">     23.00173943 </i>
    <i name="atom">    205.15160006 </i>
    <i name="e_fr_energy">      6.27301488 </i>
    <i name="e_wo_entrp">      6.27301488 </i>
    <i name="e_0_energy">      6.27301488 </i>
   </energy>
  </scstep>
  <scstep>
   <time name="dav">    0.25    0.25</time>
   <time name="total">    0.25    0.25</time>
   <energy>
    <i name="e_fr_energy">    -11.16329697 </i>
    <i name="e_wo_entrp">    -11.16329697 </i>
    <i name="e_0_energy">    -11.16329697 </i>
   </energy>
  </scstep>
  <scstep>
   <time name="dav">    0.20    0.21</time>
   <time name="total">    0.20    0.22</time>
   <energy>
    <i name="e_fr_energy">    -11.48795011 </i>
    <i name="e_wo_entrp">    -11.48795011 </i>
    <i name="e_0_energy">    -11.48795011 </i>
   </energy>
  </scstep>
  <scstep>
   <time name="dav">    0.22    0.24</time>
   <time name="total">    0.23    0.24</time>
   <energy>
    <i name="e_fr_energy">    -11.48889549 </i>
    <i name="e_wo_entrp">    -11.48889549 </i>
    <i name="e_0_energy">    -11.48889549 </i>
   </energy>
  </scstep>
  <scstep>
   <time name="dav">    0.20    0.21</time>
   <time name="total">    0.20    0.22</time>
   <energy>
    <i name="e_fr_energy">    -11.48889897 </i>
    <i name="e_wo_entrp">    -11.48889897 </i>
    <i name="e_0_energy">    -11.48889897 </i>
   </energy>
  </scstep>
  <scstep>
   <time name="diag">    0.09    0.10</time>
   <time name="diis">    0.02    0.02</time>
   <time name="orth">    0.01    0.01</time>
   <time name="total">    0.12    0.14</time>
   <energy>
    <i name="alphaZ">      3.33880742 </i>
    <i name="ewald">   -227.98820653 </i>
    <i name="hartreedc">    -14.72033828 </i>
    <i name="XCdc">    -16.87721261 </i>
    <i name="pawpsdc">    856.79434957 </i>
    <i name="pawaedc">   -822.42772418 </i>
    <i name="eentropy">      0.00000000 </i>
    <i name="bandstr">      5.23982557 </i>
    <i name="atom">    205.15160006 </i>
    <i name="e_fr_energy">    -11.48889899 </i>
    <i name="e_wo_entrp">    -11.48889899 </i>
    <i name="e_0_energy">    -11.48889899 </i>
   </energy>
  </scstep>
  <structure>
   <crystal>
    <varray name="basis" >
     <v>       3.33357300       0.00000000       1.92463900 </v>
     <v>       1.11119100       3.14292400       1.92463900 </v>
     <v>       0.00000000       0.00000000       3.84927800 </v>
    </varray>
    <i name="volume">     40.32952680 </i>
    <varray name="rec_basis" >
     <v>       0.29997843      -0.10605835       0.00000000 </v>
     <v>       0.00000000       0.31817505       0.00000000 </v>
     <v>      -0.14998922      -0.10605835       0.25978898 </v>
    </varray>
   </crystal>
   <varray name="positions" >
    <v>       0.87500000       0.87500000       0.87500000 </v>
    <v>       0.12500000       0.12500000       0.12500000 </v>
   </varray>
  </structure>
  <varray name="forces" >
   <v>       0.00000000       0.00000000       0.00000000 </v>
   <v>      -0.00000000      -0.00000000      -0.00000000 </v>
  </varray>
  <varray name="stress" >
   <v>      -4.33067406      -0.00000000       0.00000000 </v>
   <v>      -0.00000000      -4.33067747       0.00000000 </v>
   <v>       0.00000000       0.00000000      -4.33067286 </v>
  </varray>
  <energy>
   <i name="e_fr_energy">    -11.48889899 </i>
   <i name="e_wo_entrp">    -11.48889899 </i>
   <i name="e_0_energy">    -11.48889899 </i>
  </energy>
  <time name="totalsc">    1.53    1.62</time>
  <eigenvalues>
   <array>
    <dimension dim="1">band</dimension>
    <dimension dim="2">kpoint</dimension>
    <dimension dim="3">spin</dimension>
    <field>eigene</field>
    <field>occ</field>
    <set>
     <set comment="spin 1">
      <set comment="kpoint 1">
       <r>   -6.2204    1.0000 </r>
       <r>    5.7214    1.0000 </r>
       <r>    5.7214    1.0000 </r>
       <r>    5.7214    1.0000 </r>
       <r>    8.2341    0.0000 </r>
       <r>    8.2341    0.0000 </r>
       <r>    8.2341    0.0000 </r>
       <r>    8.9641    0.0000 </r>
       <r>   13.4011    0.0000 </r>
       <r>   13.4039    0.0000 </r>
       <r>   13.4039    0.0000 </r>
       <r>   16.7916    0.0000 </r>
       <r>   16.7916    0.0000 </r>
       <r>   16.7916    0.0000 </r>
       <r>   20.7592    0.0000 </r>
       <r>   28.6351    0.0000 </r>
       <r>   28.6351    0.0000 </r>
       <r>   28.6351    0.0000 </r>
       <r>   29.7955    0.0000 </r>
       <r>   29.7955    0.0000 </r>
       <r>   31.2857    0.0000 </r>
       <r>   31.2857    0.0000 </r>
       <r>   31.2858    0.0000 </r>
       <r>   34.8164    0.0000 </r>
      </set>
      <set comment="kpoint 2">
       <r>   -6.0168    1.0000 </r>
       <r>    4.1106    1.0000 </r>
       <r>    5.4308    1.0000 </r>
       <r>    5.4308    1.0000 </r>
       <r>    8.1454    0.0000 </r>
       <r>    8.6593    0.0000 </r>
       <r>    8.6594    0.0000 </r>
       <r>   10.3273    0.0000 </r>
       <r>   12.9018    0.0000 </r>
       <r>   12.9018    0.0000 </r>
       <r>   14.2048    0.0000 </r>
       <r>   16.2082    0.0000 </r>
       <r>   17.9757    0.0000 </r>
       <r>   17.9757    0.0000 </r>
       <r>   22.0208    0.0000 </r>
       <r>   26.6401    0.0000 </r>
       <r>   26.6401    0.0000 </r>
       <r>   26.9200    0.0000 </r>
       <r>   29.4301    0.0000 </r>
       <r>   29.4301    0.0000 </r>
       <r>   31.8246    0.0000 </r>
       <r>   31.8246    0.0000 </r>
       <r>   32.7083    0.0000 </r>
       <r>   35.0021    0.0000 </r>
      </set>
      <set comment="kpoint 3">
       <r>   -5.4223    1.0000 </r>
       <r>    1.7819    1.0000 </r>
       <r>    4.9603    1.0000 </r>
       <r>    4.9603    1.0000 </r>
       <r>    7.6570    0.0000 </r>
       <r>    9.1722    0.0000 </r>
       <r>    9.1722    0.0000 </r>
       <r>   12.5110    0.0000 </r>
       <r>   12.8472    0.0000 </r>
       <r>   12.8472    0.0000 </r>
       <r>   14.4793    0.0000 </r>
       <r>   17.3414    0.0000 </r>
       <r>   20.2300    0.0000 </r>
       <r>   20.2300    0.0000 </r>
       <r>   23.4268    0.0000 </r>
       <r>   23.4268    0.0000 </r>
       <r>   23.5148    0.0000 </r>
       <r>   25.4937    0.0000 </r>
       <r>   29.6026    0.0000 </r>
       <r>   29.6026    0.0000 </r>
       <r>   32.1862    0.0000 </r>
       <r>   32.1862    0.0000 </r>
       <r>   33.3986    0.0000 </r>
       <r>   34.9224    0.0000 </r>
      </set>
      <set comment="kpoint 4">
       <r>   -4.5288    1.0000 </r>
       <r>   -0.2367    1.0000 </r>
       <r>    4.6349    1.0000 </r>
       <r>    4.6349    1.0000 </r>
       <r>    7.2894    0.0000 </r>
       <r>    9.1093    0.0000 </r>
       <r>    9.1093    0.0000 </r>
       <r>   13.3918    0.0000 </r>
       <r>   14.2308    0.0000 </r>
       <r>   14.2308    0.0000 </r>
       <r>   15.2272    0.0000 </r>
       <r>   19.3835    0.0000 </r>
       <r>   19.3835    0.0000 </r>
       <r>   19.5927    0.0000 </r>
       <r>   22.2269    0.0000 </r>
       <r>   24.0856    0.0000 </r>
       <r>   24.0856    0.0000 </r>
       <r>   28.3719    0.0000 </r>
       <r>   29.4006    0.0000 </r>
       <r>   29.4309    0.0000 </r>
       <r>   29.4309    0.0000 </r>
       <r>   32.3586    0.0000 </r>
       <r>   32.3587    0.0000 </r>
       <r>   33.8766    0.0000 </r>
      </set>
      <set comment="kpoint 5">
       <r>   -3.8885    1.0000 </r>
       <r>   -1.2609    1.0000 </r>
       <r>    4.5238    1.0000 </r>
       <r>    4.5238    1.0000 </r>
       <r>    7.1608    0.0000 </r>
       <r>    8.9955    0.0000 </r>
       <r>    8.9955    0.0000 </r>
       <r>   13.2234    0.0000 </r>
       <r>   16.2116    0.0000 </r>
       <r>   16.2116    0.0000 </r>
       <r>   16.8821    0.0000 </r>
       <r>   16.9557    0.0000 </r>
       <r>   16.9557    0.0000 </r>
       <r>   18.5576    0.0000 </r>
       <r>   24.9081    0.0000 </r>
       <r>   25.4929    0.0000 </r>
       <r>   27.1623    0.0000 </r>
       <r>   27.1623    0.0000 </r>
       <r>   27.3912    0.0000 </r>
       <r>   27.3913    0.0000 </r>
       <r>   31.1115    0.0000 </r>
       <r>   31.9818    0.0000 </r>
       <r>   31.9819    0.0000 </r>
       <r>   32.9991    0.0000 </r>
      </set>
      <set comment="kpoint 6">
       <r>   -5.9481    1.0000 </r>
       <r>    4.3779    1.0000 </r>
       <r>    4.9092    1.0000 </r>
       <r>    4.9092    1.0000 </r>
       <r>    7.6617    0.0000 </r>
       <r>    9.3769    0.0000 </r>
       <r>    9.3769    0.0000 </r>
       <r>   10.0095    0.0000 </r>
       <r>   12.1451    0.0000 </r>
       <r>   13.7052    0.0000 </r>
       <r>   14.5056    0.0000 </r>
       <r>   17.2674    0.0000 </r>
       <r>   17.2674    0.0000 </r>
       <r>   17.7430    0.0000 </r>
       <r>   22.6283    0.0000 </r>
       <r>   26.1459    0.0000 </r>
       <r>   26.1459    0.0000 </r>
       <r>   27.4342    0.0000 </r>
       <r>   28.2343    0.0000 </r>
       <r>   28.9904    0.0000 </r>
       <r>   32.0581    0.0000 </r>
       <r>   32.4124    0.0000 </r>
       <r>   32.4125    0.0000 </r>
       <r>   36.7718    0.0000 </r>
      </set>
      <set comment="kpoint 7">
       <r>   -5.4804    1.0000 </r>
       <r>    2.4877    1.0000 </r>
       <r>    4.3976    1.0000 </r>
       <r>    4.4679    1.0000 </r>
       <r>    7.7932    0.0000 </r>
       <r>    9.3586    0.0000 </r>
       <r>   10.1367    0.0000 </r>
       <r>   10.3747    0.0000 </r>
       <r>   13.1251    0.0000 </r>
       <r>   13.8555    0.0000 </r>
       <r>   15.5154    0.0000 </r>
       <r>   17.1001    0.0000 </r>
       <r>   18.7089    0.0000 </r>
       <r>   19.9622    0.0000 </r>
       <r>   23.1680    0.0000 </r>
       <r>   23.6398    0.0000 </r>
       <r>   24.7241    0.0000 </r>
       <r>   27.1131    0.0000 </r>
       <r>   27.1528    0.0000 </r>
       <r>   28.5773    0.0000 </r>
       <r>   31.8045    0.0000 </r>
       <r>   32.8050    0.0000 </r>
       <r>   33.7958    0.0000 </r>
       <r>   35.3203    0.0000 </r>
      </set>
      <set comment="kpoint 8">
       <r>   -4.6664    1.0000 </r>
       <r>    0.4282    1.0000 </r>
       <r>    3.8735    1.0000 </r>
       <r>    4.1312    1.0000 </r>
       <r>    7.8824    0.0000 </r>
       <r>    9.2896    0.0000 </r>
       <r>   10.1255    0.0000 </r>
       <r>   11.0884    0.0000 </r>
       <r>   14.8994    0.0000 </r>
       <r>   14.9757    0.0000 </r>
       <r>   15.5104    0.0000 </r>
       <r>   18.9727    0.0000 </r>
       <r>   19.0310    0.0000 </r>
       <r>   20.7822    0.0000 </r>
       <r>   22.2170    0.0000 </r>
       <r>   23.2082    0.0000 </r>
       <r>   24.1501    0.0000 </r>
       <r>   27.4660    0.0000 </r>
       <r>   28.0941    0.0000 </r>
       <r>   29.0742    0.0000 </r>
       <r>   30.2782    0.0000 </r>
       <r>   31.1094    0.0000 </r>
       <r>   33.0702    0.0000 </r>
       <r>   34.5664    0.0000 </r>
      </set>
      <set comment="kpoint 9">
       <r>   -3.8031    1.0000 </r>
       <r>   -1.0366    1.0000 </r>
       <r>    3.4272    1.0000 </r>
       <r>    4.1576    1.0000 </r>
       <r>    7.8262    0.0000 </r>
       <r>    9.1548    0.0000 </r>
       <r>    9.7574    0.0000 </r>
       <r>   12.9761    0.0000 </r>
       <r>   14.5411    0.0000 </r>
       <r>   16.1341    0.0000 </r>
       <r>   17.1045    0.0000 </r>
       <r>   17.2803    0.0000 </r>
       <r>   18.1018    0.0000 </r>
       <r>   20.6182    0.0000 </r>
       <r>   23.8498    0.0000 </r>
       <r>   25.2024    0.0000 </r>
       <r>   25.8194    0.0000 </r>
       <r>   26.6386    0.0000 </r>
       <r>   27.5129    0.0000 </r>
       <r>   27.8557    0.0000 </r>
       <r>   30.2421    0.0000 </r>
       <r>   31.4312    0.0000 </r>
       <r>   31.9141    0.0000 </r>
       <r>   33.1047    0.0000 </r>
      </set>
      <set comment="kpoint 10">
       <r>   -4.0487    1.0000 </r>
       <r>   -0.6651    1.0000 </r>
       <r>    3.2445    1.0000 </r>
       <r>    4.4556    1.0000 </r>
       <r>    7.9947    0.0000 </r>
       <r>    9.2610    0.0000 </r>
       <r>    9.5251    0.0000 </r>
       <r>   13.4925    0.0000 </r>
       <r>   13.7430    0.0000 </r>
       <r>   14.7797    0.0000 </r>
       <r>   16.7665    0.0000 </r>
       <r>   18.0488    0.0000 </r>
       <r>   19.8955    0.0000 </r>
       <r>   20.2460    0.0000 </r>
       <r>   22.4250    0.0000 </r>
       <r>   24.1746    0.0000 </r>
       <r>   26.0944    0.0000 </r>
       <r>   27.6919    0.0000 </r>
       <r>   27.9185    0.0000 </r>
       <r>   28.1253    0.0000 </r>
       <r>   30.2759    0.0000 </r>
       <r>   30.5436    0.0000 </r>
       <r>   32.9169    0.0000 </r>
       <r>   33.0458    0.0000 </r>
      </set>
      <set comment="kpoint 11">
       <r>   -4.9724    1.0000 </r>
       <r>    1.0873    1.0000 </r>
       <r>    3.3938    1.0000 </r>
       <r>    4.9484    1.0000 </r>
       <r>    8.3585    0.0000 </r>
       <r>    9.3396    0.0000 </r>
       <r>    9.5009    0.0000 </r>
       <r>   11.9023    0.0000 </r>
       <r>   12.1201    0.0000 </r>
       <r>   15.3542    0.0000 </r>
       <r>   15.7065    0.0000 </r>
       <r>   17.9636    0.0000 </r>
       <r>   19.5744    0.0000 </r>
       <r>   20.9625    0.0000 </r>
       <r>   22.0034    0.0000 </r>
       <r>   23.5948    0.0000 </r>
       <r>   24.3944    0.0000 </r>
       <r>   27.1838    0.0000 </r>
       <r>   27.5498    0.0000 </r>
       <r>   28.4719    0.0000 </r>
       <r>   31.5938    0.0000 </r>
       <r>   32.1024    0.0000 </r>
       <r>   32.8763    0.0000 </r>
       <r>   35.0220    0.0000 </r>
      </set>
      <set comment="kpoint 12">
       <r>   -5.6812    1.0000 </r>
       <r>    3.0282    1.0000 </r>
       <r>    4.0769    1.0000 </r>
       <r>    5.4302    1.0000 </r>
       <r>    8.6930    0.0000 </r>
       <r>    8.7922    0.0000 </r>
       <r>    9.0092    0.0000 </r>
       <r>   11.1665    0.0000 </r>
       <r>   11.9910    0.0000 </r>
       <r>   13.6770    0.0000 </r>
       <r>   15.2376    0.0000 </r>
       <r>   16.7194    0.0000 </r>
       <r>   17.9106    0.0000 </r>
       <r>   20.0560    0.0000 </r>
       <r>   23.2825    0.0000 </r>
       <r>   23.5710    0.0000 </r>
       <r>   26.4762    0.0000 </r>
       <r>   26.7176    0.0000 </r>
       <r>   27.3059    0.0000 </r>
       <r>   28.6343    0.0000 </r>
       <r>   32.0633    0.0000 </r>
       <r>   32.2985    0.0000 </r>
       <r>   34.3070    0.0000 </r>
       <r>   35.9355    0.0000 </r>
      </set>
      <set comment="kpoint 13">
       <r>   -5.1409    1.0000 </r>
       <r>    2.2007    1.0000 </r>
       <r>    3.8257    1.0000 </r>
       <r>    3.8257    1.0000 </r>
       <r>    6.7600    0.0000 </r>
       <r>    8.7454    0.0000 </r>
       <r>   11.4206    0.0000 </r>
       <r>   11.4206    0.0000 </r>
       <r>   13.6682    0.0000 </r>
       <r>   14.6072    0.0000 </r>
       <r>   16.9074    0.0000 </r>
       <r>   18.5789    0.0000 </r>
       <r>   18.5789    0.0000 </r>
       <r>   19.2318    0.0000 </r>
       <r>   22.9575    0.0000 </r>
       <r>   22.9575    0.0000 </r>
       <r>   23.9719    0.0000 </r>
       <r>   25.9217    0.0000 </r>
       <r>   26.4338    0.0000 </r>
       <r>   30.4001    0.0000 </r>
       <r>   31.8295    0.0000 </r>
       <r>   32.8677    0.0000 </r>
       <r>   32.8679    0.0000 </r>
       <r>   35.0164    0.0000 </r>
      </set>
      <set comment="kpoint 14">
       <r>   -4.4321    1.0000 </r>
       <r>    0.7810    1.0000 </r>
       <r>    3.0343    1.0000 </r>
       <r>    3.5084    1.0000 </r>
       <r>    6.9791    0.0000 </r>
       <r>    8.5114    0.0000 </r>
       <r>   11.6427    0.0000 </r>
       <r>   11.9259    0.0000 </r>
       <r>   15.6461    0.0000 </r>
       <r>   15.7826    0.0000 </r>
       <r>   17.1913    0.0000 </r>
       <r>   18.8390    0.0000 </r>
       <r>   19.2623    0.0000 </r>
       <r>   20.4044    0.0000 </r>
       <r>   21.4319    0.0000 </r>
       <r>   22.6198    0.0000 </r>
       <r>   23.9949    0.0000 </r>
       <r>   25.4499    0.0000 </r>
       <r>   27.4209    0.0000 </r>
       <r>   29.6706    0.0000 </r>
       <r>   30.6986    0.0000 </r>
       <r>   31.8610    0.0000 </r>
       <r>   31.9286    0.0000 </r>
       <r>   32.9008    0.0000 </r>
      </set>
      <set comment="kpoint 15">
       <r>   -3.5059    1.0000 </r>
       <r>   -0.6608    1.0000 </r>
       <r>    2.1645    1.0000 </r>
       <r>    3.5126    1.0000 </r>
       <r>    7.1406    0.0000 </r>
       <r>   10.0723    0.0000 </r>
       <r>   11.3802    0.0000 </r>
       <r>   11.5729    0.0000 </r>
       <r>   15.7907    0.0000 </r>
       <r>   16.1821    0.0000 </r>
       <r>   17.8041    0.0000 </r>
       <r>   18.2754    0.0000 </r>
       <r>   18.5607    0.0000 </r>
       <r>   22.3578    0.0000 </r>
       <r>   23.3201    0.0000 </r>
       <r>   24.1953    0.0000 </r>
       <r>   24.9082    0.0000 </r>
       <r>   25.1314    0.0000 </r>
       <r>   25.4626    0.0000 </r>
       <r>   28.4296    0.0000 </r>
       <r>   29.2826    0.0000 </r>
       <r>   30.7019    0.0000 </r>
       <r>   31.0690    0.0000 </r>
       <r>   33.2623    0.0000 </r>
      </set>
      <set comment="kpoint 16">
       <r>   -3.3003    1.0000 </r>
       <r>   -0.9204    1.0000 </r>
       <r>    1.7034    1.0000 </r>
       <r>    3.8322    1.0000 </r>
       <r>    7.4667    0.0000 </r>
       <r>   11.0886    0.0000 </r>
       <r>   11.1340    0.0000 </r>
       <r>   12.5822    0.0000 </r>
       <r>   13.6206    0.0000 </r>
       <r>   13.6290    0.0000 </r>
       <r>   18.0952    0.0000 </r>
       <r>   20.4613    0.0000 </r>
       <r>   20.6659    0.0000 </r>
       <r>   21.5985    0.0000 </r>
       <r>   22.0219    0.0000 </r>
       <r>   24.0056    0.0000 </r>
       <r>   25.0063    0.0000 </r>
       <r>   25.4744    0.0000 </r>
       <r>   27.3633    0.0000 </r>
       <r>   27.6163    0.0000 </r>
       <r>   30.2135    0.0000 </r>
       <r>   30.8598    0.0000 </r>
       <r>   31.3507    0.0000 </r>
       <r>   31.8437    0.0000 </r>
      </set>
      <set comment="kpoint 17">
       <r>   -4.1797    1.0000 </r>
       <r>    0.2412    1.0000 </r>
       <r>    1.9423    1.0000 </r>
       <r>    4.3924    1.0000 </r>
       <r>    8.0808    0.0000 </r>
       <r>   10.4493    0.0000 </r>
       <r>   10.7636    0.0000 </r>
       <r>   11.7498    0.0000 </r>
       <r>   12.0927    0.0000 </r>
       <r>   15.2366    0.0000 </r>
       <r>   18.1548    0.0000 </r>
       <r>   18.8169    0.0000 </r>
       <r>   18.9690    0.0000 </r>
       <r>   22.1850    0.0000 </r>
       <r>   22.6814    0.0000 </r>
       <r>   23.0051    0.0000 </r>
       <r>   24.3001    0.0000 </r>
       <r>   26.8273    0.0000 </r>
       <r>   27.2075    0.0000 </r>
       <r>   29.4388    0.0000 </r>
       <r>   30.1977    0.0000 </r>
       <r>   30.8319    0.0000 </r>
       <r>   32.3084    0.0000 </r>
       <r>   32.5834    0.0000 </r>
      </set>
      <set comment="kpoint 18">
       <r>   -3.8313    1.0000 </r>
       <r>   -0.0193    1.0000 </r>
       <r>    3.1102    1.0000 </r>
       <r>    3.1102    1.0000 </r>
       <r>    6.2345    0.0000 </r>
       <r>    7.1490    0.0000 </r>
       <r>   13.6862    0.0000 </r>
       <r>   13.6862    0.0000 </r>
       <r>   16.1044    0.0000 </r>
       <r>   16.3028    0.0000 </r>
       <r>   18.6449    0.0000 </r>
       <r>   18.6449    0.0000 </r>
       <r>   19.1392    0.0000 </r>
       <r>   20.8261    0.0000 </r>
       <r>   21.4633    0.0000 </r>
       <r>   22.3428    0.0000 </r>
       <r>   22.3428    0.0000 </r>
       <r>   24.3853    0.0000 </r>
       <r>   28.9233    0.0000 </r>
       <r>   29.1440    0.0000 </r>
       <r>   29.5980    0.0000 </r>
       <r>   29.5980    0.0000 </r>
       <r>   30.8985    0.0000 </r>
       <r>   32.7383    0.0000 </r>
      </set>
      <set comment="kpoint 19">
       <r>   -2.9352    1.0000 </r>
       <r>   -1.1006    1.0000 </r>
       <r>    2.2665    1.0000 </r>
       <r>    3.0345    1.0000 </r>
       <r>    6.5100    0.0000 </r>
       <r>    7.5905    0.0000 </r>
       <r>   13.9087    0.0000 </r>
       <r>   13.9802    0.0000 </r>
       <r>   16.3688    0.0000 </r>
       <r>   16.4496    0.0000 </r>
       <r>   17.9705    0.0000 </r>
       <r>   18.4455    0.0000 </r>
       <r>   20.4834    0.0000 </r>
       <r>   20.5829    0.0000 </r>
       <r>   21.4547    0.0000 </r>
       <r>   24.2071    0.0000 </r>
       <r>   24.3398    0.0000 </r>
       <r>   24.9088    0.0000 </r>
       <r>   26.3268    0.0000 </r>
       <r>   27.8168    0.0000 </r>
       <r>   28.2503    0.0000 </r>
       <r>   29.0324    0.0000 </r>
       <r>   29.6101    0.0000 </r>
       <r>   31.3873    0.0000 </r>
      </set>
      <set comment="kpoint 20">
       <r>   -2.4935    1.0000 </r>
       <r>   -1.4979    1.0000 </r>
       <r>    1.3904    1.0000 </r>
       <r>    3.2925    1.0000 </r>
       <r>    6.8197    0.0000 </r>
       <r>    9.7554    0.0000 </r>
       <r>   13.1135    0.0000 </r>
       <r>   13.6370    0.0000 </r>
       <r>   13.8393    0.0000 </r>
       <r>   14.1593    0.0000 </r>
       <r>   20.2560    0.0000 </r>
       <r>   20.5423    0.0000 </r>
       <r>   21.0972    0.0000 </r>
       <r>   21.2568    0.0000 </r>
       <r>   21.3955    0.0000 </r>
       <r>   22.6469    0.0000 </r>
       <r>   25.2345    0.0000 </r>
       <r>   25.4316    0.0000 </r>
       <r>   27.0693    0.0000 </r>
       <r>   27.0987    0.0000 </r>
       <r>   28.3795    0.0000 </r>
       <r>   28.5436    0.0000 </r>
       <r>   30.6724    0.0000 </r>
       <r>   31.4150    0.0000 </r>
      </set>
      <set comment="kpoint 21">
       <r>   -2.0853    1.0000 </r>
       <r>   -2.0853    1.0000 </r>
       <r>    2.8650    1.0000 </r>
       <r>    2.8650    1.0000 </r>
       <r>    6.3225    0.0000 </r>
       <r>    6.3225    0.0000 </r>
       <r>   15.7237    0.0000 </r>
       <r>   15.7237    0.0000 </r>
       <r>   16.6311    0.0000 </r>
       <r>   16.6311    0.0000 </r>
       <r>   18.1853    0.0000 </r>
       <r>   18.1853    0.0000 </r>
       <r>   18.5912    0.0000 </r>
       <r>   18.5912    0.0000 </r>
       <r>   24.3601    0.0000 </r>
       <r>   24.3601    0.0000 </r>
       <r>   25.2100    0.0000 </r>
       <r>   25.2100    0.0000 </r>
       <r>   25.7698    0.0000 </r>
       <r>   25.7699    0.0000 </r>
       <r>   27.0059    0.0000 </r>
       <r>   27.0059    0.0000 </r>
       <r>   31.0394    0.0000 </r>
       <r>   31.0395    0.0000 </r>
      </set>
      <set comment="kpoint 22">
       <r>   -4.8937    1.0000 </r>
       <r>    1.4289    1.0000 </r>
       <r>    2.9885    1.0000 </r>
       <r>    4.2876    1.0000 </r>
       <r>    8.0912    0.0000 </r>
       <r>    9.5373    0.0000 </r>
       <r>    9.8248    0.0000 </r>
       <r>   11.1580    0.0000 </r>
       <r>   13.4241    0.0000 </r>
       <r>   15.8829    0.0000 </r>
       <r>   16.6031    0.0000 </r>
       <r>   17.6515    0.0000 </r>
       <r>   19.4451    0.0000 </r>
       <r>   20.6077    0.0000 </r>
       <r>   21.4483    0.0000 </r>
       <r>   23.7457    0.0000 </r>
       <r>   24.9239    0.0000 </r>
       <r>   26.0605    0.0000 </r>
       <r>   27.2876    0.0000 </r>
       <r>   28.8907    0.0000 </r>
       <r>   30.8252    0.0000 </r>
       <r>   31.5832    0.0000 </r>
       <r>   33.3833    0.0000 </r>
       <r>   34.3387    0.0000 </r>
      </set>
      <set comment="kpoint 23">
       <r>   -4.0059    1.0000 </r>
       <r>   -0.1222    1.0000 </r>
       <r>    2.3794    1.0000 </r>
       <r>    3.7828    1.0000 </r>
       <r>    8.5131    0.0000 </r>
       <r>    9.1920    0.0000 </r>
       <r>   10.6450    0.0000 </r>
       <r>   11.5853    0.0000 </r>
       <r>   14.6488    0.0000 </r>
       <r>   15.3251    0.0000 </r>
       <r>   17.5434    0.0000 </r>
       <r>   18.5488    0.0000 </r>
       <r>   19.7956    0.0000 </r>
       <r>   20.6863    0.0000 </r>
       <r>   22.7970    0.0000 </r>
       <r>   23.8156    0.0000 </r>
       <r>   24.6004    0.0000 </r>
       <r>   26.5121    0.0000 </r>
       <r>   27.3750    0.0000 </r>
       <r>   28.3384    0.0000 </r>
       <r>   29.8141    0.0000 </r>
       <r>   31.1738    0.0000 </r>
       <r>   31.4909    0.0000 </r>
       <r>   32.7611    0.0000 </r>
      </set>
      <set comment="kpoint 24">
       <r>   -3.3516    1.0000 </r>
       <r>   -1.0696    1.0000 </r>
       <r>    2.2512    1.0000 </r>
       <r>    3.5520    1.0000 </r>
       <r>    8.7059    0.0000 </r>
       <r>    8.7613    0.0000 </r>
       <r>   11.5594    0.0000 </r>
       <r>   12.7389    0.0000 </r>
       <r>   13.0155    0.0000 </r>
       <r>   16.1809    0.0000 </r>
       <r>   17.2941    0.0000 </r>
       <r>   17.9524    0.0000 </r>
       <r>   21.1119    0.0000 </r>
       <r>   21.1658    0.0000 </r>
       <r>   23.6640    0.0000 </r>
       <r>   23.9927    0.0000 </r>
       <r>   25.0300    0.0000 </r>
       <r>   26.3532    0.0000 </r>
       <r>   26.5316    0.0000 </r>
       <r>   27.5643    0.0000 </r>
       <r>   30.4781    0.0000 </r>
       <r>   30.8981    0.0000 </r>
       <r>   30.9819    0.0000 </r>
       <r>   31.7999    0.0000 </r>
      </set>
      <set comment="kpoint 25">
       <r>   -3.6322    1.0000 </r>
       <r>   -0.2369    1.0000 </r>
       <r>    2.3390    1.0000 </r>
       <r>    2.9475    1.0000 </r>
       <r>    7.5803    0.0000 </r>
       <r>    8.2645    0.0000 </r>
       <r>   11.3949    0.0000 </r>
       <r>   13.6345    0.0000 </r>
       <r>   15.8108    0.0000 </r>
       <r>   15.8332    0.0000 </r>
       <r>   18.4920    0.0000 </r>
       <r>   18.9310    0.0000 </r>
       <r>   19.7449    0.0000 </r>
       <r>   20.1678    0.0000 </r>
       <r>   22.2140    0.0000 </r>
       <r>   22.6561    0.0000 </r>
       <r>   25.0710    0.0000 </r>
       <r>   25.5287    0.0000 </r>
       <r>   27.3730    0.0000 </r>
       <r>   27.3922    0.0000 </r>
       <r>   28.9685    0.0000 </r>
       <r>   29.8056    0.0000 </r>
       <r>   31.7657    0.0000 </r>
       <r>   33.0339    0.0000 </r>
      </set>
      <set comment="kpoint 26">
       <r>   -2.7567    1.0000 </r>
       <r>   -1.2032    1.0000 </r>
       <r>    1.6340    1.0000 </r>
       <r>    2.7444    1.0000 </r>
       <r>    8.0158    0.0000 </r>
       <r>    9.9063    0.0000 </r>
       <r>   10.9144    0.0000 </r>
       <r>   13.0643    0.0000 </r>
       <r>   14.0422    0.0000 </r>
       <r>   16.7129    0.0000 </r>
       <r>   17.8377    0.0000 </r>
       <r>   19.8291    0.0000 </r>
       <r>   20.9671    0.0000 </r>
       <r>   21.5931    0.0000 </r>
       <r>   23.0481    0.0000 </r>
       <r>   23.8652    0.0000 </r>
       <r>   24.3133    0.0000 </r>
       <r>   24.9975    0.0000 </r>
       <r>   26.5707    0.0000 </r>
       <r>   27.3136    0.0000 </r>
       <r>   28.2873    0.0000 </r>
       <r>   29.6669    0.0000 </r>
       <r>   30.5019    0.0000 </r>
       <r>   33.0342    0.0000 </r>
      </set>
      <set comment="kpoint 27">
       <r>   -3.1067    1.0000 </r>
       <r>   -0.8413    1.0000 </r>
       <r>    1.4655    1.0000 </r>
       <r>    3.1224    1.0000 </r>
       <r>    8.4980    0.0000 </r>
       <r>   10.1806    0.0000 </r>
       <r>   10.8407    0.0000 </r>
       <r>   12.6540    0.0000 </r>
       <r>   13.5100    0.0000 </r>
       <r>   14.8762    0.0000 </r>
       <r>   19.6769    0.0000 </r>
       <r>   19.8316    0.0000 </r>
       <r>   20.1258    0.0000 </r>
       <r>   21.9079    0.0000 </r>
       <r>   22.1327    0.0000 </r>
       <r>   23.9603    0.0000 </r>
       <r>   24.6650    0.0000 </r>
       <r>   25.5485    0.0000 </r>
       <r>   26.6869    0.0000 </r>
       <r>   27.5912    0.0000 </r>
       <r>   28.8470    0.0000 </r>
       <r>   30.0511    0.0000 </r>
       <r>   31.3901    0.0000 </r>
       <r>   32.8876    0.0000 </r>
      </set>
      <set comment="kpoint 28">
       <r>   -2.0060    1.0000 </r>
       <r>   -2.0060    1.0000 </r>
       <r>    2.2857    1.0000 </r>
       <r>    2.2857    1.0000 </r>
       <r>    7.5957    0.0000 </r>
       <r>    7.5957    0.0000 </r>
       <r>   13.4747    0.0000 </r>
       <r>   13.4747    0.0000 </r>
       <r>   16.2084    0.0000 </r>
       <r>   16.2084    0.0000 </r>
       <r>   18.4901    0.0000 </r>
       <r>   18.4901    0.0000 </r>
       <r>   21.1664    0.0000 </r>
       <r>   21.1664    0.0000 </r>
       <r>   22.9083    0.0000 </r>
       <r>   22.9083    0.0000 </r>
       <r>   24.5696    0.0000 </r>
       <r>   24.5696    0.0000 </r>
       <r>   27.2551    0.0000 </r>
       <r>   27.2551    0.0000 </r>
       <r>   28.5605    0.0000 </r>
       <r>   28.5605    0.0000 </r>
       <r>   29.5904    0.0000 </r>
       <r>   29.5905    0.0000 </r>
      </set>
      <set comment="kpoint 29">
       <r>   -1.9184    1.0000 </r>
       <r>   -1.9184    1.0000 </r>
       <r>    1.8422    1.0000 </r>
       <r>    1.8423    1.0000 </r>
       <r>    9.8928    0.0000 </r>
       <r>    9.8928    0.0000 </r>
       <r>   10.6404    0.0000 </r>
       <r>   10.6404    0.0000 </r>
       <r>   16.2117    0.0000 </r>
       <r>   16.2117    0.0000 </r>
       <r>   18.6483    0.0000 </r>
       <r>   18.6483    0.0000 </r>
       <r>   21.9530    0.0000 </r>
       <r>   21.9530    0.0000 </r>
       <r>   24.0739    0.0000 </r>
       <r>   24.0739    0.0000 </r>
       <r>   24.5049    0.0000 </r>
       <r>   24.5049    0.0000 </r>
       <r>   25.4220    0.0000 </r>
       <r>   25.4220    0.0000 </r>
       <r>   29.1798    0.0000 </r>
       <r>   29.1798    0.0000 </r>
       <r>   33.0243    0.0000 </r>
       <r>   33.0634    0.0000 </r>
      </set>
     </set>
    </set>
   </array>
  </eigenvalues>
  <separator name="orbital magnetization" >
   <v name="MAGDIPOLOUT">      0.00000000      0.00000000      0.00000000</v>
  </separator>
  <dos>
   <i name="efermi">      5.73823601 </i>
   <total>
    <array>
     <dimension dim="1">gridpoints</dimension>
     <dimension dim="2">spin</dimension>
     <field>energy</field>
     <field>total</field>
     <field>integrated</field>
     <set>
      <set comment="spin 1">
       <r>    -8.3701     0.0000     0.0000 </r>
       <r>    -8.3341     0.0000     0.0000 </r>
       <r>    -8.2981     0.0000     0.0000 </r>
       <r>    -8.2621     0.0000     0.0000 </r>
       <r>    -8.2261     0.0000     0.0000 </r>
       <r>    -8.1901     0.0000     0.0000 </r>
       <r>    -8.1541     0.0000     0.0000 </r>
       <r>    -8.1181     0.0000     0.0000 </r>
       <r>    -8.0821     0.0000     0.0000 </r>
       <r>    -8.0461     0.0000     0.0000 </r>
       <r>    -8.0102     0.0000     0.0000 </r>
       <r>    -7.9742     0.0000     0.0000 </r>
       <r>    -7.9382     0.0000     0.0000 </r>
       <r>    -7.9022     0.0000     0.0000 </r>
       <r>    -7.8662     0.0000     0.0000 </r>
       <r>    -7.8302     0.0000     0.0000 </r>
       <r>    -7.7942     0.0000     0.0000 </r>
       <r>    -7.7582     0.0000     0.0000 </r>
       <r>    -7.7222     0.0000     0.0000 </r>
       <r>    -7.6862     0.0000     0.0000 </r>
       <r>    -7.6502     0.0000     0.0000 </r>
       <r>    -7.6143     0.0000     0.0000 </r>
       <r>    -7.5783     0.0000     0.0000 </r>
       <r>    -7.5423     0.0000     0.0000 </r>
       <r>    -7.5063     0.0000     0.0000 </r>
       <r>    -7.4703     0.0000     0.0000 </r>
       <r>    -7.4343     0.0000     0.0000 </r>
       <r>    -7.3983     0.0000     0.0000 </r>
       <r>    -7.3623     0.0000     0.0000 </r>
       <r>    -7.3263     0.0000     0.0000 </r>
       <r>    -7.2903     0.0000     0.0000 </r>
       <r>    -7.2544     0.0000     0.0000 </r>
       <r>    -7.2184     0.0000     0.0000 </r>
       <r>    -7.1824     0.0000     0.0000 </r>
       <r>    -7.1464     0.0000     0.0000 </r>
       <r>    -7.1104     0.0000     0.0000 </r>
       <r>    -7.0744     0.0000     0.0000 </r>
       <r>    -7.0384     0.0000     0.0000 </r>
       <r>    -7.0024     0.0000     0.0000 </r>
       <r>    -6.9664     0.0000     0.0000 </r>
       <r>    -6.9304     0.0000     0.0000 </r>
       <r>    -6.8944     0.0000     0.0000 </r>
       <r>    -6.8585     0.0000     0.0000 </r>
       <r>    -6.8225     0.0000     0.0000 </r>
       <r>    -6.7865     0.0000     0.0000 </r>
       <r>    -6.7505     0.0000     0.0000 </r>
       <r>    -6.7145     0.0000     0.0000 </r>
       <r>    -6.6785     0.0000     0.0000 </r>
       <r>    -6.6425     0.0000     0.0000 </r>
       <r>    -6.6065     0.0000     0.0000 </r>
       <r>    -6.5705     0.0000     0.0000 </r>
       <r>    -6.5345     0.0000     0.0000 </r>
       <r>    -6.4986     0.0000     0.0000 </r>
       <r>    -6.4626     0.0000     0.0000 </r>
       <r>    -6.4266     0.0000     0.0000 </r>
       <r>    -6.3906     0.0000     0.0000 </r>
       <r>    -6.3546     0.0000     0.0000 </r>
       <r>    -6.3186     0.0000     0.0000 </r>
       <r>    -6.2826     0.0000     0.0000 </r>
       <r>    -6.2466     0.0000     0.0000 </r>
       <r>    -6.2106     0.0004     0.0000 </r>
       <r>    -6.1746     0.0087     0.0001 </r>
       <r>    -6.1386     0.0278     0.0008 </r>
       <r>    -6.1027     0.0576     0.0023 </r>
       <r>    -6.0667     0.0981     0.0050 </r>
       <r>    -6.0307     0.1494     0.0095 </r>
       <r>    -5.9947     0.1558     0.0153 </r>
       <r>    -5.9587     0.1486     0.0207 </r>
       <r>    -5.9227     0.1595     0.0262 </r>
       <r>    -5.8867     0.1718     0.0322 </r>
       <r>    -5.8507     0.1845     0.0386 </r>
       <r>    -5.8147     0.1977     0.0455 </r>
       <r>    -5.7787     0.2112     0.0528 </r>
       <r>    -5.7428     0.2251     0.0607 </r>
       <r>    -5.7068     0.2394     0.0690 </r>
       <r>    -5.6708     0.2540     0.0779 </r>
       <r>    -5.6348     0.2668     0.0873 </r>
       <r>    -5.5988     0.2772     0.0971 </r>
       <r>    -5.5628     0.2852     0.1072 </r>
       <r>    -5.5268     0.2906     0.1176 </r>
       <r>    -5.4908     0.2936     0.1281 </r>
       <r>    -5.4548     0.2977     0.1387 </r>
       <r>    -5.4188     0.3052     0.1496 </r>
       <r>    -5.3828     0.3139     0.1607 </r>
       <r>    -5.3469     0.3227     0.1722 </r>
       <r>    -5.3109     0.3317     0.1840 </r>
       <r>    -5.2749     0.3407     0.1961 </r>
       <r>    -5.2389     0.3498     0.2085 </r>
       <r>    -5.2029     0.3591     0.2212 </r>
       <r>    -5.1669     0.3684     0.2343 </r>
       <r>    -5.1309     0.3778     0.2478 </r>
       <r>    -5.0949     0.3874     0.2615 </r>
       <r>    -5.0589     0.3971     0.2756 </r>
       <r>    -5.0229     0.4069     0.2901 </r>
       <r>    -4.9870     0.4169     0.3049 </r>
       <r>    -4.9510     0.4235     0.3201 </r>
       <r>    -4.9150     0.4292     0.3354 </r>
       <r>    -4.8790     0.4367     0.3510 </r>
       <r>    -4.8430     0.4446     0.3669 </r>
       <r>    -4.8070     0.4526     0.3830 </r>
       <r>    -4.7710     0.4608     0.3994 </r>
       <r>    -4.7350     0.4690     0.4162 </r>
       <r>    -4.6990     0.4774     0.4332 </r>
       <r>    -4.6630     0.4859     0.4505 </r>
       <r>    -4.6270     0.4947     0.4682 </r>
       <r>    -4.5911     0.5042     0.4861 </r>
       <r>    -4.5551     0.5142     0.5045 </r>
       <r>    -4.5191     0.5249     0.5232 </r>
       <r>    -4.4831     0.5360     0.5423 </r>
       <r>    -4.4471     0.5475     0.5618 </r>
       <r>    -4.4111     0.5597     0.5817 </r>
       <r>    -4.3751     0.5723     0.6020 </r>
       <r>    -4.3391     0.5853     0.6229 </r>
       <r>    -4.3031     0.5987     0.6442 </r>
       <r>    -4.2671     0.6125     0.6660 </r>
       <r>    -4.2312     0.6267     0.6883 </r>
       <r>    -4.1952     0.6412     0.7111 </r>
       <r>    -4.1592     0.6562     0.7344 </r>
       <r>    -4.1232     0.6722     0.7583 </r>
       <r>    -4.0872     0.6892     0.7828 </r>
       <r>    -4.0512     0.7071     0.8080 </r>
       <r>    -4.0152     0.7382     0.8339 </r>
       <r>    -3.9792     0.7955     0.8614 </r>
       <r>    -3.9432     0.8725     0.8914 </r>
       <r>    -3.9072     0.9687     0.9244 </r>
       <r>    -3.8712     1.0635     0.9612 </r>
       <r>    -3.8353     1.0216     0.9992 </r>
       <r>    -3.7993     0.8475     1.0329 </r>
       <r>    -3.7633     0.8425     1.0633 </r>
       <r>    -3.7273     0.8379     1.0935 </r>
       <r>    -3.6913     0.8336     1.1236 </r>
       <r>    -3.6553     0.8296     1.1535 </r>
       <r>    -3.6193     0.8260     1.1833 </r>
       <r>    -3.5833     0.8226     1.2130 </r>
       <r>    -3.5473     0.8193     1.2425 </r>
       <r>    -3.5113     0.8162     1.2720 </r>
       <r>    -3.4754     0.8100     1.3013 </r>
       <r>    -3.4394     0.7953     1.3302 </r>
       <r>    -3.4034     0.7720     1.3584 </r>
       <r>    -3.3674     0.7401     1.3856 </r>
       <r>    -3.3314     0.7060     1.4116 </r>
       <r>    -3.2954     0.7000     1.4368 </r>
       <r>    -3.2594     0.7054     1.4621 </r>
       <r>    -3.2234     0.7073     1.4876 </r>
       <r>    -3.1874     0.7056     1.5130 </r>
       <r>    -3.1514     0.7004     1.5383 </r>
       <r>    -3.1155     0.6916     1.5634 </r>
       <r>    -3.0795     0.6802     1.5880 </r>
       <r>    -3.0435     0.6684     1.6123 </r>
       <r>    -3.0075     0.6562     1.6362 </r>
       <r>    -2.9715     0.6437     1.6595 </r>
       <r>    -2.9355     0.6309     1.6825 </r>
       <r>    -2.8995     0.6289     1.7052 </r>
       <r>    -2.8635     0.6240     1.7277 </r>
       <r>    -2.8275     0.6161     1.7500 </r>
       <r>    -2.7915     0.6052     1.7720 </r>
       <r>    -2.7555     0.5909     1.7936 </r>
       <r>    -2.7196     0.5590     1.8143 </r>
       <r>    -2.6836     0.5271     1.8338 </r>
       <r>    -2.6476     0.4951     1.8522 </r>
       <r>    -2.6116     0.4631     1.8695 </r>
       <r>    -2.5756     0.4311     1.8855 </r>
       <r>    -2.5396     0.3990     1.9005 </r>
       <r>    -2.5036     0.3668     1.9143 </r>
       <r>    -2.4676     0.3349     1.9269 </r>
       <r>    -2.4316     0.3038     1.9384 </r>
       <r>    -2.3956     0.2736     1.9488 </r>
       <r>    -2.3597     0.2443     1.9581 </r>
       <r>    -2.3237     0.2158     1.9664 </r>
       <r>    -2.2877     0.1883     1.9736 </r>
       <r>    -2.2517     0.1616     1.9799 </r>
       <r>    -2.2157     0.1358     1.9853 </r>
       <r>    -2.1797     0.1110     1.9897 </r>
       <r>    -2.1437     0.0870     1.9933 </r>
       <r>    -2.1077     0.0639     1.9960 </r>
       <r>    -2.0717     0.0422     1.9979 </r>
       <r>    -2.0357     0.0273     1.9991 </r>
       <r>    -1.9997     0.0207     1.9999 </r>
       <r>    -1.9638     0.0235     2.0007 </r>
       <r>    -1.9278     0.0363     2.0018 </r>
       <r>    -1.8918     0.0567     2.0034 </r>
       <r>    -1.8558     0.0783     2.0058 </r>
       <r>    -1.8198     0.1009     2.0091 </r>
       <r>    -1.7838     0.1244     2.0131 </r>
       <r>    -1.7478     0.1488     2.0180 </r>
       <r>    -1.7118     0.1742     2.0238 </r>
       <r>    -1.6758     0.2006     2.0306 </r>
       <r>    -1.6398     0.2278     2.0383 </r>
       <r>    -1.6039     0.2561     2.0470 </r>
       <r>    -1.5679     0.2853     2.0567 </r>
       <r>    -1.5319     0.3154     2.0675 </r>
       <r>    -1.4959     0.3465     2.0794 </r>
       <r>    -1.4599     0.3789     2.0925 </r>
       <r>    -1.4239     0.4129     2.1067 </r>
       <r>    -1.3879     0.4486     2.1222 </r>
       <r>    -1.3519     0.4859     2.1390 </r>
       <r>    -1.3159     0.5248     2.1572 </r>
       <r>    -1.2799     0.5654     2.1768 </r>
       <r>    -1.2439     0.6087     2.1980 </r>
       <r>    -1.2080     0.6622     2.2208 </r>
       <r>    -1.1720     0.7930     2.2468 </r>
       <r>    -1.1360     0.9213     2.2777 </r>
       <r>    -1.1000     1.0355     2.3130 </r>
       <r>    -1.0640     1.1611     2.3524 </r>
       <r>    -1.0280     1.6200     2.4025 </r>
       <r>    -0.9920     1.7320     2.4632 </r>
       <r>    -0.9560     1.7063     2.5255 </r>
       <r>    -0.9200     1.5427     2.5844 </r>
       <r>    -0.8840     1.3119     2.6356 </r>
       <r>    -0.8481     1.1534     2.6797 </r>
       <r>    -0.8121     1.0491     2.7193 </r>
       <r>    -0.7761     0.9629     2.7554 </r>
       <r>    -0.7401     0.8939     2.7888 </r>
       <r>    -0.7041     0.8419     2.8200 </r>
       <r>    -0.6681     0.8072     2.8496 </r>
       <r>    -0.6321     0.7835     2.8782 </r>
       <r>    -0.5961     0.7607     2.9060 </r>
       <r>    -0.5601     0.7385     2.9330 </r>
       <r>    -0.5241     0.7169     2.9592 </r>
       <r>    -0.4881     0.6959     2.9846 </r>
       <r>    -0.4522     0.6754     3.0093 </r>
       <r>    -0.4162     0.6556     3.0332 </r>
       <r>    -0.3802     0.6364     3.0565 </r>
       <r>    -0.3442     0.6178     3.0790 </r>
       <r>    -0.3082     0.5998     3.1009 </r>
       <r>    -0.2722     0.5824     3.1222 </r>
       <r>    -0.2362     0.5656     3.1429 </r>
       <r>    -0.2002     0.5467     3.1629 </r>
       <r>    -0.1642     0.5232     3.1822 </r>
       <r>    -0.1282     0.4950     3.2005 </r>
       <r>    -0.0923     0.4767     3.2180 </r>
       <r>    -0.0563     0.4620     3.2348 </r>
       <r>    -0.0203     0.4483     3.2512 </r>
       <r>     0.0157     0.4357     3.2671 </r>
       <r>     0.0517     0.4242     3.2826 </r>
       <r>     0.0877     0.4138     3.2977 </r>
       <r>     0.1237     0.4044     3.3124 </r>
       <r>     0.1597     0.3961     3.3268 </r>
       <r>     0.1957     0.3889     3.3409 </r>
       <r>     0.2317     0.3827     3.3548 </r>
       <r>     0.2677     0.3773     3.3685 </r>
       <r>     0.3036     0.3721     3.3820 </r>
       <r>     0.3396     0.3669     3.3953 </r>
       <r>     0.3756     0.3619     3.4084 </r>
       <r>     0.4116     0.3569     3.4213 </r>
       <r>     0.4476     0.3520     3.4341 </r>
       <r>     0.4836     0.3470     3.4467 </r>
       <r>     0.5196     0.3420     3.4591 </r>
       <r>     0.5556     0.3368     3.4713 </r>
       <r>     0.5916     0.3315     3.4833 </r>
       <r>     0.6276     0.3261     3.4951 </r>
       <r>     0.6635     0.3206     3.5068 </r>
       <r>     0.6995     0.3150     3.5182 </r>
       <r>     0.7355     0.3093     3.5294 </r>
       <r>     0.7715     0.3035     3.5405 </r>
       <r>     0.8075     0.2975     3.5513 </r>
       <r>     0.8435     0.2915     3.5619 </r>
       <r>     0.8795     0.2856     3.5723 </r>
       <r>     0.9155     0.2799     3.5824 </r>
       <r>     0.9515     0.2743     3.5924 </r>
       <r>     0.9875     0.2689     3.6022 </r>
       <r>     1.0235     0.2636     3.6118 </r>
       <r>     1.0594     0.2584     3.6212 </r>
       <r>     1.0954     0.2519     3.6304 </r>
       <r>     1.1314     0.2410     3.6392 </r>
       <r>     1.1674     0.2312     3.6477 </r>
       <r>     1.2034     0.2223     3.6559 </r>
       <r>     1.2394     0.2145     3.6637 </r>
       <r>     1.2754     0.2076     3.6713 </r>
       <r>     1.3114     0.2018     3.6787 </r>
       <r>     1.3474     0.1969     3.6859 </r>
       <r>     1.3834     0.1930     3.6929 </r>
       <r>     1.4193     0.2211     3.7001 </r>
       <r>     1.4553     0.3435     3.7100 </r>
       <r>     1.4913     0.5395     3.7258 </r>
       <r>     1.5273     0.7497     3.7489 </r>
       <r>     1.5633     0.9707     3.7799 </r>
       <r>     1.5993     1.2025     3.8189 </r>
       <r>     1.6353     1.4326     3.8665 </r>
       <r>     1.6713     1.3330     3.9162 </r>
       <r>     1.7073     1.2556     3.9628 </r>
       <r>     1.7433     1.1864     4.0067 </r>
       <r>     1.7793     1.1363     4.0484 </r>
       <r>     1.8152     1.1052     4.0887 </r>
       <r>     1.8512     1.0925     4.1282 </r>
       <r>     1.8872     1.0874     4.1674 </r>
       <r>     1.9232     1.0853     4.2065 </r>
       <r>     1.9592     1.0861     4.2455 </r>
       <r>     1.9952     1.0887     4.2847 </r>
       <r>     2.0312     1.0929     4.3239 </r>
       <r>     2.0672     1.0987     4.3634 </r>
       <r>     2.1032     1.1062     4.4030 </r>
       <r>     2.1392     1.1153     4.4430 </r>
       <r>     2.1751     1.1254     4.4833 </r>
       <r>     2.2111     1.1245     4.5239 </r>
       <r>     2.2471     1.1083     4.5641 </r>
       <r>     2.2831     1.6861     4.6105 </r>
       <r>     2.3191     1.1507     4.6604 </r>
       <r>     2.3551     1.0620     4.6992 </r>
       <r>     2.3911     1.0834     4.7379 </r>
       <r>     2.4271     1.0868     4.7769 </r>
       <r>     2.4631     1.0930     4.8162 </r>
       <r>     2.4991     1.1025     4.8556 </r>
       <r>     2.5351     1.1170     4.8956 </r>
       <r>     2.5710     1.1349     4.9361 </r>
       <r>     2.6070     1.1564     4.9773 </r>
       <r>     2.6430     1.1813     5.0194 </r>
       <r>     2.6790     1.2097     5.0624 </r>
       <r>     2.7150     1.2416     5.1065 </r>
       <r>     2.7510     1.2786     5.1518 </r>
       <r>     2.7870     1.3223     5.1986 </r>
       <r>     2.8230     1.3627     5.2469 </r>
       <r>     2.8590     1.3999     5.2967 </r>
       <r>     2.8950     1.4349     5.3477 </r>
       <r>     2.9309     1.4694     5.3999 </r>
       <r>     2.9669     1.5206     5.4536 </r>
       <r>     3.0029     1.6754     5.5107 </r>
       <r>     3.0389     1.8573     5.5753 </r>
       <r>     3.0749     1.5897     5.6368 </r>
       <r>     3.1109     1.4972     5.6918 </r>
       <r>     3.1469     1.4889     5.7456 </r>
       <r>     3.1829     1.4804     5.7990 </r>
       <r>     3.2189     1.4715     5.8521 </r>
       <r>     3.2549     1.4623     5.9049 </r>
       <r>     3.2909     1.4533     5.9574 </r>
       <r>     3.3268     1.4446     6.0095 </r>
       <r>     3.3628     1.4364     6.0614 </r>
       <r>     3.3988     1.4276     6.1129 </r>
       <r>     3.4348     1.4128     6.1640 </r>
       <r>     3.4708     1.3954     6.2146 </r>
       <r>     3.5068     1.3772     6.2645 </r>
       <r>     3.5428     1.3762     6.3140 </r>
       <r>     3.5788     1.3854     6.3636 </r>
       <r>     3.6148     1.3922     6.4136 </r>
       <r>     3.6508     1.3959     6.4638 </r>
       <r>     3.6867     1.3966     6.5141 </r>
       <r>     3.7227     1.3943     6.5643 </r>
       <r>     3.7587     1.3891     6.6144 </r>
       <r>     3.7947     1.3811     6.6643 </r>
       <r>     3.8307     1.3713     6.7138 </r>
       <r>     3.8667     1.3600     6.7630 </r>
       <r>     3.9027     1.3475     6.8117 </r>
       <r>     3.9387     1.3341     6.8599 </r>
       <r>     3.9747     1.3197     6.9077 </r>
       <r>     4.0107     1.3044     6.9549 </r>
       <r>     4.0466     1.2881     7.0016 </r>
       <r>     4.0826     1.2708     7.0476 </r>
       <r>     4.1186     1.2526     7.0931 </r>
       <r>     4.1546     1.2355     7.1378 </r>
       <r>     4.1906     1.2477     7.1825 </r>
       <r>     4.2266     1.2565     7.2275 </r>
       <r>     4.2626     1.2598     7.2728 </r>
       <r>     4.2986     1.2578     7.3182 </r>
       <r>     4.3346     1.2491     7.3633 </r>
       <r>     4.3706     1.2337     7.4080 </r>
       <r>     4.4066     1.2059     7.4520 </r>
       <r>     4.4425     1.1537     7.4945 </r>
       <r>     4.4785     1.0881     7.5349 </r>
       <r>     4.5145     0.9933     7.5724 </r>
       <r>     4.5505     0.8813     7.6061 </r>
       <r>     4.5865     0.7951     7.6362 </r>
       <r>     4.6225     0.7369     7.6637 </r>
       <r>     4.6585     0.7006     7.6895 </r>
       <r>     4.6945     0.6656     7.7141 </r>
       <r>     4.7305     0.6304     7.7374 </r>
       <r>     4.7665     0.5949     7.7595 </r>
       <r>     4.8024     0.5591     7.7803 </r>
       <r>     4.8384     0.5231     7.7997 </r>
       <r>     4.8744     0.4868     7.8179 </r>
       <r>     4.9104     0.4502     7.8348 </r>
       <r>     4.9464     0.4134     7.8503 </r>
       <r>     4.9824     0.3860     7.8646 </r>
       <r>     5.0184     0.3630     7.8781 </r>
       <r>     5.0544     0.3414     7.8908 </r>
       <r>     5.0904     0.3214     7.9027 </r>
       <r>     5.1264     0.3029     7.9139 </r>
       <r>     5.1624     0.2859     7.9245 </r>
       <r>     5.1983     0.2703     7.9345 </r>
       <r>     5.2343     0.2563     7.9440 </r>
       <r>     5.2703     0.2438     7.9530 </r>
       <r>     5.3063     0.2328     7.9616 </r>
       <r>     5.3423     0.2233     7.9698 </r>
       <r>     5.3783     0.2153     7.9777 </r>
       <r>     5.4143     0.2088     7.9853 </r>
       <r>     5.4503     0.1015     7.9908 </r>
       <r>     5.4863     0.0763     7.9940 </r>
       <r>     5.5223     0.0547     7.9964 </r>
       <r>     5.5582     0.0367     7.9980 </r>
       <r>     5.5942     0.0223     7.9991 </r>
       <r>     5.6302     0.0115     7.9997 </r>
       <r>     5.6662     0.0042     7.9999 </r>
       <r>     5.7022     0.0005     8.0000 </r>
       <r>     5.7382     0.0000     8.0000 </r>
       <r>     5.7742     0.0000     8.0000 </r>
       <r>     5.8102     0.0000     8.0000 </r>
       <r>     5.8462     0.0000     8.0000 </r>
       <r>     5.8822     0.0000     8.0000 </r>
       <r>     5.9182     0.0000     8.0000 </r>
       <r>     5.9541     0.0000     8.0000 </r>
       <r>     5.9901     0.0000     8.0000 </r>
       <r>     6.0261     0.0000     8.0000 </r>
       <r>     6.0621     0.0000     8.0000 </r>
       <r>     6.0981     0.0000     8.0000 </r>
       <r>     6.1341     0.0000     8.0000 </r>
       <r>     6.1701     0.0000     8.0000 </r>
       <r>     6.2061     0.0000     8.0000 </r>
       <r>     6.2421     0.0005     8.0000 </r>
       <r>     6.2781     0.0153     8.0002 </r>
       <r>     6.3140     0.0509     8.0013 </r>
       <r>     6.3500     0.0975     8.0040 </r>
       <r>     6.3860     0.1322     8.0082 </r>
       <r>     6.4220     0.1542     8.0134 </r>
       <r>     6.4580     0.1634     8.0192 </r>
       <r>     6.4940     0.1598     8.0250 </r>
       <r>     6.5300     0.1642     8.0307 </r>
       <r>     6.5660     0.1831     8.0370 </r>
       <r>     6.6020     0.2030     8.0439 </r>
       <r>     6.6380     0.2238     8.0516 </r>
       <r>     6.6740     0.2454     8.0600 </r>
       <r>     6.7099     0.2680     8.0693 </r>
       <r>     6.7459     0.2915     8.0793 </r>
       <r>     6.7819     0.3156     8.0902 </r>
       <r>     6.8179     0.3388     8.1020 </r>
       <r>     6.8539     0.3611     8.1146 </r>
       <r>     6.8899     0.3827     8.1280 </r>
       <r>     6.9259     0.4036     8.1422 </r>
       <r>     6.9619     0.4237     8.1571 </r>
       <r>     6.9979     0.4454     8.1727 </r>
       <r>     7.0339     0.4686     8.1891 </r>
       <r>     7.0698     0.4912     8.2064 </r>
       <r>     7.1058     0.5133     8.2245 </r>
       <r>     7.1418     0.5348     8.2433 </r>
       <r>     7.1778     0.5572     8.2630 </r>
       <r>     7.2138     0.5843     8.2835 </r>
       <r>     7.2498     0.6166     8.3051 </r>
       <r>     7.2858     0.6543     8.3280 </r>
       <r>     7.3218     0.6963     8.3523 </r>
       <r>     7.3578     0.7414     8.3781 </r>
       <r>     7.3938     0.7893     8.4057 </r>
       <r>     7.4298     0.8403     8.4350 </r>
       <r>     7.4657     0.8943     8.4662 </r>
       <r>     7.5017     0.9519     8.4994 </r>
       <r>     7.5377     1.0137     8.5347 </r>
       <r>     7.5737     1.0794     8.5724 </r>
       <r>     7.6097     1.1645     8.6128 </r>
       <r>     7.6457     1.2317     8.6559 </r>
       <r>     7.6817     1.3052     8.7015 </r>
       <r>     7.7177     1.3975     8.7501 </r>
       <r>     7.7537     1.5096     8.8023 </r>
       <r>     7.7897     1.6415     8.8590 </r>
       <r>     7.8256     1.7740     8.9205 </r>
       <r>     7.8616     1.8597     8.9860 </r>
       <r>     7.8976     1.9057     9.0539 </r>
       <r>     7.9336     1.9354     9.1230 </r>
       <r>     7.9696     1.9542     9.1931 </r>
       <r>     8.0056     1.9623     9.2636 </r>
       <r>     8.0416     1.9847     9.3345 </r>
       <r>     8.0776     2.0080     9.4064 </r>
       <r>     8.1136     2.1036     9.4801 </r>
       <r>     8.1496     2.1713     9.5574 </r>
       <r>     8.1856     2.1300     9.6348 </r>
       <r>     8.2215     2.0728     9.7105 </r>
       <r>     8.2575     1.9943     9.7838 </r>
       <r>     8.2935     1.8761     9.8535 </r>
       <r>     8.3295     1.7178     9.9183 </r>
       <r>     8.3655     1.5222     9.9767 </r>
       <r>     8.4015     1.3394    10.0281 </r>
       <r>     8.4375     1.1856    10.0735 </r>
       <r>     8.4735     1.0607    10.1138 </r>
       <r>     8.5095     0.8630    10.1498 </r>
       <r>     8.5455     0.6679    10.1761 </r>
       <r>     8.5814     0.5734    10.1984 </r>
[...]
       </set>
       <set comment="band 12">
        <r>  0.0080  0.0510  0.0154  0.0068  0.0000  0.0000  0.0000  0.0000  0.0000 </r>
        <r>  0.0080  0.0510  0.0154  0.0068  0.0000  0.0000  0.0000  0.0000  0.0000 </r>
       </set>
       <set comment="band 13">
        <r>  0.0126  0.0333  0.0301  0.0221  0.0000  0.0000  0.0000  0.0000  0.0000 </r>
        <r>  0.0126  0.0333  0.0301  0.0221  0.0000  0.0000  0.0000  0.0000  0.0000 </r>
       </set>
       <set comment="band 14">
        <r>  0.0152  0.0001  0.0042  0.1037  0.0000  0.0000  0.0000  0.0000  0.0000 </r>
        <r>  0.0152  0.0001  0.0042  0.1037  0.0000  0.0000  0.0000  0.0000  0.0000 </r>
       </set>
       <set comment="band 15">
        <r>  0.0126  0.0016  0.0090  0.0104  0.0000  0.0000  0.0000  0.0000  0.0000 </r>
        <r>  0.0126  0.0016  0.0090  0.0104  0.0000  0.0000  0.0000  0.0000  0.0000 </r>
       </set>
       <set comment="band 16">
        <r>  0.0249  0.0028  0.0045  0.0089  0.0000  0.0000  0.0000  0.0000  0.0000 </r>
        <r>  0.0249  0.0028  0.0045  0.0089  0.0000  0.0000  0.0000  0.0000  0.0000 </r>
       </set>
       <set comment="band 17">
        <r>  0.0054  0.0725  0.0143  0.0121  0.0000  0.0000  0.0000  0.0000  0.0000 </r>
        <r>  0.0054  0.0725  0.0143  0.0121  0.0000  0.0000  0.0000  0.0000  0.0000 </r>
       </set>
       <set comment="band 18">
        <r>  0.0155  0.0281  0.0002  0.0393  0.0000  0.0000  0.0000  0.0000  0.0000 </r>
        <r>  0.0155  0.0281  0.0002  0.0393  0.0000  0.0000  0.0000  0.0000  0.0000 </r>
       </set>
       <set comment="band 19">
        <r>  0.0089  0.0072  0.0277  0.0013  0.0000  0.0000  0.0000  0.0000  0.0000 </r>
        <r>  0.0089  0.0072  0.0277  0.0013  0.0000  0.0000  0.0000  0.0000  0.0000 </r>
       </set>
       <set comment="band 20">
        <r>  0.0096  0.0186  0.0451  0.0009  0.0000  0.0000  0.0000  0.0000  0.0000 </r>
        <r>  0.0096  0.0186  0.0451  0.0009  0.0000  0.0000  0.0000  0.0000  0.0000 </r>
       </set>
       <set comment="band 21">
        <r>  0.0163  0.0166  0.0001  0.0149  0.0000  0.0000  0.0000  0.0000  0.0000 </r>
        <r>  0.0163  0.0166  0.0001  0.0149  0.0000  0.0000  0.0000  0.0000  0.0000 </r>
       </set>
       <set comment="band 22">
        <r>  0.0039  0.0062  0.0018  0.0027  0.0000  0.0000  0.0000  0.0000  0.0000 </r>
        <r>  0.0039  0.0062  0.0018  0.0027  0.0000  0.0000  0.0000  0.0000  0.0000 </r>
       </set>
       <set comment="band 23">
        <r>  0.0109  0.0276  0.0359  0.0006  0.0000  0.0000  0.0000  0.0000  0.0000 </r>
        <r>  0.0109  0.0276  0.0359  0.0006  0.0000  0.0000  0.0000  0.0000  0.0000 </r>
       </set>
       <set comment="band 24">
        <r>  0.0014  0.0069  0.0037  0.0079  0.0000  0.0000  0.0000  0.0000  0.0000 </r>
        <r>  0.0014  0.0066  0.0034  0.0079  0.0000  0.0000  0.0000  0.0000  0.0000 </r>
       </set>
      </set>
      <set comment="kpoint 27">
       <set comment="band 1">
        <r>  0.2110  0.0145  0.0022  0.0111  0.0000  0.0000  0.0000  0.0000  0.0000 </r>
        <r>  0.2110  0.0145  0.0022  0.0111  0.0000  0.0000  0.0000  0.0000  0.0000 </r>
       </set>
       <set comment="band 2">
        <r>  0.1798  0.0285  0.0023  0.0320  0.0000  0.0000  0.0000  0.0000  0.0000 </r>
        <r>  0.1798  0.0285  0.0023  0.0320  0.0000  0.0000  0.0000  0.0000  0.0000 </r>
       </set>
       <set comment="band 3">
        <r>  0.0065  0.0780  0.0009  0.0720  0.0000  0.0000  0.0000  0.0000  0.0000 </r>
        <r>  0.0065  0.0780  0.0009  0.0720  0.0000  0.0000  0.0000  0.0000  0.0000 </r>
       </set>
       <set comment="band 4">
        <r>  0.0038  0.0066  0.1600  0.0129  0.0000  0.0000  0.0000  0.0000  0.0000 </r>
        <r>  0.0038  0.0066  0.1600  0.0129  0.0000  0.0000  0.0000  0.0000  0.0000 </r>
       </set>
       <set comment="band 5">
        <r>  0.0377  0.0137  0.0413  0.0219  0.0000  0.0000  0.0000  0.0000  0.0000 </r>
        <r>  0.0377  0.0137  0.0413  0.0219  0.0000  0.0000  0.0000  0.0000  0.0000 </r>
       </set>
       <set comment="band 6">
        <r>  0.0179  0.0113  0.0762  0.0198  0.0000  0.0000  0.0000  0.0000  0.0000 </r>
        <r>  0.0179  0.0113  0.0762  0.0198  0.0000  0.0000  0.0000  0.0000  0.0000 </r>
       </set>
       <set comment="band 7">
        <r>  0.0448  0.0450  0.0010  0.0363  0.0000  0.0000  0.0000  0.0000  0.0000 </r>
        <r>  0.0448  0.0450  0.0010  0.0363  0.0000  0.0000  0.0000  0.0000  0.0000 </r>
       </set>
       <set comment="band 8">
        <r>  0.0182  0.0588  0.0064  0.0364  0.0000  0.0000  0.0000  0.0000  0.0000 </r>
        <r>  0.0182  0.0588  0.0064  0.0364  0.0000  0.0000  0.0000  0.0000  0.0000 </r>
       </set>
       <set comment="band 9">
        <r>  0.0136  0.0335  0.0612  0.0611  0.0000  0.0000  0.0000  0.0000  0.0000 </r>
        <r>  0.0136  0.0335  0.0612  0.0611  0.0000  0.0000  0.0000  0.0000  0.0000 </r>
       </set>
       <set comment="band 10">
        <r>  0.0293  0.0439  0.0118  0.0258  0.0000  0.0000  0.0000  0.0000  0.0000 </r>
        <r>  0.0293  0.0439  0.0118  0.0258  0.0000  0.0000  0.0000  0.0000  0.0000 </r>
       </set>
       <set comment="band 11">
        <r>  0.0171  0.0036  0.0040  0.0072  0.0000  0.0000  0.0000  0.0000  0.0000 </r>
        <r>  0.0171  0.0036  0.0040  0.0072  0.0000  0.0000  0.0000  0.0000  0.0000 </r>
       </set>
       <set comment="band 12">
        <r>  0.0010  0.0628  0.0020  0.0806  0.0000  0.0000  0.0000  0.0000  0.0000 </r>
        <r>  0.0010  0.0628  0.0020  0.0806  0.0000  0.0000  0.0000  0.0000  0.0000 </r>
       </set>
       <set comment="band 13">
        <r>  0.0064  0.0249  0.0289  0.0224  0.0000  0.0000  0.0000  0.0000  0.0000 </r>
        <r>  0.0064  0.0249  0.0289  0.0224  0.0000  0.0000  0.0000  0.0000  0.0000 </r>
       </set>
       <set comment="band 14">
        <r>  0.0153  0.0671  0.0013  0.0386  0.0000  0.0000  0.0000  0.0000  0.0000 </r>
        <r>  0.0153  0.0671  0.0013  0.0386  0.0000  0.0000  0.0000  0.0000  0.0000 </r>
       </set>
       <set comment="band 15">
        <r>  0.0343  0.0058  0.0420  0.0036  0.0000  0.0000  0.0000  0.0000  0.0000 </r>
        <r>  0.0343  0.0058  0.0420  0.0036  0.0000  0.0000  0.0000  0.0000  0.0000 </r>
       </set>
       <set comment="band 16">
        <r>  0.0102  0.0242  0.0009  0.0402  0.0000  0.0000  0.0000  0.0000  0.0000 </r>
        <r>  0.0102  0.0242  0.0009  0.0402  0.0000  0.0000  0.0000  0.0000  0.0000 </r>
       </set>
       <set comment="band 17">
        <r>  0.0029  0.0268  0.0033  0.0155  0.0000  0.0000  0.0000  0.0000  0.0000 </r>
        <r>  0.0029  0.0268  0.0033  0.0155  0.0000  0.0000  0.0000  0.0000  0.0000 </r>
       </set>
       <set comment="band 18">
        <r>  0.0086  0.0289  0.0400  0.0484  0.0000  0.0000  0.0000  0.0000  0.0000 </r>
        <r>  0.0086  0.0289  0.0400  0.0484  0.0000  0.0000  0.0000  0.0000  0.0000 </r>
       </set>
       <set comment="band 19">
        <r>  0.0068  0.0065  0.0133  0.0033  0.0000  0.0000  0.0000  0.0000  0.0000 </r>
        <r>  0.0068  0.0065  0.0133  0.0033  0.0000  0.0000  0.0000  0.0000  0.0000 </r>
       </set>
       <set comment="band 20">
        <r>  0.0176  0.0101  0.0074  0.0074  0.0000  0.0000  0.0000  0.0000  0.0000 </r>
        <r>  0.0176  0.0101  0.0074  0.0074  0.0000  0.0000  0.0000  0.0000  0.0000 </r>
       </set>
       <set comment="band 21">
        <r>  0.0084  0.0034  0.0336  0.0036  0.0000  0.0000  0.0000  0.0000  0.0000 </r>
        <r>  0.0084  0.0034  0.0336  0.0036  0.0000  0.0000  0.0000  0.0000  0.0000 </r>
       </set>
       <set comment="band 22">
        <r>  0.0079  0.0018  0.0030  0.0009  0.0000  0.0000  0.0000  0.0000  0.0000 </r>
        <r>  0.0079  0.0018  0.0030  0.0009  0.0000  0.0000  0.0000  0.0000  0.0000 </r>
       </set>
       <set comment="band 23">
        <r>  0.0060  0.0193  0.0482  0.0115  0.0000  0.0000  0.0000  0.0000  0.0000 </r>
        <r>  0.0060  0.0193  0.0482  0.0115  0.0000  0.0000  0.0000  0.0000  0.0000 </r>
       </set>
       <set comment="band 24">
        <r>  0.0371  0.0021  0.0056  0.0016  0.0000  0.0000  0.0000  0.0000  0.0000 </r>
        <r>  0.0371  0.0021  0.0057  0.0015  0.0000  0.0000  0.0000  0.0000  0.0000 </r>
       </set>
      </set>
      <set comment="kpoint 28">
       <set comment="band 1">
        <r>  0.1985  0.0145  0.0028  0.0263  0.0000  0.0000  0.0000  0.0000  0.0000 </r>
        <r>  0.1984  0.0145  0.0028  0.0263  0.0000  0.0000  0.0000  0.0000  0.0000 </r>
       </set>
       <set comment="band 2">
        <r>  0.1984  0.0145  0.0019  0.0272  0.0000  0.0000  0.0000  0.0000  0.0000 </r>
        <r>  0.1985  0.0145  0.0019  0.0272  0.0000  0.0000  0.0000  0.0000  0.0000 </r>
       </set>
       <set comment="band 3">
        <r>  0.0028  0.0627  0.0369  0.0703  0.0000  0.0000  0.0000  0.0000  0.0000 </r>
        <r>  0.0029  0.0627  0.0369  0.0703  0.0000  0.0000  0.0000  0.0000  0.0000 </r>
       </set>
       <set comment="band 4">
        <r>  0.0029  0.0506  0.1165  0.0029  0.0000  0.0000  0.0000  0.0000  0.0000 </r>
        <r>  0.0028  0.0506  0.1165  0.0029  0.0000  0.0000  0.0000  0.0000  0.0000 </r>
       </set>
       <set comment="band 5">
        <r>  0.0398  0.0350  0.0007  0.0305  0.0000  0.0000  0.0000  0.0000  0.0000 </r>
        <r>  0.0397  0.0350  0.0007  0.0305  0.0000  0.0000  0.0000  0.0000  0.0000 </r>
       </set>
       <set comment="band 6">
        <r>  0.0397  0.0091  0.0412  0.0158  0.0000  0.0000  0.0000  0.0000  0.0000 </r>
        <r>  0.0398  0.0091  0.0412  0.0158  0.0000  0.0000  0.0000  0.0000  0.0000 </r>
       </set>
       <set comment="band 7">
        <r>  0.0212  0.0649  0.0544  0.0052  0.0000  0.0000  0.0000  0.0000  0.0000 </r>
        <r>  0.0213  0.0649  0.0544  0.0052  0.0000  0.0000  0.0000  0.0000  0.0000 </r>
       </set>
       <set comment="band 8">
        <r>  0.0213  0.0181  0.0413  0.0651  0.0000  0.0000  0.0000  0.0000  0.0000 </r>
        <r>  0.0212  0.0181  0.0412  0.0651  0.0000  0.0000  0.0000  0.0000  0.0000 </r>
       </set>
       <set comment="band 9">
        <r>  0.0005  0.0600  0.0494  0.0145  0.0000  0.0000  0.0000  0.0000  0.0000 </r>
        <r>  0.0004  0.0607  0.0502  0.0152  0.0000  0.0000  0.0000  0.0000  0.0000 </r>
       </set>
       <set comment="band 10">
        <r>  0.0004  0.0234  0.0548  0.0480  0.0000  0.0000  0.0000  0.0000  0.0000 </r>
        <r>  0.0005  0.0226  0.0540  0.0473  0.0000  0.0000  0.0000  0.0000  0.0000 </r>
       </set>
       <set comment="band 11">
        <r>  0.0246  0.0317  0.0083  0.0547  0.0000  0.0000  0.0000  0.0000  0.0000 </r>
        <r>  0.0244  0.0320  0.0083  0.0552  0.0000  0.0000  0.0000  0.0000  0.0000 </r>
       </set>
       <set comment="band 12">
        <r>  0.0244  0.0317  0.0069  0.0570  0.0000  0.0000  0.0000  0.0000  0.0000 </r>
        <r>  0.0246  0.0314  0.0069  0.0564  0.0000  0.0000  0.0000  0.0000  0.0000 </r>
       </set>
       <set comment="band 13">
        <r>  0.0112  0.0661  0.0239  0.0291  0.0000  0.0000  0.0000  0.0000  0.0000 </r>
        <r>  0.0112  0.0661  0.0239  0.0291  0.0000  0.0000  0.0000  0.0000  0.0000 </r>
       </set>
       <set comment="band 14">
        <r>  0.0112  0.0133  0.0141  0.0918  0.0000  0.0000  0.0000  0.0000  0.0000 </r>
        <r>  0.0112  0.0133  0.0141  0.0918  0.0000  0.0000  0.0000  0.0000  0.0000 </r>
       </set>
       <set comment="band 15">
        <r>  0.0030  0.0035  0.0094  0.0062  0.0000  0.0000  0.0000  0.0000  0.0000 </r>
        <r>  0.0030  0.0035  0.0094  0.0062  0.0000  0.0000  0.0000  0.0000  0.0000 </r>
       </set>
       <set comment="band 16">
        <r>  0.0030  0.0093  0.0042  0.0056  0.0000  0.0000  0.0000  0.0000  0.0000 </r>
        <r>  0.0030  0.0093  0.0042  0.0056  0.0000  0.0000  0.0000  0.0000  0.0000 </r>
       </set>
       <set comment="band 17">
        <r>  0.0335  0.0127  0.0031  0.0037  0.0000  0.0000  0.0000  0.0000  0.0000 </r>
        <r>  0.0337  0.0127  0.0031  0.0037  0.0000  0.0000  0.0000  0.0000  0.0000 </r>
       </set>
       <set comment="band 18">
        <r>  0.0336  0.0003  0.0126  0.0067  0.0000  0.0000  0.0000  0.0000  0.0000 </r>
        <r>  0.0335  0.0003  0.0126  0.0067  0.0000  0.0000  0.0000  0.0000  0.0000 </r>
       </set>
       <set comment="band 19">
        <r>  0.0007  0.0400  0.0000  0.0200  0.0000  0.0000  0.0000  0.0000  0.0000 </r>
        <r>  0.0007  0.0400  0.0000  0.0200  0.0000  0.0000  0.0000  0.0000  0.0000 </r>
       </set>
       <set comment="band 20">
        <r>  0.0007  0.0000  0.0598  0.0002  0.0000  0.0000  0.0000  0.0000  0.0000 </r>
        <r>  0.0007  0.0000  0.0598  0.0002  0.0000  0.0000  0.0000  0.0000  0.0000 </r>
       </set>
       <set comment="band 21">
        <r>  0.0326  0.0292  0.0008  0.0210  0.0000  0.0000  0.0000  0.0000  0.0000 </r>
        <r>  0.0267  0.0299  0.0001  0.0232  0.0000  0.0000  0.0000  0.0000  0.0000 </r>
       </set>
       <set comment="band 22">
        <r>  0.0267  0.0056  0.0335  0.0142  0.0000  0.0000  0.0000  0.0000  0.0000 </r>
        <r>  0.0326  0.0048  0.0342  0.0121  0.0000  0.0000  0.0000  0.0000  0.0000 </r>
       </set>
       <set comment="band 23">
        <r>  0.0006  0.0057  0.0026  0.0027  0.0000  0.0000  0.0000  0.0000  0.0000 </r>
        <r>  0.0004  0.0050  0.0016  0.0024  0.0000  0.0000  0.0000  0.0000  0.0000 </r>
       </set>
       <set comment="band 24">
        <r>  0.0004  0.0010  0.0074  0.0006  0.0000  0.0000  0.0000  0.0000  0.0000 </r>
        <r>  0.0006  0.0017  0.0084  0.0010  0.0000  0.0000  0.0000  0.0000  0.0000 </r>
       </set>
      </set>
      <set comment="kpoint 29">
       <set comment="band 1">
        <r>  0.2051  0.0139  0.0104  0.0174  0.0000  0.0000  0.0000  0.0000  0.0000 </r>
        <r>  0.2050  0.0139  0.0104  0.0174  0.0000  0.0000  0.0000  0.0000  0.0000 </r>
       </set>
       <set comment="band 2">
        <r>  0.2050  0.0139  0.0104  0.0174  0.0000  0.0000  0.0000  0.0000  0.0000 </r>
        <r>  0.2051  0.0139  0.0104  0.0174  0.0000  0.0000  0.0000  0.0000  0.0000 </r>
       </set>
       <set comment="band 3">
        <r>  0.0000  0.0017  0.1034  0.0540  0.0000  0.0000  0.0000  0.0000  0.0000 </r>
        <r>  0.0000  0.0016  0.1034  0.0540  0.0000  0.0000  0.0000  0.0000  0.0000 </r>
       </set>
       <set comment="band 4">
        <r>  0.0000  0.1044  0.0102  0.0444  0.0000  0.0000  0.0000  0.0000  0.0000 </r>
        <r>  0.0000  0.1044  0.0102  0.0444  0.0000  0.0000  0.0000  0.0000  0.0000 </r>
       </set>
       <set comment="band 5">
        <r>  0.0000  0.0321  0.0409  0.0143  0.0000  0.0000  0.0000  0.0000  0.0000 </r>
        <r>  0.0000  0.0321  0.0409  0.0143  0.0000  0.0000  0.0000  0.0000  0.0000 </r>
       </set>
       <set comment="band 6">
        <r>  0.0000  0.0261  0.0464  0.0149  0.0000  0.0000  0.0000  0.0000  0.0000 </r>
        <r>  0.0000  0.0261  0.0463  0.0149  0.0000  0.0000  0.0000  0.0000  0.0000 </r>
       </set>
       <set comment="band 7">
        <r>  0.0619  0.0344  0.0258  0.0430  0.0000  0.0000  0.0000  0.0000  0.0000 </r>
        <r>  0.0619  0.0344  0.0258  0.0431  0.0000  0.0000  0.0000  0.0000  0.0000 </r>
       </set>
       <set comment="band 8">
        <r>  0.0619  0.0344  0.0258  0.0431  0.0000  0.0000  0.0000  0.0000  0.0000 </r>
        <r>  0.0619  0.0344  0.0258  0.0430  0.0000  0.0000  0.0000  0.0000  0.0000 </r>
       </set>
       <set comment="band 9">
        <r>  0.0000  0.0851  0.0073  0.0431  0.0000  0.0000  0.0000  0.0000  0.0000 </r>
        <r>  0.0000  0.0854  0.0074  0.0437  0.0000  0.0000  0.0000  0.0000  0.0000 </r>
       </set>
       <set comment="band 10">
        <r>  0.0000  0.0056  0.0799  0.0510  0.0000  0.0000  0.0000  0.0000  0.0000 </r>
        <r>  0.0000  0.0052  0.0798  0.0504  0.0000  0.0000  0.0000  0.0000  0.0000 </r>
       </set>
       <set comment="band 11">
        <r>  0.0260  0.0349  0.0262  0.0436  0.0000  0.0000  0.0000  0.0000  0.0000 </r>
        <r>  0.0251  0.0361  0.0271  0.0452  0.0000  0.0000  0.0000  0.0000  0.0000 </r>
       </set>
       <set comment="band 12">
        <r>  0.0251  0.0361  0.0271  0.0452  0.0000  0.0000  0.0000  0.0000  0.0000 </r>
        <r>  0.0260  0.0349  0.0262  0.0436  0.0000  0.0000  0.0000  0.0000  0.0000 </r>
       </set>
       <set comment="band 13">
        <r>  0.0000  0.0149  0.0033  0.0112  0.0000  0.0000  0.0000  0.0000  0.0000 </r>
        <r>  0.0000  0.0149  0.0033  0.0112  0.0000  0.0000  0.0000  0.0000  0.0000 </r>
       </set>
       <set comment="band 14">
        <r>  0.0000  0.0046  0.0126  0.0121  0.0000  0.0000  0.0000  0.0000  0.0000 </r>
        <r>  0.0000  0.0046  0.0126  0.0121  0.0000  0.0000  0.0000  0.0000  0.0000 </r>
       </set>
       <set comment="band 15">
        <r>  0.0296  0.0077  0.0057  0.0096  0.0000  0.0000  0.0000  0.0000  0.0000 </r>
        <r>  0.0296  0.0077  0.0057  0.0096  0.0000  0.0000  0.0000  0.0000  0.0000 </r>
       </set>
       <set comment="band 16">
        <r>  0.0296  0.0077  0.0057  0.0096  0.0000  0.0000  0.0000  0.0000  0.0000 </r>
        <r>  0.0296  0.0077  0.0057  0.0096  0.0000  0.0000  0.0000  0.0000  0.0000 </r>
       </set>
       <set comment="band 17">
        <r>  0.0000  0.0902  0.0077  0.0422  0.0000  0.0000  0.0000  0.0000  0.0000 </r>
        <r>  0.0000  0.0902  0.0077  0.0422  0.0000  0.0000  0.0000  0.0000  0.0000 </r>
       </set>
       <set comment="band 18">
        <r>  0.0000  0.0032  0.0865  0.0503  0.0000  0.0000  0.0000  0.0000  0.0000 </r>
        <r>  0.0000  0.0032  0.0865  0.0503  0.0000  0.0000  0.0000  0.0000  0.0000 </r>
       </set>
       <set comment="band 19">
        <r>  0.0248  0.0070  0.0052  0.0087  0.0000  0.0000  0.0000  0.0000  0.0000 </r>
        <r>  0.0235  0.0074  0.0055  0.0092  0.0000  0.0000  0.0000  0.0000  0.0000 </r>
       </set>
       <set comment="band 20">
        <r>  0.0235  0.0074  0.0055  0.0092  0.0000  0.0000  0.0000  0.0000  0.0000 </r>
        <r>  0.0248  0.0070  0.0052  0.0087  0.0000  0.0000  0.0000  0.0000  0.0000 </r>
       </set>
       <set comment="band 21">
        <r>  0.0000  0.0292  0.0183  0.0049  0.0000  0.0000  0.0000  0.0000  0.0000 </r>
        <r>  0.0000  0.0379  0.0321  0.0085  0.0000  0.0000  0.0000  0.0000  0.0000 </r>
       </set>
       <set comment="band 22">
        <r>  0.0000  0.0144  0.0442  0.0199  0.0000  0.0000  0.0000  0.0000  0.0000 </r>
        <r>  0.0000  0.0057  0.0303  0.0163  0.0000  0.0000  0.0000  0.0000  0.0000 </r>
       </set>
       <set comment="band 23">
        <r>  0.0002  0.0015  0.0079  0.0058  0.0000  0.0000  0.0000  0.0000  0.0000 </r>
        <r>  0.0001  0.0007  0.0060  0.0060  0.0000  0.0000  0.0000  0.0000  0.0000 </r>
       </set>
       <set comment="band 24">
        <r>  0.0000  0.0133  0.0047  0.0014  0.0000  0.0000  0.0000  0.0000  0.0000 </r>
        <r>  0.0000  0.0132  0.0086  0.0014  0.0000  0.0000  0.0000  0.0000  0.0000 </r>
       </set>
      </set>
     </set>
    </set>
   </array>
  </projected>
 </calculation>
 <structure name="finalpos" >
  <crystal>
   <varray name="basis" >
    <v>       3.33357300       0.00000000       1.92463900 </v>
    <v>       1.11119100       3.14292400       1.92463900 </v>
    <v>       0.00000000       0.00000000       3.84927800 </v>
   </varray>
   <i name="volume">     40.32952680 </i>
   <varray name="rec_basis" >
    <v>       0.29997843      -0.10605835       0.00000000 </v>
    <v>       0.00000000       0.31817505       0.00000000 </v>
    <v>      -0.14998922      -0.10605835       0.25978898 </v>
   </varray>
  </crystal>
  <varray name="positions" >
   <v>       0.87500000       0.87500000       0.87500000 </v>
   <v>       0.12500000       0.12500000       0.12500000 </v>
  </varray>
 </structure>
</modeling>
