 vasp.6.4.2 20Jul23 (build Mar 15 2024 16:31:38) complex                        
  
 executed on             LinuxIFC date 2025.03.26  18:42:55
 running  120 mpi-ranks, on    3 nodes
 distrk:  each k-point on  120 cores,    1 groups
 distr:  one band on NCORE=  10 cores,   12 groups


--------------------------------------------------------------------------------------------------------


 INCAR:
   ALGO = Normal
   EDIFF = 1e-05
   ENAUG = 1360
   ENCUT = 680
   GGA = Pe
   HFSCREEN = 0.2
   ISMEAR = 0
   ISPIN = 2
   LAECHG = True
   LASPH = True
   LCHARG = True
   LDAU = False
   LELF = False
   LHFCALC = True
   LMAXMIX = 4
   LMIXTAU = True
   LORBIT = 11
   LREAL = False
   LVTOT = True
   LWAVE = True
   MAGMOM = 8*0.6
   NCORE = 10
   NELM = 200
   NSW = 0
   PREC = Accurate
   PRECFOCK = Fast
   SIGMA = 0.01

 POTCAR:    PAW_PBE Zn 06Sep2000                  
 POTCAR:    PAW_PBE Cu 22Jun2005                  
 POTCAR:    PAW_PBE Sn_d 06Sep2000                
 POTCAR:    PAW_PBE S 06Sep2000                   
 WARNING: For LVTOT=.TRUE., VASP.5.x writes the TOTAL local potential to the
     file LOCPOT. If you want only the Hartree contributions, use LVHAR=.TRUE.
     instead. 

 POTCAR:    PAW_PBE Zn 06Sep2000                  
   VRHFIN =Zn: d10 p2                                                                               
   LEXCH  = PE                                                                                      
   EATOM  =  1748.8345 eV,  128.5357 Ry                                                             
                                                                                                    
   TITEL  = PAW_PBE Zn 06Sep2000                                                                    
   LULTRA =        F    use ultrasoft PP ?                                                          
   IUNSCR =        1    unscreen: 0-lin 1-nonlin 2-no                                               
   RPACOR =    2.000    partial core radius                                                         
   POMASS =   65.390; ZVAL   =   12.000    mass and valenz                                          
   RCORE  =    2.300    outmost cutoff radius                                                       
   RWIGS  =    2.400; RWIGS  =    1.270    wigner-seitz radius (au A)                               
   ENMAX  =  276.723; ENMIN  =  207.542 eV                                                          
   RCLOC  =    1.828    cutoff for local pot                                                        
   LCOR   =        T    correct aug charges                                                         
   LPAW   =        T    paw PP                                                                      
   EAUG   =  575.892                                                                                
   DEXC   =    0.000                                                                                
   RMAX   =    2.347    core radius for proj-oper                                                   
   RAUG   =    1.300    factor for augmentation sphere                                              
   RDEP   =    2.324    radius for radial grids                                                     
   RDEPT  =    1.788    core radius for aug-charge                                                  
                                                                                                    
   Atomic configuration                                                                             
    9 entries                                                                                       
     n  l   j            E        occ.                                                              
     1  0  0.50     -9524.6913   2.0000                                                             
     2  0  0.50     -1158.1882   2.0000                                                             
     2  1  1.50     -1003.8506   6.0000                                                             
     3  0  0.50      -129.2194   2.0000                                                             
     3  1  1.50       -83.3890   6.0000                                                             
     3  2  2.50       -10.1410  10.0000                                                             
     4  0  0.50        -5.9785   2.0000                                                             
     4  1  0.50        -4.0817   0.0000                                                             
     4  3  2.50        -1.3606   0.0000                                                             
   Description                                                                                      
     l       E           TYP  RCUT    TYP  RCUT                                                     
     2    -10.1410010     23  2.300                                                                 
     2    -11.5015836     23  2.300                                                                 
     0     -5.9785163     23  2.300                                                                 
     0      1.1858015     23  2.300                                                                 
     1     -2.7211652     23  2.300                                                                 
     1     13.2444212     23  2.300                                                                 
  local pseudopotential read in
  partial core-charges read in
  partial kinetic energy density read in
  atomic valenz-charges read in
  non local Contribution for L=           2  read in
    real space projection operators read in
  non local Contribution for L=           2  read in
    real space projection operators read in
  non local Contribution for L=           0  read in
    real space projection operators read in
  non local Contribution for L=           0  read in
    real space projection operators read in
  non local Contribution for L=           1  read in
    real space projection operators read in
  non local Contribution for L=           1  read in
    real space projection operators read in
    PAW grid and wavefunctions read in
 
   number of l-projection  operators is LMAX  =           6
   number of lm-projection operators is LMMAX =          18
 
 POTCAR:    PAW_PBE Cu 22Jun2005                  
   VRHFIN =Cu: d10 p1                                                                               
   LEXCH  = PE                                                                                      
   EATOM  =  1390.9808 eV,  102.2342 Ry                                                             
                                                                                                    
   TITEL  = PAW_PBE Cu 22Jun2005                                                                    
   LULTRA =        F    use ultrasoft PP ?                                                          
   IUNSCR =        1    unscreen: 0-lin 1-nonlin 2-no                                               
   RPACOR =    2.000    partial core radius                                                         
   POMASS =   63.546; ZVAL   =   11.000    mass and valenz                                          
   RCORE  =    2.300    outmost cutoff radius                                                       
   RWIGS  =    2.200; RWIGS  =    1.164    wigner-seitz radius (au A)                               
   ENMAX  =  295.446; ENMIN  =  221.585 eV                                                          
   ICORE  =        3    local potential                                                             
   LCOR   =        T    correct aug charges                                                         
   LPAW   =        T    paw PP                                                                      
   EAUG   =  586.980                                                                                
   DEXC   =    0.000                                                                                
   RMAX   =    2.344    core radius for proj-oper                                                   
   RAUG   =    1.300    factor for augmentation sphere                                              
   RDEP   =    2.302    radius for radial grids                                                     
   RDEPT  =    1.771    core radius for aug-charge                                                  
                                                                                                    
   Atomic configuration                                                                             
    9 entries                                                                                       
     n  l   j            E        occ.                                                              
     1  0  0.50     -8850.2468   2.0000                                                             
     2  0  0.50     -1062.3498   2.0000                                                             
     2  1  1.50      -916.8226   6.0000                                                             
     3  0  0.50      -114.6929   2.0000                                                             
     3  1  1.50       -72.1325   6.0000                                                             
     3  2  2.50        -5.0394  10.0000                                                             
     4  0  0.50        -4.6097   1.0000                                                             
     4  1  0.50        -4.0817   0.0000                                                             
     4  3  2.50        -1.3606   0.0000                                                             
   Description                                                                                      
     l       E           TYP  RCUT    TYP  RCUT                                                     
     2     -5.0393973     23  2.200                                                                 
     2     10.8846608     23  2.200                                                                 
     0     -4.6097109     23  2.200                                                                 
     0      8.2520465     23  2.200                                                                 
     1     -2.7211652     23  2.200                                                                 
     1     21.7055443     23  2.200                                                                 
     3      2.7211652     23  2.300                                                                 
  local pseudopotential read in
  partial core-charges read in
  partial kinetic energy density read in
  atomic valenz-charges read in
  non local Contribution for L=           2  read in
    real space projection operators read in
  non local Contribution for L=           2  read in
    real space projection operators read in
  non local Contribution for L=           0  read in
    real space projection operators read in
  non local Contribution for L=           0  read in
    real space projection operators read in
  non local Contribution for L=           1  read in
    real space projection operators read in
  non local Contribution for L=           1  read in
    real space projection operators read in
    PAW grid and wavefunctions read in
 
   number of l-projection  operators is LMAX  =           6
   number of lm-projection operators is LMMAX =          18
 
 POTCAR:    PAW_PBE Sn_d 06Sep2000                
   VRHFIN =Sn: s2p2                                                                                 
   LEXCH  = PE                                                                                      
   EATOM  =  1893.1092 eV,  139.1396 Ry                                                             
                                                                                                    
   TITEL  = PAW_PBE Sn_d 06Sep2000                                                                  
   LULTRA =        F    use ultrasoft PP ?                                                          
   IUNSCR =        1    unscreen: 0-lin 1-nonlin 2-no                                               
   RPACOR =    2.300    partial core radius                                                         
   POMASS =  118.710; ZVAL   =   14.000    mass and valenz                                          
   RCORE  =    2.500    outmost cutoff radius                                                       
   RWIGS  =    2.960; RWIGS  =    1.566    wigner-seitz radius (au A)                               
   ENMAX  =  241.083; ENMIN  =  180.812 eV                                                          
   ICORE  =        3    local potential                                                             
   LCOR   =        T    correct aug charges                                                         
   LPAW   =        T    paw PP                                                                      
   EAUG   =  439.825                                                                                
   DEXC   =    0.000                                                                                
   RMAX   =    2.560    core radius for proj-oper                                                   
   RAUG   =    1.300    factor for augmentation sphere                                              
   RDEP   =    2.659    radius for radial grids                                                     
   RDEPT  =    2.046    core radius for aug-charge                                                  
                                                                                                    
   Atomic configuration                                                                             
   12 entries                                                                                       
     n  l   j            E        occ.                                                              
     1  0  0.50    -29007.2859   2.0000                                                             
     2  0  0.50     -4378.8056   2.0000                                                             
     2  1  1.50     -3930.4293   6.0000                                                             
     3  0  0.50      -845.0264   2.0000                                                             
     3  1  1.50      -698.5725   6.0000                                                             
     3  2  2.50      -473.2839  10.0000                                                             
     4  0  0.50      -133.9036   2.0000                                                             
     4  1  1.50       -89.6752   6.0000                                                             
     4  2  2.50       -25.8375  10.0000                                                             
     5  0  0.50       -10.5484   2.0000                                                             
     5  1  0.50        -3.6940   2.0000                                                             
     4  3  2.50        -2.7416   0.0000                                                             
   Description                                                                                      
     l       E           TYP  RCUT    TYP  RCUT                                                     
     2    -25.8374624     23  2.500                                                                 
     2     -5.4423304     23  2.500                                                                 
     0    -10.5483727     23  2.500                                                                 
     0     13.6058260     23  2.500                                                                 
     1     -3.6939829     23  2.500                                                                 
     1      1.9821976     23  2.500                                                                 
     3     -1.3605826      7  2.500                                                                 
  local pseudopotential read in
  partial core-charges read in
  partial kinetic energy density read in
  atomic valenz-charges read in
  non local Contribution for L=           2  read in
    real space projection operators read in
  non local Contribution for L=           2  read in
    real space projection operators read in
  non local Contribution for L=           0  read in
    real space projection operators read in
  non local Contribution for L=           0  read in
    real space projection operators read in
  non local Contribution for L=           1  read in
    real space projection operators read in
  non local Contribution for L=           1  read in
    real space projection operators read in
    PAW grid and wavefunctions read in
 
   number of l-projection  operators is LMAX  =           6
   number of lm-projection operators is LMMAX =          18
 
 POTCAR:    PAW_PBE S 06Sep2000                   
   VRHFIN =S : s2p4                                                                                 
   LEXCH  = PE                                                                                      
   EATOM  =   276.8230 eV,   20.3459 Ry                                                             
                                                                                                    
   TITEL  = PAW_PBE S 06Sep2000                                                                     
   LULTRA =        F    use ultrasoft PP ?                                                          
   IUNSCR =        1    unscreen: 0-lin 1-nonlin 2-no                                               
   RPACOR =    1.500    partial core radius                                                         
   POMASS =   32.066; ZVAL   =    6.000    mass and valenz                                          
   RCORE  =    1.900    outmost cutoff radius                                                       
   RWIGS  =    2.200; RWIGS  =    1.164    wigner-seitz radius (au A)                               
   ENMAX  =  258.689; ENMIN  =  194.016 eV                                                          
   ICORE  =        2    local potential                                                             
   LCOR   =        T    correct aug charges                                                         
   LPAW   =        T    paw PP                                                                      
   EAUG   =  335.092                                                                                
   DEXC   =    0.000                                                                                
   RMAX   =    1.942    core radius for proj-oper                                                   
   RAUG   =    1.300    factor for augmentation sphere                                              
   RDEP   =    1.954    radius for radial grids                                                     
   RDEPT  =    1.744    core radius for aug-charge                                                  
                                                                                                    
   Atomic configuration                                                                             
    6 entries                                                                                       
     n  l   j            E        occ.                                                              
     1  0  0.50     -2405.8406   2.0000                                                             
     2  0  0.50      -211.7007   2.0000                                                             
     2  1  1.50      -156.4958   6.0000                                                             
     3  0  0.50       -17.2562   2.0000                                                             
     3  1  0.50        -7.0085   4.0000                                                             
     3  2  1.50        -6.8029   0.0000                                                             
   Description                                                                                      
     l       E           TYP  RCUT    TYP  RCUT                                                     
     0    -17.2561641     23  1.900                                                                 
     0    -15.8743224     23  1.900                                                                 
     1     -7.0085400     23  1.900                                                                 
     1     -2.7779785     23  1.900                                                                 
     2     -6.8029130     23  1.900                                                                 
  local pseudopotential read in
  partial core-charges read in
  partial kinetic energy density read in
  atomic valenz-charges read in
  non local Contribution for L=           0  read in
    real space projection operators read in
  non local Contribution for L=           0  read in
    real space projection operators read in
  non local Contribution for L=           1  read in
    real space projection operators read in
  non local Contribution for L=           1  read in
    real space projection operators read in
    PAW grid and wavefunctions read in
 
   number of l-projection  operators is LMAX  =           4
   number of lm-projection operators is LMMAX =           8
 
  PAW_PBE Zn 06Sep2000                  :
 energy of atom  1       EATOM=-1748.8345
 kinetic energy error for atom=    0.0008 (will be added to EATOM!!)
  PAW_PBE Cu 22Jun2005                  :
 energy of atom  2       EATOM=-1390.9808
 kinetic energy error for atom=    0.0018 (will be added to EATOM!!)
  PAW_PBE Sn_d 06Sep2000                :
 energy of atom  3       EATOM=-1893.1092
 kinetic energy error for atom=    0.0008 (will be added to EATOM!!)
  PAW_PBE S 06Sep2000                   :
 energy of atom  4       EATOM= -276.8230
 kinetic energy error for atom=    0.0008 (will be added to EATOM!!)
 
 
 POSCAR: Zn1 Cu2 Sn1 S4
  positions in direct lattice
  No initial velocities read in
 exchange correlation table for  LEXCH =        8
   RHO(1)=    0.500       N(1)  =     2000
   RHO(2)=  100.500       N(2)  =     4000
 


--------------------------------------------------------------------------------------------------------


 ion  position               nearest neighbor table
   1  0.750  0.250  0.500-   6 2.34   8 2.34   7 2.34   5 2.34
   2  0.000  0.000  0.000-   7 2.30   5 2.30   8 2.30   6 2.30
   3  0.250  0.750  0.500-   6 2.30   5 2.30   8 2.30   7 2.30
   4  0.500  0.500  0.000-   5 2.44   6 2.44   8 2.44   7 2.44
   5  0.364  0.371  0.478-   3 2.30   2 2.30   1 2.34   4 2.44
   6  0.894  0.887  0.522-   3 2.30   2 2.30   1 2.34   4 2.44
   7  0.113  0.636  0.007-   3 2.30   2 2.30   1 2.34   4 2.44
   8  0.629  0.106  0.993-   3 2.30   2 2.30   1 2.34   4 2.44
 
  LATTYP: Found a body centered tetragonal cell.
 ALAT       =     5.4102945305
 C/A-ratio  =     2.0003379298
  
  Lattice vectors:
  
 A1 = (   4.9390118450,   0.0000000000,  -4.4184821860)
 A2 = (  -0.9875353717,   4.8392780344,  -4.4184821860)
 A3 = (   0.0000000000,   0.0000000000,   6.6269769000)


Analysis of symmetry for initial positions (statically):
=====================================================================
 Subroutine PRICEL returns:
 Original cell was already a primitive cell.
 

 Routine SETGRP: Setting up the symmetry group for a 
 body centered tetragonal supercell.


 Subroutine GETGRP returns: Found  4 space group operations
 (whereof  4 operations were pure point group operations)
 out of a pool of 16 trial point group operations.


The static configuration has the point symmetry S_4 .


Analysis of symmetry for dynamics (positions and initial velocities):
=====================================================================
 Subroutine PRICEL returns:
 Original cell was already a primitive cell.
 

 Routine SETGRP: Setting up the symmetry group for a 
 body centered tetragonal supercell.


 Subroutine GETGRP returns: Found  4 space group operations
 (whereof  4 operations were pure point group operations)
 out of a pool of 16 trial point group operations.


The dynamic configuration has the point symmetry S_4 .


Analysis of structural, dynamic, and magnetic symmetry:
=====================================================================
 Subroutine PRICEL returns:
 Original cell was already a primitive cell.
 

 Routine SETGRP: Setting up the symmetry group for a 
 body centered tetragonal supercell.


 Subroutine GETGRP returns: Found  4 space group operations
 (whereof  4 operations were pure point group operations)
 out of a pool of 16 trial point group operations.


The overall configuration has the point symmetry S_4 .


 Subroutine INISYM returns: Found  4 space group operations
 (whereof  4 operations are pure point group operations),
 and found     1 'primitive' translations


----------------------------------------------------------------------------------------

                                     Primitive cell                                     

  volume of cell :     158.3930

  direct lattice vectors                    reciprocal lattice vectors
     4.939011845  0.000000000 -4.418482186     0.202469650  0.041317308  0.000000000
    -0.987535372  4.839278034 -4.418482186     0.000000000  0.206642394  0.000000000
     0.000000000  0.000000000  6.626976900     0.134994969  0.165325086  0.150898368

  length of vectors
     6.626976900  6.626976900  6.626976900     0.206642394  0.206642394  0.261393082

  position of ions in fractional coordinates (direct lattice)
     0.750000000  0.250000000  0.500000000
     0.000000000  0.000000000  0.000000000
     0.250000000  0.750000000  0.500000000
     0.500000000  0.500000000  0.000000000
     0.364327140  0.371240320  0.477580560
     0.893659770  0.886747590  0.522419440
     0.113252410  0.635672860  0.006912180
     0.628759680  0.106340230  0.993087820

  ion indices of the primitive-cell ions
   primitive index   ion index
                 1           1
                 2           2
                 3           3
                 4           4
                 5           5
                 6           6
                 7           7
                 8           8

----------------------------------------------------------------------------------------

 
 
 KPOINTS: k-points for static calculation specifie

Read explicit list of k-points.

 Found      1 k-points:

 Following reciprocal coordinates:
            Coordinates               Weight
  0.000000  0.000000  0.000000      1.000000

 Following cartesian coordinates:
            Coordinates               Weight
  0.000000  0.000000  0.000000      1.000000
 
 
 Subroutine IBZKPT_HF returns following result:
 ==============================================
 
 Found      1 k-points in 1st BZ
 the following      1 k-points will be used (e.g. in the exchange kernel)
 Following reciprocal coordinates:   # in IRBZ
  0.000000  0.000000  0.000000    1.00000000   1 t-inv F


--------------------------------------------------------------------------------------------------------




 Dimension of arrays:
   k-points           NKPTS =      1   k-points in BZ     NKDIM =      1   number of bands    NBANDS=     48
   number of dos      NEDOS =    301   number of ions     NIONS =      8
   non local maximal  LDIM  =      6   non local SUM 2l+1 LMDIM =     18
   total plane-waves  NPLWV = 175616
   max r-space proj   IRMAX =      1   max aug-charges    IRDMAX=  49708
   dimension x,y,z NGX =    56 NGY =   56 NGZ =   56
   dimension x,y,z NGXF=   112 NGYF=  112 NGZF=  112
   support grid    NGXF=   112 NGYF=  112 NGZF=  112
   ions per type =               1   2   1   4
   NGX,Y,Z   is equivalent  to a cutoff of  14.05, 14.05, 14.05 a.u.
   NGXF,Y,Z  is equivalent  to a cutoff of  28.10, 28.10, 28.10 a.u.

 SYSTEM =  unknown system                          
 POSCAR =  Zn1 Cu2 Sn1 S4                          

 Startparameter for this run:
   NWRITE =      2    write-flag & timer
   PREC   = accura    normal or accurate (medium, high low for compatibility)
   ISTART =      0    job   : 0-new  1-cont  2-samecut
   ICHARG =      2    charge: 1-file 2-atom 10-const
   ISPIN  =      2    spin polarized calculation?
   LNONCOLLINEAR =      F non collinear calculations
   LSORBIT =      F    spin-orbit coupling
   INIWAV =      1    electr: 0-lowe 1-rand  2-diag
   LASPH  =      T    aspherical Exc in radial PAW
 Electronic Relaxation 1
   ENCUT  =  680.0 eV  49.98 Ry    7.07 a.u.  14.09 14.09 14.09*2*pi/ulx,y,z
   ENINI  =  680.0     initial cutoff
   ENAUG  = 1360.0 eV  augmentation charge cutoff
   NELM   =    200;   NELMIN=  2; NELMDL= -5     # of ELM steps 
   EDIFF  = 0.1E-04   stopping-criterion for ELM
   LREAL  =      F    real-space projection
   NLSPLINE    = F    spline interpolate recip. space projectors
   LCOMPAT=      F    compatible to vasp.4.4
   GGA_COMPAT  = T    GGA compatible to vasp.4.4-vasp.4.6
   LMAXPAW     = -100 max onsite density
   LMAXMIX     =    4 max onsite mixed and CHGCAR
   VOSKOWN=      0    Vosko Wilk Nusair interpolation
   ROPT   =    0.00000   0.00000   0.00000   0.00000
 Ionic relaxation
   EDIFFG = 0.1E-03   stopping-criterion for IOM
   NSW    =      0    number of steps for IOM
   NBLOCK =      1;   KBLOCK =      1    inner block; outer block 
   IBRION =     -1    ionic relax: 0-MD 1-quasi-New 2-CG
   NFREE  =      0    steps in history (QN), initial steepest desc. (CG)
   ISIF   =      0    stress and relaxation
   IWAVPR =     10    prediction:  0-non 1-charg 2-wave 3-comb
   ISYM   =      3    0-nonsym 1-usesym 2-fastsym
   LCORR  =      T    Harris-Foulkes like correction to forces

   POTIM  = 0.5000    time-step for ionic-motion
   TEIN   =    0.0    initial temperature
   TEBEG  =    0.0;   TEEND  =   0.0 temperature during run
   SMASS  =  -3.00    Nose mass-parameter (am)
   estimated Nose-frequenzy (Omega)   =  0.10E-29 period in steps = 0.13E+47 mass=  -0.100E-26a.u.
   SCALEE = 1.0000    scale energy and forces
   NPACO  =    256;   APACO  = 10.0  distance and # of slots for P.C.
   PSTRESS=    0.0 pullay stress

  Mass of Ions in am
   POMASS =  65.39 63.55118.71 32.07
  Ionic Valenz
   ZVAL   =  12.00 11.00 14.00  6.00
  Atomic Wigner-Seitz radii
   RWIGS  =  -1.00 -1.00 -1.00 -1.00
  virtual crystal weights 
   VCA    =   1.00  1.00  1.00  1.00
   NELECT =      72.0000    total number of electrons
   NUPDOWN=      -1.0000    fix difference up-down

 DOS related values:
   EMIN   =  10.00;   EMAX   =-10.00  energy-range for DOS
   EFERMI =   0.00;   METHOD = LEGACY      
   ISMEAR =     0;   SIGMA  =   0.01  broadening in eV -4-tet -1-fermi 0-gaus

 Electronic relaxation 2 (details)
   IALGO  =     38    algorithm
   LDIAG  =      T    sub-space diagonalisation (order eigenvalues)
   LSUBROT=      F    optimize rotation matrix (better conditioning)
   TURBO    =      0    0=normal 1=particle mesh
   IRESTART =      0    0=no restart 2=restart with 2 vectors
   NREBOOT  =      0    no. of reboots
   NMIN     =      0    reboot dimension
   EREF     =   0.00    reference energy to select bands
   IMIX   =      1    mixing-type and parameters
     AMIX     =   0.40;   BMIX     =  1.00
     AMIX_MAG =   1.60;   BMIX_MAG =  1.00
     AMIN     =   0.10
     WC   =   100.;   INIMIX=   1;  MIXPRE=   1;  MAXMIX= -45

 Intra band minimization:
   WEIMIN = 0.0000     energy-eigenvalue tresh-hold
   EBREAK =  0.52E-07  absolut break condition
   DEPER  =   0.30     relativ break condition  

   TIME   =   0.40     timestep for ELM

  volume/ion in A,a.u.               =      19.80       133.61
  Fermi-wavevector in a.u.,A,eV,Ry     =   1.258752  2.378697 21.557853  1.584457
  Thomas-Fermi vector in A             =   2.392346
 
 Write flags
   LWAVE        =      T    write WAVECAR
   LDOWNSAMPLE  =      F    k-point downsampling of WAVECAR
   LCHARG       =      T    write CHGCAR
   LVTOT        =      T    write LOCPOT, total local potential
   LVHAR        =      F    write LOCPOT, Hartree potential only
   LELF         =      F    write electronic localiz. function (ELF)
   LORBIT       =     11    0 simple, 1 ext, 2 COOP (PROOUT), +10 PAW based schemes


 Dipole corrections
   LMONO  =      F    monopole corrections only (constant potential shift)
   LDIPOL =      F    correct potential (dipole corrections)
   IDIPOL =      0    1-x, 2-y, 3-z, 4-all directions 
   EPSILON=  1.0000000 bulk dielectric constant

 Exchange correlation treatment:
   GGA     =    PE    GGA type
   LEXCH   =     8    internal setting for exchange type
   LIBXC   =     F    Libxc                    
   VOSKOWN =     0    Vosko Wilk Nusair interpolation
   EXXOEP  =     0    0=HF, 1=EXX-LHF (local Hartree Fock) 2=EXX OEP
   LHFCALC =     T    Hartree Fock is set to
   LSYMGRAD=     F    symmetrize gradient (conserves proper symmetry)
   PRECFOCK=fast      Normal, Fast or Accurate (Low or Medium for compatibility)
   LRHFCALC=     F    long range Hartree Fock
   LRSCOR  =     F    long range correlation only (use DFT for short range part)
   LTHOMAS =     F    Thomas Fermi screening in HF
   LMODELHF=     F    short range full HF, long range fraction AEXX
   FOCKCORR=     1    mode to apply convergence corrections
   LFOCKACE=     T    use Adeptively-Compressed-Exchange operator
   ENCUT4O =  -1.0   cutoff for four orbital integrals eV
   LMAXFOCK=     4    L truncation for augmentation on plane wave grid
   LMAXFOCKAE=  -1    L truncation for all-electron charge restoration on plane wave grid
   NMAXFOCKAE=   1    number of basis functions for all-electron charge restoration
   LFOCKAEDFT=     F  apply the AE augmentation even for DFT
   NKREDX  =     1    reduce k-point grid by
   NKREDY  =     1    reduce k-point grid by
   NKREDZ  =     1    reduce k-point grid by
   SHIFTRED=     F    shift reduced grid of Gamma
   HFKIDENT=     F    idential grid for each k-point
   ODDONLY =     F    use only odd q-grid points
   EVENONLY=     F    use only even q-grid points
   HFALPHA =   -1.0000 decay constant for conv. correction
   MCALPHA =    0.0000 extent of test-charge in conv. correction in multipole expansion
   AEXX    =    0.2500 exact exchange contribution
   HFSCREEN=    0.2000 screening length (either q_TF or 0.3 A-1)
   HFSCREENC=   0.2000 screening length for correlation (either q_TF or 0.3 A-1)
   HFRCUT  =    0.0000 spherical cutoff for potential kernel
   ALDAX   =    0.7500 LDA exchange part
   AGGAX   =    0.7500 GGA exchange part
   ALDAC   =    1.0000 LDA correlation
   AGGAC   =    1.0000 GGA correlation
   ENCUTFOCK=  -1.0 apply spherical cutoff to Coloumb kernel
   NBANDSGWLOW=     1    first orbital included in HF term
   NBLOCK_FOCK=    64    blocking factor in FOCK_ACC

 Linear response parameters
   LEPSILON=     F    determine dielectric tensor
   LRPA    =     F    only Hartree local field effects (RPA)
   LNABLA  =     F    use nabla operator in PAW spheres
   LVEL    =     F    velocity operator in full k-point grid
   CSHIFT  =0.1000    complex shift for real part using Kramers Kronig
   OMEGAMAX=  -1.0    maximum frequency
   DEG_THRESHOLD= 0.2000000E-02 threshold for treating states as degnerate
   RTIME   =   -0.100 relaxation time in fs
  (WPLASMAI=    0.000 imaginary part of plasma frequency in eV, 0.658/RTIME)
   DFIELD  = 0.0000000 0.0000000 0.0000000 field for delta impulse in time
 
  Optional k-point grid parameters
   LKPOINTS_OPT  =     F    use optional k-point grid
   KPOINTS_OPT_MODE=     1    mode for optional k-point grid
 
 Orbital magnetization related:
   ORBITALMAG=     F  switch on orbital magnetization
   LCHIMAG   =     F  perturbation theory with respect to B field
   DQ        =  0.001000  dq finite difference perturbation B field
   LLRAUG    =     F  two centre corrections for induced B field
   LBONE     =     F  B-component reconstruction in AE one-centre
   LVGVCALC  =     T  calculate vGv susceptibility
   LVGVAPPL  =     F  apply vGv susceptibility instead of pGv for G=0

 Random number generation:
   RANDOM_GENERATOR = DEFAULT
   PCG_SEED         = not used


--------------------------------------------------------------------------------------------------------


 Static calculation
 charge density and potential will be updated during run
 spin polarized calculation
 Variant of blocked Davidson
 Davidson routine will perform the subspace rotation
 perform sub-space diagonalisation
    after iterative eigenvector-optimisation
 Kerker-like  mixing scheme
 using additional bands           12
 reciprocal scheme for non local part
 use partial core corrections
 calculate Harris-corrections to forces 
   (improved forces if not selfconsistent)
 use gradient corrections 
 use of overlap-Matrix (Vanderbilt PP)
 Gauss-broadening in eV      SIGMA  =   0.01


--------------------------------------------------------------------------------------------------------


  energy-cutoff  :      680.00
  volume of cell :      158.39
      direct lattice vectors                 reciprocal lattice vectors
     4.939011845  0.000000000 -4.418482186     0.202469650  0.041317308  0.000000000
    -0.987535372  4.839278034 -4.418482186     0.000000000  0.206642394  0.000000000
     0.000000000  0.000000000  6.626976900     0.134994969  0.165325086  0.150898368

  length of vectors
     6.626976900  6.626976900  6.626976900     0.206642394  0.206642394  0.261393082


 
 k-points in units of 2pi/SCALE and weight: k-points for static calculation specifie
   0.00000000  0.00000000  0.00000000       1.000
 
 k-points in reciprocal lattice and weights: k-points for static calculation specifie
   0.00000000  0.00000000  0.00000000       1.000
 
 position of ions in fractional coordinates (direct lattice) 
   0.75000000  0.25000000  0.50000000
   0.00000000  0.00000000  0.00000000
   0.25000000  0.75000000  0.50000000
   0.50000000  0.50000000  0.00000000
   0.36432714  0.37124032  0.47758056
   0.89365977  0.88674759  0.52241944
   0.11325241  0.63567286  0.00691218
   0.62875968  0.10634023  0.99308782
 
 position of ions in cartesian coordinates  (Angst):
   3.45737504  1.20981951 -1.10499374
   0.00000000  0.00000000  0.00000000
   0.49410143  3.62945853 -1.10499374
   1.97573824  2.41963902 -4.41848219
   1.43280311  1.79653513 -0.08517638
   3.53810158  4.29121813 -4.40463664
  -0.06839444  3.07619771 -3.26330611
   3.00043677  0.51460994  3.33314419
 


--------------------------------------------------------------------------------------------------------


 k-point   1 :   0.0000 0.0000 0.0000  plane waves:    6435

 maximum and minimum number of plane-waves per node :       645      640

 maximum number of plane-waves:      6435
 maximum index in each direction: 
   IXMAX=   14   IYMAX=   14   IZMAX=   14
   IXMIN=  -14   IYMIN=  -14   IZMIN=  -14


 parallel 3D FFT for wavefunctions:
    minimum data exchange during FFTs selected (reduces bandwidth)
 parallel 3D FFT for charge:
    minimum data exchange during FFTs selected (reduces bandwidth)


 FFT grid for exact exchange (Hartree Fock) 
  NGX = 30; NGY = 30; NGZ = 30

 
 Radii for the augmentation spheres in the non-local exchange
 for species   1 augmentation radius   1.285 (default was   0.952)
       energy cutoff for augmentation   2720.0
 for species   2 augmentation radius   1.273 (default was   0.943)
       energy cutoff for augmentation   2720.0
 for species   3 augmentation radius   1.471 (default was   1.089)
       energy cutoff for augmentation   2720.0
 for species   4 augmentation radius   1.309 (default was   0.970)
       energy cutoff for augmentation   2720.0

 real space projection operators:
  total allocation   :       1758.81 KBytes
  max/ min on nodes  :        179.97        167.14

 Maximum index for augmentation-charges in exchange          270
  SETUP_FOCK is finished

 total amount of memory used by VASP MPI-rank0    35082. kBytes
=======================================================================

   base      :      30000. kBytes
   nonl-proj :        456. kBytes
   fftplans  :       1168. kBytes
   grid      :       2738. kBytes
   one-center:         31. kBytes
   HF        :         64. kBytes
   nonlr-proj:        539. kBytes
   wavefun   :         86. kBytes
 
     INWAV:  cpu time      0.0000: real time      0.0002
 initial charge density was supplied:
 charge density of overlapping atoms calculated
 number of electron      72.0000000 magnetization       4.8000000
 keeping initial charge density in first step


--------------------------------------------------------------------------------------------------------


 Maximum index for augmentation-charges         1075 (set IRDMAX)


--------------------------------------------------------------------------------------------------------


 First call to EWALD:  gamma=   0.328
 Maximum number of real-space cells 3x 3x 4
 Maximum number of reciprocal cells 3x 3x 3

    FEWALD:  cpu time      0.0018: real time      0.0019


--------------------------------------- Ionic step        1  -------------------------------------------




--------------------------------------- Iteration      1(   1)  ---------------------------------------


    POTLOK:  cpu time      0.0358: real time      0.0383
    SETDIJ:  cpu time      0.4012: real time      0.4026
     EDDAV:  cpu time      0.0938: real time      0.0996
       DOS:  cpu time      0.0037: real time      0.0041
    --------------------------------------------
      LOOP:  cpu time      0.5345: real time      0.5447

 eigenvalue-minimisations  :   192
 total energy-change (2. order) :-0.2193559E+04  (-0.3909355E+04)
 number of electron      72.0000000 magnetization       4.8000000
 augmentation part       72.0000000 magnetization       4.8000000

 Free energy of the ion-electron system (eV)
  ---------------------------------------------------
  alpha Z        PSCENC =       202.50320330
  Ewald energy   TEWEN  =     -5034.42253749
  -Hartree energ DENC   =     -2428.65725175
  -exchange      EXHF   =         0.00000000
  -V(xc)+E(xc)   XCENC  =       254.94177981
  PAW double counting   =      6350.20787093    -9469.52756924
  entropy T*S    EENTRO =        -0.00000000
  eigenvalues    EBANDS =       414.32544167
  atomic energy  EATOM  =      7517.07041424
  Solvation  Ediel_sol  =         0.00000000
  ---------------------------------------------------
  free energy    TOTEN  =     -2193.55864853 eV

  energy without entropy =    -2193.55864853  energy(sigma->0) =    -2193.55864853
  exchange ACFDT corr.  =         0.00000000  see jH, gK, PRB 81, 115126


--------------------------------------------------------------------------------------------------------




--------------------------------------- Iteration      1(   2)  ---------------------------------------


     EDDAV:  cpu time      0.0486: real time      0.0504
       DOS:  cpu time      0.0002: real time      0.0001
    --------------------------------------------
      LOOP:  cpu time      0.0487: real time      0.0505

 eigenvalue-minimisations  :   192
 total energy-change (2. order) :-0.6304741E+03  (-0.5984350E+03)
 number of electron      72.0000000 magnetization       4.8000000
 augmentation part       72.0000000 magnetization       4.8000000

 Free energy of the ion-electron system (eV)
  ---------------------------------------------------
  alpha Z        PSCENC =       202.50320330
  Ewald energy   TEWEN  =     -5034.42253749
  -Hartree energ DENC   =     -2428.65725175
  -exchange      EXHF   =         0.00000000
  -V(xc)+E(xc)   XCENC  =       254.94177981
  PAW double counting   =      6350.20787093    -9469.52756924
  entropy T*S    EENTRO =        -0.00000000
  eigenvalues    EBANDS =      -216.14863629
  atomic energy  EATOM  =      7517.07041424
  Solvation  Ediel_sol  =         0.00000000
  ---------------------------------------------------
  free energy    TOTEN  =     -2824.03272649 eV

  energy without entropy =    -2824.03272649  energy(sigma->0) =    -2824.03272649
  exchange ACFDT corr.  =         0.00000000  see jH, gK, PRB 81, 115126


--------------------------------------------------------------------------------------------------------




--------------------------------------- Iteration      1(   3)  ---------------------------------------


     EDDAV:  cpu time      0.0461: real time      0.0579
       DOS:  cpu time      0.0001: real time      0.0001
    --------------------------------------------
      LOOP:  cpu time      0.0463: real time      0.0581

 eigenvalue-minimisations  :   240
 total energy-change (2. order) :-0.1015426E+03  (-0.9809037E+02)
 number of electron      72.0000000 magnetization       4.8000000
 augmentation part       72.0000000 magnetization       4.8000000

 Free energy of the ion-electron system (eV)
  ---------------------------------------------------
  alpha Z        PSCENC =       202.50320330
  Ewald energy   TEWEN  =     -5034.42253749
  -Hartree energ DENC   =     -2428.65725175
  -exchange      EXHF   =         0.00000000
  -V(xc)+E(xc)   XCENC  =       254.94177981
  PAW double counting   =      6350.20787093    -9469.52756924
  entropy T*S    EENTRO =        -0.00000000
  eigenvalues    EBANDS =      -317.69124852
  atomic energy  EATOM  =      7517.07041424
  Solvation  Ediel_sol  =         0.00000000
  ---------------------------------------------------
  free energy    TOTEN  =     -2925.57533872 eV

  energy without entropy =    -2925.57533872  energy(sigma->0) =    -2925.57533872
  exchange ACFDT corr.  =         0.00000000  see jH, gK, PRB 81, 115126


--------------------------------------------------------------------------------------------------------




--------------------------------------- Iteration      1(   4)  ---------------------------------------


     EDDAV:  cpu time      0.0475: real time      0.0596
       DOS:  cpu time      0.0001: real time      0.0001
    --------------------------------------------
      LOOP:  cpu time      0.0476: real time      0.0597

 eigenvalue-minimisations  :   240
 total energy-change (2. order) :-0.5954894E+01  (-0.5919038E+01)
 number of electron      72.0000000 magnetization       4.8000000
 augmentation part       72.0000000 magnetization       4.8000000

 Free energy of the ion-electron system (eV)
  ---------------------------------------------------
  alpha Z        PSCENC =       202.50320330
  Ewald energy   TEWEN  =     -5034.42253749
  -Hartree energ DENC   =     -2428.65725175
  -exchange      EXHF   =         0.00000000
  -V(xc)+E(xc)   XCENC  =       254.94177981
  PAW double counting   =      6350.20787093    -9469.52756924
  entropy T*S    EENTRO =        -0.00000000
  eigenvalues    EBANDS =      -323.64614270
  atomic energy  EATOM  =      7517.07041424
  Solvation  Ediel_sol  =         0.00000000
  ---------------------------------------------------
  free energy    TOTEN  =     -2931.53023290 eV

  energy without entropy =    -2931.53023290  energy(sigma->0) =    -2931.53023290
  exchange ACFDT corr.  =         0.00000000  see jH, gK, PRB 81, 115126


--------------------------------------------------------------------------------------------------------




--------------------------------------- Iteration      1(   5)  ---------------------------------------


    POTLOK:  cpu time      0.0418: real time      0.0558
    SETDIJ:  cpu time      0.9242: real time      0.9265
     EDDAV:  cpu time      0.2049: real time      0.2061
       DOS:  cpu time      0.0001: real time      0.0001
    CHARGE:  cpu time      0.0147: real time      0.0151
    MIXING:  cpu time      0.0005: real time      0.0005
    --------------------------------------------
      LOOP:  cpu time      1.1861: real time      1.2041

 eigenvalue-minimisations  :   216
 total energy-change (2. order) : 0.2891671E+04  (-0.2740892E+01)
 number of electron      71.9999997 magnetization      -2.8800000
 augmentation part       26.6716618 magnetization      -2.7838920

 Free energy of the ion-electron system (eV)
  ---------------------------------------------------
  alpha Z        PSCENC =       202.50320330
  Ewald energy   TEWEN  =     -5034.42253749
  -Hartree energ DENC   =     -2428.65725175
  -exchange      EXHF   =       179.36128449
  -V(xc)+E(xc)   XCENC  =       193.32848367
  PAW double counting   =      6409.01461450    -6784.85653259
  entropy T*S    EENTRO =        -0.00000000
  eigenvalues    EBANDS =      -293.20087553
  atomic energy  EATOM  =      7517.07041424
  Solvation  Ediel_sol  =         0.00000000
  ---------------------------------------------------
  free energy    TOTEN  =       -39.85919716 eV

  energy without entropy =      -39.85919716  energy(sigma->0) =      -39.85919716
  exchange ACFDT corr.  =         0.00000000  see jH, gK, PRB 81, 115126


--------------------------------------------------------------------------------------------------------




--------------------------------------- Iteration      1(   6)  ---------------------------------------


    POTLOK:  cpu time      0.0406: real time      0.0518
    SETDIJ:  cpu time      0.9195: real time      0.9218
     EDDAV:  cpu time      0.1347: real time      0.1350
       DOS:  cpu time      0.0001: real time      0.0001
    CHARGE:  cpu time      0.0091: real time      0.0091
    MIXING:  cpu time      0.0002: real time      0.0002
    --------------------------------------------
      LOOP:  cpu time      1.1042: real time      1.1181

 eigenvalue-minimisations  :   288
 total energy-change (2. order) : 0.1098809E+01  (-0.3857510E+00)
 number of electron      71.9999995 magnetization       1.7280000
 augmentation part       26.6182154 magnetization       1.7424453

 Free energy of the ion-electron system (eV)
  ---------------------------------------------------
  alpha Z        PSCENC =       202.50320330
  Ewald energy   TEWEN  =     -5034.42253749
  -Hartree energ DENC   =     -2423.18656197
  -exchange      EXHF   =       174.91524394
  -V(xc)+E(xc)   XCENC  =       193.72541811
  PAW double counting   =      7169.95792202    -7547.35522996
  entropy T*S    EENTRO =        -0.00000000
  eigenvalues    EBANDS =      -291.96826036
  atomic energy  EATOM  =      7517.07041424
  Solvation  Ediel_sol  =         0.00000000
  ---------------------------------------------------
  free energy    TOTEN  =       -38.76038817 eV

  energy without entropy =      -38.76038817  energy(sigma->0) =      -38.76038817
  exchange ACFDT corr.  =         0.00000000  see jH, gK, PRB 81, 115126


--------------------------------------------------------------------------------------------------------




--------------------------------------- Iteration      1(   7)  ---------------------------------------


    POTLOK:  cpu time      0.0416: real time      0.0542
    SETDIJ:  cpu time      0.9247: real time      0.9270
     EDDAV:  cpu time      0.1381: real time      0.1384
       DOS:  cpu time      0.0001: real time      0.0001
    CHARGE:  cpu time      0.0090: real time      0.0090
    MIXING:  cpu time      0.0002: real time      0.0002
    --------------------------------------------
      LOOP:  cpu time      1.1137: real time      1.1289

 eigenvalue-minimisations  :   300
 total energy-change (2. order) :-0.7625035E-02  (-0.1811448E+00)
 number of electron      71.9999993 magnetization      -1.0368000
 augmentation part       26.8395169 magnetization      -1.0235162

 Free energy of the ion-electron system (eV)
  ---------------------------------------------------
  alpha Z        PSCENC =       202.50320330
  Ewald energy   TEWEN  =     -5034.42253749
  -Hartree energ DENC   =     -2413.17981771
  -exchange      EXHF   =       173.47158105
  -V(xc)+E(xc)   XCENC  =       193.65117702
  PAW double counting   =      7889.93066363    -8267.86145467
  entropy T*S    EENTRO =        -0.00000000
  eigenvalues    EBANDS =      -299.93124258
  atomic energy  EATOM  =      7517.07041424
  Solvation  Ediel_sol  =         0.00000000
  ---------------------------------------------------
  free energy    TOTEN  =       -38.76801320 eV

  energy without entropy =      -38.76801320  energy(sigma->0) =      -38.76801320
  exchange ACFDT corr.  =         0.00000000  see jH, gK, PRB 81, 115126


--------------------------------------------------------------------------------------------------------




--------------------------------------- Iteration      1(   8)  ---------------------------------------


    POTLOK:  cpu time      0.0458: real time      0.0646
    SETDIJ:  cpu time      0.9232: real time      0.9255
     EDDAV:  cpu time      0.1319: real time      0.1322
       DOS:  cpu time      0.0002: real time      0.0002
    CHARGE:  cpu time      0.0092: real time      0.0092
    MIXING:  cpu time      0.0002: real time      0.0002
    --------------------------------------------
      LOOP:  cpu time      1.1104: real time      1.1319

 eigenvalue-minimisations  :   264
 total energy-change (2. order) :-0.7902128E-01  (-0.4157065E-01)
 number of electron      71.9999993 magnetization       0.6220800
 augmentation part       26.7845284 magnetization       0.6280580

 Free energy of the ion-electron system (eV)
  ---------------------------------------------------
  alpha Z        PSCENC =       202.50320330
  Ewald energy   TEWEN  =     -5034.42253749
  -Hartree energ DENC   =     -2414.60851078
  -exchange      EXHF   =       173.42057267
  -V(xc)+E(xc)   XCENC  =       193.76047895
  PAW double counting   =      8447.25462989    -8828.79302563
  entropy T*S    EENTRO =        -0.00000000
  eigenvalues    EBANDS =      -295.03225963
  atomic energy  EATOM  =      7517.07041424
  Solvation  Ediel_sol  =         0.00000000
  ---------------------------------------------------
  free energy    TOTEN  =       -38.84703448 eV

  energy without entropy =      -38.84703448  energy(sigma->0) =      -38.84703448
  exchange ACFDT corr.  =         0.00000000  see jH, gK, PRB 81, 115126


--------------------------------------------------------------------------------------------------------




--------------------------------------- Iteration      1(   9)  ---------------------------------------


    POTLOK:  cpu time      0.0420: real time      0.0569
    SETDIJ:  cpu time      0.9246: real time      0.9269
     EDDAV:  cpu time      0.1366: real time      0.1369
       DOS:  cpu time      0.0001: real time      0.0003
    CHARGE:  cpu time      0.0090: real time      0.0090
    MIXING:  cpu time      0.0002: real time      0.0002
    --------------------------------------------
      LOOP:  cpu time      1.1125: real time      1.1302

 eigenvalue-minimisations  :   288
 total energy-change (2. order) :-0.7733888E-02  (-0.4557436E-02)
 number of electron      71.9999992 magnetization      -0.3732480
 augmentation part       26.7676184 magnetization      -0.3724120

 Free energy of the ion-electron system (eV)
  ---------------------------------------------------
  alpha Z        PSCENC =       202.50320330
  Ewald energy   TEWEN  =     -5034.42253749
  -Hartree energ DENC   =     -2412.71817630
  -exchange      EXHF   =       173.04725878
  -V(xc)+E(xc)   XCENC  =       193.71711261
  PAW double counting   =      8852.47507209    -9235.41012309
  entropy T*S    EENTRO =        -0.00000000
  eigenvalues    EBANDS =      -295.11699252
  atomic energy  EATOM  =      7517.07041424
  Solvation  Ediel_sol  =         0.00000000
  ---------------------------------------------------
  free energy    TOTEN  =       -38.85476837 eV

  energy without entropy =      -38.85476837  energy(sigma->0) =      -38.85476837
  exchange ACFDT corr.  =         0.00000000  see jH, gK, PRB 81, 115126


--------------------------------------------------------------------------------------------------------




--------------------------------------- Iteration      1(  10)  ---------------------------------------


    POTLOK:  cpu time      0.0463: real time      0.0582
    SETDIJ:  cpu time      0.9183: real time      0.9206
     EDDAV:  cpu time      0.1354: real time      0.1360
       DOS:  cpu time      0.0001: real time      0.0001
    CHARGE:  cpu time      0.0097: real time      0.0097
    MIXING:  cpu time      0.0002: real time      0.0002
    --------------------------------------------
      LOOP:  cpu time      1.1101: real time      1.1249

 eigenvalue-minimisations  :   276
 total energy-change (2. order) :-0.3019408E-02  (-0.1926247E-02)
 number of electron      71.9999992 magnetization       0.2239488
 augmentation part       26.7752837 magnetization       0.2255663

 Free energy of the ion-electron system (eV)
  ---------------------------------------------------
  alpha Z        PSCENC =       202.50320330
  Ewald energy   TEWEN  =     -5034.42253749
  -Hartree energ DENC   =     -2411.08745719
  -exchange      EXHF   =       173.02463802
  -V(xc)+E(xc)   XCENC  =       193.68032895
  PAW double counting   =      9082.35504068    -9465.98880532
  entropy T*S    EENTRO =        -0.00000000
  eigenvalues    EBANDS =      -295.99261296
  atomic energy  EATOM  =      7517.07041424
  Solvation  Ediel_sol  =         0.00000000
  ---------------------------------------------------
  free energy    TOTEN  =       -38.85778778 eV

  energy without entropy =      -38.85778778  energy(sigma->0) =      -38.85778778
  exchange ACFDT corr.  =         0.00000000  see jH, gK, PRB 81, 115126


--------------------------------------------------------------------------------------------------------




--------------------------------------- Iteration      1(  11)  ---------------------------------------


    POTLOK:  cpu time      0.0408: real time      0.0526
    SETDIJ:  cpu time      0.9179: real time      0.9202
     EDDAV:  cpu time      0.1546: real time      0.1550
       DOS:  cpu time      0.0001: real time      0.0001
    CHARGE:  cpu time      0.0092: real time      0.0092
    MIXING:  cpu time      0.0003: real time      0.0003
    --------------------------------------------
      LOOP:  cpu time      1.1230: real time      1.1376

 eigenvalue-minimisations  :   276
 total energy-change (2. order) :-0.2134219E-02  (-0.5825560E-03)
 number of electron      71.9999992 magnetization      -0.1343693
 augmentation part       26.7721334 magnetization      -0.1345233

 Free energy of the ion-electron system (eV)
  ---------------------------------------------------
  alpha Z        PSCENC =       202.50320330
  Ewald energy   TEWEN  =     -5034.42253749
  -Hartree energ DENC   =     -2410.70161874
  -exchange      EXHF   =       173.10402231
  -V(xc)+E(xc)   XCENC  =       193.68332163
  PAW double counting   =      9201.55336443    -9585.73495942
  entropy T*S    EENTRO =        -0.00000000
  eigenvalues    EBANDS =      -295.91513226
  atomic energy  EATOM  =      7517.07041424
  Solvation  Ediel_sol  =         0.00000000
  ---------------------------------------------------
  free energy    TOTEN  =       -38.85992200 eV

  energy without entropy =      -38.85992200  energy(sigma->0) =      -38.85992200
  exchange ACFDT corr.  =         0.00000000  see jH, gK, PRB 81, 115126


--------------------------------------------------------------------------------------------------------




--------------------------------------- Iteration      1(  12)  ---------------------------------------


    POTLOK:  cpu time      0.0509: real time      0.0646
    SETDIJ:  cpu time      0.9163: real time      0.9186
     EDDAV:  cpu time      0.1443: real time      0.1447
       DOS:  cpu time      0.0001: real time      0.0001
    CHARGE:  cpu time      0.0098: real time      0.0099
    MIXING:  cpu time      0.0003: real time      0.0002
    --------------------------------------------
      LOOP:  cpu time      1.1217: real time      1.1381

 eigenvalue-minimisations  :   264
 total energy-change (2. order) :-0.9258535E-03  (-0.2023291E-03)
 number of electron      71.9999992 magnetization       0.0806216
 augmentation part       26.7697618 magnetization       0.0811006

 Free energy of the ion-electron system (eV)
  ---------------------------------------------------
  alpha Z        PSCENC =       202.50320330
  Ewald energy   TEWEN  =     -5034.42253749
  -Hartree energ DENC   =     -2410.47746796
  -exchange      EXHF   =       173.11831958
  -V(xc)+E(xc)   XCENC  =       193.68771174
  PAW double counting   =      9263.09205167    -9647.57914051
  entropy T*S    EENTRO =        -0.00000000
  eigenvalues    EBANDS =      -295.85340242
  atomic energy  EATOM  =      7517.07041424
  Solvation  Ediel_sol  =         0.00000000
  ---------------------------------------------------
  free energy    TOTEN  =       -38.86084785 eV

  energy without entropy =      -38.86084785  energy(sigma->0) =      -38.86084785
  exchange ACFDT corr.  =         0.00000000  see jH, gK, PRB 81, 115126


--------------------------------------------------------------------------------------------------------




--------------------------------------- Iteration      1(  13)  ---------------------------------------


    POTLOK:  cpu time      0.0457: real time      0.0603
    SETDIJ:  cpu time      0.9185: real time      0.9208
     EDDAV:  cpu time      0.1464: real time      0.1467
       DOS:  cpu time      0.0001: real time      0.0001
    CHARGE:  cpu time      0.0101: real time      0.0101
    MIXING:  cpu time      0.0003: real time      0.0003
    --------------------------------------------
      LOOP:  cpu time      1.1212: real time      1.1384

 eigenvalue-minimisations  :   264
 total energy-change (2. order) :-0.3977976E-03  (-0.6548525E-04)
 number of electron      71.9999992 magnetization      -0.0483729
 augmentation part       26.7699625 magnetization      -0.0484756

 Free energy of the ion-electron system (eV)
  ---------------------------------------------------
  alpha Z        PSCENC =       202.50320330
  Ewald energy   TEWEN  =     -5034.42253749
  -Hartree energ DENC   =     -2410.32093086
  -exchange      EXHF   =       173.11976245
  -V(xc)+E(xc)   XCENC  =       193.69012199
  PAW double counting   =      9293.34612832    -9678.00102441
  entropy T*S    EENTRO =        -0.00000000
  eigenvalues    EBANDS =      -295.84638319
  atomic energy  EATOM  =      7517.07041424
  Solvation  Ediel_sol  =         0.00000000
  ---------------------------------------------------
  free energy    TOTEN  =       -38.86124565 eV

  energy without entropy =      -38.86124565  energy(sigma->0) =      -38.86124565
  exchange ACFDT corr.  =         0.00000000  see jH, gK, PRB 81, 115126


--------------------------------------------------------------------------------------------------------




--------------------------------------- Iteration      1(  14)  ---------------------------------------


    POTLOK:  cpu time      0.0447: real time      0.0591
    SETDIJ:  cpu time      0.9214: real time      0.9238
     EDDAV:  cpu time      0.1393: real time      0.1396
       DOS:  cpu time      0.0001: real time      0.0001
    CHARGE:  cpu time      0.0091: real time      0.0091
    MIXING:  cpu time      0.0002: real time      0.0002
    --------------------------------------------
      LOOP:  cpu time      1.1148: real time      1.1320

 eigenvalue-minimisations  :   264
 total energy-change (2. order) :-0.1802325E-03  (-0.2399999E-04)
 number of electron      71.9999992 magnetization       0.0290238
 augmentation part       26.7698068 magnetization       0.0292062

 Free energy of the ion-electron system (eV)
  ---------------------------------------------------
  alpha Z        PSCENC =       202.50320330
  Ewald energy   TEWEN  =     -5034.42253749
  -Hartree energ DENC   =     -2410.27549890
  -exchange      EXHF   =       173.12209130
  -V(xc)+E(xc)   XCENC  =       193.69285074
  PAW double counting   =      9308.03771172    -9692.80694027
  entropy T*S    EENTRO =        -0.00000000
  eigenvalues    EBANDS =      -295.78272052
  atomic energy  EATOM  =      7517.07041424
  Solvation  Ediel_sol  =         0.00000000
  ---------------------------------------------------
  free energy    TOTEN  =       -38.86142588 eV

  energy without entropy =      -38.86142588  energy(sigma->0) =      -38.86142588
  exchange ACFDT corr.  =         0.00000000  see jH, gK, PRB 81, 115126


--------------------------------------------------------------------------------------------------------




--------------------------------------- Iteration      1(  15)  ---------------------------------------


    POTLOK:  cpu time      0.0411: real time      0.0577
    SETDIJ:  cpu time      0.9202: real time      0.9225
     EDDAV:  cpu time      0.1340: real time      0.1343
       DOS:  cpu time      0.0001: real time      0.0001
    CHARGE:  cpu time      0.0097: real time      0.0097
    MIXING:  cpu time      0.0003: real time      0.0003
    --------------------------------------------
      LOOP:  cpu time      1.1053: real time      1.1246

 eigenvalue-minimisations  :   240
 total energy-change (2. order) :-0.8431976E-04  (-0.8800931E-05)
 number of electron      71.9999992 magnetization      -0.0174143
 augmentation part       26.7693646 magnetization      -0.0174570

 Free energy of the ion-electron system (eV)
  ---------------------------------------------------
  alpha Z        PSCENC =       202.50320330
  Ewald energy   TEWEN  =     -5034.42253749
  -Hartree energ DENC   =     -2410.26353555
  -exchange      EXHF   =       173.12104530
  -V(xc)+E(xc)   XCENC  =       193.69455316
  PAW double counting   =      9315.24289719    -9700.08561468
  entropy T*S    EENTRO =        -0.00000000
  eigenvalues    EBANDS =      -295.72193567
  atomic energy  EATOM  =      7517.07041424
  Solvation  Ediel_sol  =         0.00000000
  ---------------------------------------------------
  free energy    TOTEN  =       -38.86151020 eV

  energy without entropy =      -38.86151020  energy(sigma->0) =      -38.86151020
  exchange ACFDT corr.  =         0.00000000  see jH, gK, PRB 81, 115126


--------------------------------------------------------------------------------------------------------




--------------------------------------- Iteration      1(  16)  ---------------------------------------


    POTLOK:  cpu time      0.0559: real time      0.0725
    SETDIJ:  cpu time      0.9173: real time      0.9197
     EDDAV:  cpu time      0.1251: real time      0.1254
       DOS:  cpu time      0.0001: real time      0.0001
    CHARGE:  cpu time      0.0093: real time      0.0093
    MIXING:  cpu time      0.0003: real time      0.0003
    --------------------------------------------
      LOOP:  cpu time      1.1080: real time      1.1273

 eigenvalue-minimisations  :   216
 total energy-change (2. order) :-0.3855542E-04  (-0.3054945E-05)
 number of electron      71.9999992 magnetization       0.0104486
 augmentation part       26.7693100 magnetization       0.0105062

 Free energy of the ion-electron system (eV)
  ---------------------------------------------------
  alpha Z        PSCENC =       202.50320330
  Ewald energy   TEWEN  =     -5034.42253749
  -Hartree energ DENC   =     -2410.24822837
  -exchange      EXHF   =       173.11922916
  -V(xc)+E(xc)   XCENC  =       193.69507299
  PAW double counting   =      9318.76514329    -9703.64745345
  entropy T*S    EENTRO =        -0.00000000
  eigenvalues    EBANDS =      -295.69639242
  atomic energy  EATOM  =      7517.07041424
  Solvation  Ediel_sol  =         0.00000000
  ---------------------------------------------------
  free energy    TOTEN  =       -38.86154875 eV

  energy without entropy =      -38.86154875  energy(sigma->0) =      -38.86154875
  exchange ACFDT corr.  =         0.00000000  see jH, gK, PRB 81, 115126


--------------------------------------------------------------------------------------------------------




--------------------------------------- Iteration      1(  17)  ---------------------------------------


    POTLOK:  cpu time      0.0404: real time      0.0580
    SETDIJ:  cpu time      0.9209: real time      0.9232
     EDDAV:  cpu time      0.1180: real time      0.1182
       DOS:  cpu time      0.0001: real time      0.0001
    CHARGE:  cpu time      0.0092: real time      0.0092
    MIXING:  cpu time      0.0002: real time      0.0002
    --------------------------------------------
      LOOP:  cpu time      1.0888: real time      1.1091

 eigenvalue-minimisations  :   180
 total energy-change (2. order) :-0.1771217E-04  (-0.1150991E-05)
 number of electron      71.9999992 magnetization      -0.0062691
 augmentation part       26.7692466 magnetization      -0.0063350

 Free energy of the ion-electron system (eV)
  ---------------------------------------------------
  alpha Z        PSCENC =       202.50320330
  Ewald energy   TEWEN  =     -5034.42253749
  -Hartree energ DENC   =     -2410.24572233
  -exchange      EXHF   =       173.11930655
  -V(xc)+E(xc)   XCENC  =       193.69550671
  PAW double counting   =      9320.36358819    -9705.27055250
  entropy T*S    EENTRO =        -0.00000000
  eigenvalues    EBANDS =      -295.67477314
  atomic energy  EATOM  =      7517.07041424
  Solvation  Ediel_sol  =         0.00000000
  ---------------------------------------------------
  free energy    TOTEN  =       -38.86156647 eV

  energy without entropy =      -38.86156647  energy(sigma->0) =      -38.86156647
  exchange ACFDT corr.  =         0.00000000  see jH, gK, PRB 81, 115126


--------------------------------------------------------------------------------------------------------




--------------------------------------- Iteration      1(  18)  ---------------------------------------


    POTLOK:  cpu time      0.0398: real time      0.0591
    SETDIJ:  cpu time      0.9176: real time      0.9198
     EDDAV:  cpu time      0.1170: real time      0.1175
       DOS:  cpu time      0.0001: real time      0.0001
    --------------------------------------------
      LOOP:  cpu time      1.0746: real time      1.0965

 eigenvalue-minimisations  :   168
 total energy-change (2. order) :-0.8273802E-05  (-0.5064332E-06)
 number of electron      71.9999992 magnetization      -0.0062691
 augmentation part       26.7692466 magnetization      -0.0063350

 Free energy of the ion-electron system (eV)
  ---------------------------------------------------
  alpha Z        PSCENC =       202.50320330
  Ewald energy   TEWEN  =     -5034.42253749
  -Hartree energ DENC   =     -2410.24699029
  -exchange      EXHF   =       173.11932923
  -V(xc)+E(xc)   XCENC  =       193.69581572
  PAW double counting   =      9321.09873844    -9706.02003090
  entropy T*S    EENTRO =        -0.00000000
  eigenvalues    EBANDS =      -295.65951698
  atomic energy  EATOM  =      7517.07041424
  Solvation  Ediel_sol  =         0.00000000
  ---------------------------------------------------
  free energy    TOTEN  =       -38.86157474 eV

  energy without entropy =      -38.86157474  energy(sigma->0) =      -38.86157474
  exchange ACFDT corr.  =         0.00000000  see jH, gK, PRB 81, 115126


--------------------------------------------------------------------------------------------------------




 average (electrostatic) potential at core
  the test charge radii are     0.9521  0.9430  1.0894  0.9698
  (the norm of the test charge is              1.0000)
       1 -26.9675       2 -57.7742       3 -57.5470       4 -97.1288       5 -83.2791
       6 -83.2791       7 -83.2791       8 -83.2791
 
 
 
 E-fermi :   4.1780     XC(G=0):  -8.1206     alpha+bet :-10.1671

 Fermi energy:         4.1780126395

 spin component 1

 k-point     1 :       0.0000    0.0000    0.0000
  band No.  band energies     occupation 
      1     -20.0971      1.00000
      2     -20.0971      1.00000
      3     -20.0891      1.00000
      4     -20.0100      1.00000
      5     -19.9996      1.00000
      6     -11.4608      1.00000
      7      -9.7803      1.00000
      8      -9.7803      1.00000
      9      -9.7706      1.00000
     10      -4.5364      1.00000
     11      -4.4711      1.00000
     12      -4.4375      1.00000
     13      -4.4375      1.00000
     14      -4.4240      1.00000
     15      -4.0424      1.00000
     16      -1.7338      1.00000
     17      -1.1200      1.00000
     18      -1.0873      1.00000
     19      -0.6505      1.00000
     20      -0.4612      1.00000
     21      -0.4612      1.00000
     22      -0.0545      1.00000
     23      -0.0545      1.00000
     24       0.3497      1.00000
     25       0.4068      1.00000
     26       0.4068      1.00000
     27       1.3458      1.00000
     28       1.3586      1.00000
     29       1.6641      1.00000
     30       1.8606      1.00000
     31       1.9151      1.00000
     32       1.9151      1.00000
     33       2.0759      1.00000
     34       3.9405      1.00000
     35       3.9405      1.00000
     36       4.0539      1.00000
     37       5.8095      0.00000
     38       7.3439      0.00000
     39       8.4144      0.00000
     40       9.2282      0.00000
     41       9.2282      0.00000
     42      10.5290      0.00000
     43      10.8709      0.00000
     44      10.8709      0.00000
     45      10.8821      0.00000
     46      11.6437      0.00000
     47      12.4812      0.00000
     48      12.5784      0.00000
 Fermi energy:         4.1780126395

 spin component 2

 k-point     1 :       0.0000    0.0000    0.0000
  band No.  band energies     occupation 
      1     -20.0973      1.00000
      2     -20.0973      1.00000
      3     -20.0893      1.00000
      4     -20.0102      1.00000
      5     -19.9997      1.00000
      6     -11.4612      1.00000
      7      -9.7807      1.00000
      8      -9.7807      1.00000
      9      -9.7710      1.00000
     10      -4.5368      1.00000
     11      -4.4714      1.00000
     12      -4.4378      1.00000
     13      -4.4378      1.00000
     14      -4.4243      1.00000
     15      -4.0428      1.00000
     16      -1.7343      1.00000
     17      -1.1204      1.00000
     18      -1.0878      1.00000
     19      -0.6510      1.00000
     20      -0.4617      1.00000
     21      -0.4617      1.00000
     22      -0.0548      1.00000
     23      -0.0548      1.00000
     24       0.3493      1.00000
     25       0.4064      1.00000
     26       0.4064      1.00000
     27       1.3455      1.00000
     28       1.3582      1.00000
     29       1.6638      1.00000
     30       1.8603      1.00000
     31       1.9147      1.00000
     32       1.9147      1.00000
     33       2.0755      1.00000
     34       3.9401      1.00000
     35       3.9401      1.00000
     36       4.0535      1.00000
     37       5.8089      0.00000
     38       7.3429      0.00000
     39       8.4137      0.00000
     40       9.2274      0.00000
     41       9.2274      0.00000
     42      10.5283      0.00000
     43      10.8700      0.00000
     44      10.8701      0.00000
     45      10.8815      0.00000
     46      11.6433      0.00000
     47      12.4755      0.00000
     48      12.5749      0.00000


--------------------------------------------------------------------------------------------------------


 soft charge-density along one line, spin component           1
         0         1         2         3         4         5         6         7         8         9
 total charge-density along one line
 
 soft charge-density along one line, spin component           2
         0         1         2         3         4         5         6         7         8         9
 total charge-density along one line
 
 pseudopotential strength for first ion, spin component:           1
 -5.044   0.001   0.001   0.003   0.001  -5.693   0.001   0.001
  0.001  -5.047   0.001  -0.001  -0.002   0.001  -5.696   0.001
  0.001   0.001  -5.048   0.001   0.000   0.001   0.001  -5.696
  0.003  -0.001   0.001  -5.046   0.003   0.002  -0.001   0.001
  0.001  -0.002   0.000   0.003  -5.043   0.001  -0.002   0.000
 -5.693   0.001   0.001   0.002   0.001  -6.249   0.001   0.001
  0.001  -5.696   0.001  -0.001  -0.002   0.001  -6.252   0.001
  0.001   0.001  -5.696   0.001   0.000   0.001   0.001  -6.252
  0.002  -0.001   0.001  -5.695   0.003   0.002  -0.001   0.001
  0.001  -0.002   0.000   0.003  -5.692   0.001  -0.002   0.000
  0.000  -0.001   0.000  -0.000  -0.000   0.000  -0.001   0.000
  0.000  -0.001   0.001  -0.001  -0.000   0.000  -0.001   0.001
  0.004   0.002  -0.002  -0.002   0.001   0.003   0.001  -0.002
 -0.002  -0.003  -0.004  -0.002   0.001  -0.002  -0.002  -0.003
  0.003  -0.002  -0.002   0.003  -0.003   0.002  -0.002  -0.001
  0.007   0.003  -0.004  -0.004   0.002   0.006   0.003  -0.003
 -0.004  -0.005  -0.007  -0.003   0.001  -0.003  -0.004  -0.006
  0.004  -0.004  -0.003   0.005  -0.005   0.004  -0.003  -0.002
 pseudopotential strength for first ion, spin component:           2
 -5.044   0.001   0.001   0.003   0.001  -5.693   0.001   0.001
  0.001  -5.047   0.001  -0.001  -0.002   0.001  -5.696   0.001
  0.001   0.001  -5.048   0.001   0.000   0.001   0.001  -5.697
  0.003  -0.001   0.001  -5.046   0.003   0.002  -0.001   0.001
  0.001  -0.002   0.000   0.003  -5.043   0.001  -0.002   0.000
 -5.693   0.001   0.001   0.002   0.001  -6.249   0.001   0.001
  0.001  -5.696   0.001  -0.001  -0.002   0.001  -6.252   0.001
  0.001   0.001  -5.697   0.001   0.000   0.001   0.001  -6.253
  0.002  -0.001   0.001  -5.695   0.003   0.002  -0.001   0.001
  0.001  -0.002   0.000   0.003  -5.692   0.001  -0.002   0.000
  0.000  -0.001   0.000  -0.000  -0.000   0.000  -0.001   0.000
  0.000  -0.001   0.001  -0.001  -0.000   0.000  -0.001   0.001
  0.004   0.002  -0.002  -0.002   0.001   0.003   0.001  -0.002
 -0.002  -0.003  -0.004  -0.002   0.001  -0.002  -0.002  -0.003
  0.003  -0.002  -0.002   0.003  -0.003   0.002  -0.002  -0.001
  0.007   0.003  -0.004  -0.004   0.002   0.006   0.003  -0.003
 -0.004  -0.005  -0.007  -0.003   0.001  -0.003  -0.004  -0.006
  0.004  -0.004  -0.003   0.005  -0.005   0.004  -0.003  -0.002
 total augmentation occupancy for first ion, spin component:           1
  4.544   0.551  -0.311   0.189  -0.250  -2.442  -0.547   0.297  -0.185   0.254   0.009  -0.007  -0.531   0.289  -0.302   0.096
  0.551   3.602   0.733  -0.428   0.456  -0.547  -1.513  -0.716   0.410  -0.447  -0.021   0.016  -0.222   0.350   0.280   0.039
 -0.311   0.733   4.184   0.589   0.052   0.297  -0.716  -2.080  -0.574  -0.048   0.016  -0.013   0.297   0.507   0.197  -0.054
  0.189  -0.428   0.589   3.752  -0.764  -0.185   0.410  -0.574  -1.652   0.755  -0.017   0.013   0.282   0.230  -0.363  -0.050
 -0.250   0.456   0.052  -0.764   3.530   0.254  -0.447  -0.048   0.755  -1.427  -0.002   0.001  -0.123  -0.078   0.415   0.020
 -2.442  -0.547   0.297  -0.185   0.254   2.335   0.542  -0.284   0.181  -0.258  -0.010   0.007   0.521  -0.282   0.296  -0.108
 -0.547  -1.513  -0.716   0.410  -0.447   0.542   1.420   0.700  -0.393   0.438   0.022  -0.017   0.217  -0.343  -0.276  -0.044
  0.297  -0.716  -2.080  -0.574  -0.048  -0.284   0.700   1.971   0.559   0.044  -0.017   0.013  -0.292  -0.498  -0.194   0.061
 -0.185   0.410  -0.574  -1.652   0.755   0.181  -0.393   0.559   1.549  -0.745   0.018  -0.013  -0.278  -0.225   0.357   0.057
  0.254  -0.447  -0.048   0.755  -1.427  -0.258   0.438   0.044  -0.745   1.323   0.002  -0.002   0.122   0.076  -0.408  -0.023
  0.009  -0.021   0.016  -0.017  -0.002  -0.010   0.022  -0.017   0.018   0.002   3.221  -0.972  -0.000  -0.000  -0.000   0.000
 -0.007   0.016  -0.013   0.013   0.001   0.007  -0.017   0.013  -0.013  -0.002  -0.972   0.307   0.000   0.000   0.000  -0.000
 -0.531  -0.222   0.297   0.282  -0.123   0.521   0.217  -0.292  -0.278   0.122  -0.000   0.000   0.391   0.019  -0.008  -0.086
  0.289   0.350   0.507   0.230  -0.078  -0.282  -0.343  -0.498  -0.225   0.076  -0.000   0.000   0.019   0.367   0.015  -0.004
 -0.302   0.280   0.197  -0.363   0.415   0.296  -0.276  -0.194   0.357  -0.408  -0.000   0.000  -0.008   0.015   0.395   0.002
  0.096   0.039  -0.054  -0.050   0.020  -0.108  -0.044   0.061   0.057  -0.023   0.000  -0.000  -0.086  -0.004   0.002   0.020
 -0.052  -0.064  -0.091  -0.039   0.015   0.058   0.072   0.102   0.045  -0.016   0.000  -0.000  -0.004  -0.081  -0.003   0.001
  0.053  -0.050  -0.033   0.066  -0.075  -0.060   0.056   0.038  -0.074   0.085   0.000  -0.000   0.002  -0.003  -0.086  -0.000
 total augmentation occupancy for first ion, spin component:           2
 -0.000   0.000   0.000   0.000  -0.000   0.000  -0.000  -0.000  -0.000   0.000  -0.000  -0.000   0.000   0.000   0.000   0.000
  0.000  -0.000  -0.000   0.000  -0.000  -0.000   0.000   0.000  -0.000   0.000   0.000   0.000   0.000  -0.000  -0.000  -0.000
  0.000  -0.000  -0.000  -0.000  -0.000  -0.000   0.000   0.000   0.000   0.000   0.000   0.000  -0.000  -0.000  -0.000   0.000
  0.000   0.000  -0.000  -0.000  -0.000  -0.000  -0.000   0.000   0.000   0.000  -0.000  -0.000  -0.000   0.000   0.000   0.000
 -0.000  -0.000  -0.000  -0.000  -0.000   0.000   0.000   0.000   0.000   0.000   0.000  -0.000   0.000   0.000  -0.000   0.000
  0.000  -0.000  -0.000  -0.000   0.000  -0.000   0.000   0.000  -0.000  -0.000   0.000   0.000  -0.000  -0.000  -0.000  -0.000
 -0.000   0.000   0.000  -0.000   0.000   0.000  -0.000  -0.000   0.000  -0.000  -0.000  -0.000  -0.000   0.000   0.000   0.000
 -0.000   0.000   0.000   0.000   0.000   0.000  -0.000  -0.000  -0.000  -0.000  -0.000   0.000   0.000   0.000   0.000  -0.000
 -0.000  -0.000   0.000   0.000   0.000  -0.000   0.000  -0.000  -0.000  -0.000   0.000  -0.000   0.000   0.000  -0.000  -0.000
  0.000   0.000   0.000   0.000   0.000  -0.000  -0.000  -0.000  -0.000  -0.000  -0.000   0.000  -0.000  -0.000   0.000   0.000
 -0.000   0.000   0.000  -0.000   0.000   0.000  -0.000  -0.000   0.000  -0.000   0.000  -0.000  -0.000  -0.000   0.000   0.000
 -0.000   0.000   0.000  -0.000  -0.000   0.000  -0.000   0.000  -0.000   0.000  -0.000   0.000   0.000   0.000   0.000  -0.000
  0.000   0.000  -0.000  -0.000   0.000  -0.000  -0.000   0.000   0.000  -0.000  -0.000   0.000   0.000   0.000  -0.000  -0.000
  0.000  -0.000  -0.000   0.000   0.000  -0.000   0.000   0.000   0.000  -0.000  -0.000   0.000   0.000   0.000   0.000   0.000
  0.000  -0.000  -0.000   0.000  -0.000  -0.000   0.000   0.000  -0.000   0.000   0.000   0.000  -0.000   0.000   0.000   0.000
  0.000  -0.000   0.000   0.000   0.000  -0.000   0.000  -0.000  -0.000   0.000   0.000  -0.000  -0.000   0.000   0.000   0.000
 -0.000   0.000   0.000  -0.000  -0.000   0.000  -0.000  -0.000   0.000   0.000   0.000  -0.000  -0.000  -0.000  -0.000  -0.000
 -0.000   0.000   0.000   0.000   0.000  -0.000  -0.000  -0.000  -0.000  -0.000  -0.000  -0.000  -0.000  -0.000  -0.000   0.000


------------------------ aborting loop because EDIFF is reached ----------------------------------------





 total charge

# of ion       s       p       d       tot
------------------------------------------
    1        0.483   0.442   9.854  10.779
    2        0.332   0.359   9.346  10.037
    3        0.333   0.354   9.369  10.057
    4        1.084   1.066  10.139  12.289
    5        1.287   2.468   0.000   3.755
    6        1.287   2.468   0.000   3.755
    7        1.287   2.468   0.000   3.755
    8        1.287   2.468   0.000   3.755
--------------------------------------------------
tot          7.383  12.092  38.707  58.182



 magnetization (x)

# of ion       s       p       d       tot
------------------------------------------
    1        0.000  -0.000   0.000   0.000
    2        0.000   0.000   0.000   0.000
    3        0.000   0.000   0.000   0.000
    4        0.000  -0.000   0.000   0.000
    5        0.000   0.000   0.000   0.000
    6        0.000   0.000   0.000   0.000
    7        0.000   0.000   0.000   0.000
    8        0.000   0.000   0.000   0.000
--------------------------------------------------
tot          0.000   0.000   0.000   0.000
 
    CHARGE:  cpu time      0.0108: real time      0.0109
    FORLOC:  cpu time      0.0011: real time      0.0011
    FORHF :  cpu time      0.0649: real time      0.0654
    FORNL :  cpu time      0.0165: real time      0.0172
    FORCOR:  cpu time      0.9575: real time      0.9606
    FORHAR:  cpu time      0.0051: real time      0.0058
    MIXING:  cpu time      0.0002: real time      0.0002
    OFIELD:  cpu time      0.0010: real time      0.0011

 VOLUME and BASIS-vectors are now :
 -----------------------------------------------------------------------------
  energy-cutoff  :      680.00
  volume of cell :      158.39
      direct lattice vectors                 reciprocal lattice vectors
     4.939011845  0.000000000 -4.418482186     0.202469650  0.041317308  0.000000000
    -0.987535372  4.839278034 -4.418482186     0.000000000  0.206642394  0.000000000
     0.000000000  0.000000000  6.626976900     0.134994969  0.165325086  0.150898368

  length of vectors
     6.626976900  6.626976900  6.626976900     0.206642394  0.206642394  0.261393082


 FORCES acting on ions
    electron-ion (+dipol)            ewald-force                    non-local-force                 convergence-correction
 -----------------------------------------------------------------------------------------------
   0.487E-03 -.792E-03 -.718E-03   -.513E-03 0.718E-03 0.656E-03   -.326E-20 0.904E-21 -.253E-20   0.289E-04 0.415E-04 -.344E-04
   0.765E-03 -.336E-03 0.710E-03   -.740E-03 0.279E-03 -.712E-03   0.252E-20 0.563E-21 0.229E-20   -.341E-04 0.110E-04 -.279E-04
   -.137E-03 0.456E-03 0.723E-03   0.128E-03 -.421E-03 -.692E-03   -.856E-21 0.239E-21 -.191E-20   -.135E-04 -.397E-04 -.435E-04
   -.561E-03 0.729E-04 -.724E-03   0.453E-03 -.413E-04 0.719E-03   -.114E-20 0.936E-21 0.947E-20   0.310E-04 0.590E-04 -.242E-04
   0.529E+01 0.155E+01 0.528E+01   -.777E+01 -.255E+01 -.951E+01   0.254E+01 0.946E+00 0.427E+01   -.495E-04 -.680E-05 -.478E-03
   -.652E+01 -.305E+01 -.253E+01   0.105E+02 0.594E+01 0.332E+01   -.410E+01 -.286E+01 -.783E+00   0.331E-03 0.312E-03 -.147E-03
   0.424E+01 -.550E+01 -.318E+01   -.772E+01 0.812E+01 0.564E+01   0.346E+01 -.268E+01 -.253E+01   -.314E-03 0.358E-04 0.351E-03
   -.301E+01 0.700E+01 0.427E+00   0.495E+01 -.115E+02 0.549E+00   -.190E+01 0.459E+01 -.952E+00   0.718E-04 -.380E-03 0.242E-03
 -----------------------------------------------------------------------------------------------
   -.168E-03 -.116E-03 0.579E-04   -.133E-13 -.533E-14 -.188E-13   0.222E-15 0.000E+00 0.222E-15   0.514E-04 0.332E-04 -.162E-03
 
 
 POSITION                                       TOTAL-FORCE (eV/Angst)
 -----------------------------------------------------------------------------------
      3.45738      1.20982     -1.10499        -0.000000     -0.000000      0.000000
      0.00000      0.00000      0.00000        -0.000000      0.000000      0.000000
      0.49410      3.62946     -1.10499        -0.000000      0.000000      0.000000
      1.97574      2.41964     -4.41848        -0.000000      0.000000      0.000000
      1.43280      1.79654     -0.08518         0.344284      0.039704      0.469872
      3.53810      4.29122     -4.40464        -0.519696     -0.254527     -0.077585
     -0.06839      3.07620     -3.26331         0.330231     -0.345270     -0.335594
      3.00044      0.51461      3.33314        -0.154819      0.560093     -0.056693
 -----------------------------------------------------------------------------------
    total drift:                               -0.000117     -0.000082     -0.000104


--------------------------------------------------------------------------------------------------------



  FREE ENERGIE OF THE ION-ELECTRON SYSTEM (eV)
  ---------------------------------------------------
  free  energy   TOTEN  =       -38.86157474 eV

  energy  without entropy=      -38.86157474  energy(sigma->0) =      -38.86157474
 


--------------------------------------------------------------------------------------------------------


    POTLOK:  cpu time      0.9621: real time      0.9649


--------------------------------------------------------------------------------------------------------


 writing wavefunctions
     LOOP+:  cpu time     20.5555: real time     20.8811
    4ORBIT:  cpu time      0.0000: real time      0.0000



 total charge

# of ion       s       p       d       tot
------------------------------------------
    1        0.483   0.442   9.854  10.779
    2        0.332   0.359   9.346  10.037
    3        0.333   0.354   9.369  10.057
    4        1.084   1.066  10.139  12.289
    5        1.287   2.468   0.000   3.755
    6        1.287   2.468   0.000   3.755
    7        1.287   2.468   0.000   3.755
    8        1.287   2.468   0.000   3.755
--------------------------------------------------
tot          7.383  12.092  38.707  58.182



 magnetization (x)

# of ion       s       p       d       tot
------------------------------------------
    1        0.000  -0.000   0.000   0.000
    2        0.000   0.000   0.000   0.000
    3        0.000   0.000   0.000   0.000
    4        0.000  -0.000   0.000   0.000
    5        0.000   0.000   0.000   0.000
    6        0.000   0.000   0.000   0.000
    7        0.000   0.000   0.000   0.000
    8        0.000   0.000   0.000   0.000
--------------------------------------------------
tot          0.000   0.000   0.000   0.000
 

 total amount of memory used by VASP MPI-rank0    41215. kBytes
=======================================================================

   base      :      30000. kBytes
   nonl-proj :        456. kBytes
   fftplans  :       1168. kBytes
   grid      :       2738. kBytes
   one-center:         31. kBytes
   HF        :         64. kBytes
   nonlr-proj:       1493. kBytes
   wavefun   :         86. kBytes
   fock_wrk  :       5179. kBytes
 
  
  
 General timing and accounting informations for this job:
 ========================================================
  
                  Total CPU time used (sec):       38.187
                            User time (sec):       34.791
                          System time (sec):        3.397
                         Elapsed time (sec):       39.292
  
                   Maximum memory used (kb):      298476.
                   Average memory used (kb):          N/A
  
                          Minor page faults:        41348
                          Major page faults:            0
                 Voluntary context switches:         2371
