<?xml version="1.0" encoding="ISO-8859-1"?>
<modeling>
 <generator>
  <i name="program" type="string">vasp </i>
  <i name="version" type="string">6.4.2  </i>
  <i name="subversion" type="string">20Jul23 (build Mar 15 2024 16:31:38) complex                          parallel </i>
  <i name="platform" type="string">LinuxIFC </i>
  <i name="date" type="string">2025 03 19 </i>
  <i name="time" type="string">14:49:03 </i>
 </generator>
 <incar>
  <i type="string" name="PREC">Accurate</i>
  <i type="string" name="ALGO">Fast</i>
  <i type="int" name="ISPIN">     2</i>
  <i type="int" name="NELM">   200</i>
  <i name="EDIFF">      0.00001000</i>
  <i type="int" name="NSW">     0</i>
  <i name="ENCUT">    680.00000000</i>
  <i name="ENAUG">   1360.00000000</i>
  <v name="MAGMOM">      0.60000000      0.60000000      0.60000000      0.60000000      0.60000000      0.60000000      0.60000000      0.60000000      0.60000000      0.60000000      0.60000000      0.60000000      0.60000000      0.60000000      0.60000000      0.60000000</v>
  <i type="logical" name="LREAL"> F  </i>
  <i type="int" name="ISMEAR">    -5</i>
  <i name="SIGMA">      0.20000000</i>
  <i type="int" name="LMAXMIX">     4</i>
  <i type="logical" name="LWAVE"> T  </i>
  <i type="logical" name="LCHARG"> T  </i>
  <i type="logical" name="LVTOT"> T  </i>
  <i type="int" name="LORBIT">    11</i>
  <i type="logical" name="LELF"> F  </i>
  <i type="logical" name="LASPH"> T  </i>
  <i type="logical" name="LAECHG"> T  </i>
  <i type="string" name="GGA">Ps</i>
  <i type="logical" name="LMIXTAU"> T  </i>
 </incar>
 <primitive_cell>
  <structure name="primitive_cell" >
   <crystal>
    <varray name="basis" >
     <v>       3.80157474       0.00000000       0.00000000 </v>
     <v>      -0.00000000       6.07432056       0.00000000 </v>
     <v>       0.00000000       0.00000000      14.49176048 </v>
    </varray>
    <i name="volume">    334.64349539 </i>
    <varray name="rec_basis" >
     <v>       0.26304889       0.00000000       0.00000000 </v>
     <v>       0.00000000       0.16462747       0.00000000 </v>
     <v>      -0.00000000      -0.00000000       0.06900473 </v>
    </varray>
   </crystal>
   <varray name="positions" >
    <v>       0.25000000       0.25010162       0.82821842 </v>
    <v>       0.25000000       0.75010162       0.67178158 </v>
    <v>       0.75000000       0.74989838       0.17178158 </v>
    <v>       0.75000000       0.24989838       0.32821842 </v>
    <v>       0.25000000       0.72881200       0.43458741 </v>
    <v>       0.75000000       0.27118800       0.56541259 </v>
    <v>       0.25000000       0.22881200       0.06541259 </v>
    <v>       0.75000000       0.77118800       0.93458741 </v>
    <v>       0.25000000       0.12368586       0.40104516 </v>
    <v>       0.75000000       0.87631414       0.59895484 </v>
    <v>       0.25000000       0.62368586       0.09895484 </v>
    <v>       0.75000000       0.37631414       0.90104516 </v>
    <v>       0.75000000       0.62427265       0.32157721 </v>
    <v>       0.25000000       0.87572735       0.82157721 </v>
    <v>       0.75000000       0.12427265       0.17842279 </v>
    <v>       0.25000000       0.37572735       0.67842279 </v>
   </varray>
  </structure>
  <varray name="primitive_index" >
   <v type="int" >        1 </v>
   <v type="int" >        2 </v>
   <v type="int" >        3 </v>
   <v type="int" >        4 </v>
   <v type="int" >        5 </v>
   <v type="int" >        6 </v>
   <v type="int" >        7 </v>
   <v type="int" >        8 </v>
   <v type="int" >        9 </v>
   <v type="int" >       10 </v>
   <v type="int" >       11 </v>
   <v type="int" >       12 </v>
   <v type="int" >       13 </v>
   <v type="int" >       14 </v>
   <v type="int" >       15 </v>
   <v type="int" >       16 </v>
  </varray>
 </primitive_cell>
 <kpoints>
  <generation param="Gamma">
   <v type="int" name="divisions">       6        4        1 </v>
   <v name="usershift">      0.00000000       0.00000000       0.00000000 </v>
   <v name="genvec1">      0.16666667      -0.00000000       0.00000000 </v>
   <v name="genvec2">      0.00000000       0.25000000       0.00000000 </v>
   <v name="genvec3">      0.00000000      -0.00000000       1.00000000 </v>
   <v name="shift">      0.00000000       0.00000000       0.00000000 </v>
  </generation>
  <varray name="kpointlist" >
   <v>       0.00000000       0.00000000       0.00000000 </v>
   <v>       0.16666667       0.00000000       0.00000000 </v>
   <v>       0.33333333       0.00000000       0.00000000 </v>
   <v>       0.50000000       0.00000000       0.00000000 </v>
   <v>       0.00000000       0.25000000       0.00000000 </v>
   <v>       0.16666667       0.25000000       0.00000000 </v>
   <v>       0.33333333       0.25000000       0.00000000 </v>
   <v>       0.50000000       0.25000000       0.00000000 </v>
   <v>       0.00000000       0.50000000       0.00000000 </v>
   <v>       0.16666667       0.50000000       0.00000000 </v>
   <v>       0.33333333       0.50000000       0.00000000 </v>
   <v>       0.50000000       0.50000000       0.00000000 </v>
  </varray>
  <varray name="weights" >
   <v>       0.04166667 </v>
   <v>       0.08333333 </v>
   <v>       0.08333333 </v>
   <v>       0.04166667 </v>
   <v>       0.08333333 </v>
   <v>       0.16666667 </v>
   <v>       0.16666667 </v>
   <v>       0.08333333 </v>
   <v>       0.04166667 </v>
   <v>       0.08333333 </v>
   <v>       0.08333333 </v>
   <v>       0.04166667 </v>
  </varray>
  <varray name="tetrahedronlist"  type="int" >
   <v type="int" >        2        3        6        6        7 </v>
   <v type="int" >        2        2        3        6        6 </v>
   <v type="int" >        2        2        2        3        6 </v>
   <v type="int" >        2        3        6        7        7 </v>
   <v type="int" >        2        3        3        6        7 </v>
   <v type="int" >        2        2        3        3        6 </v>
   <v type="int" >        2        6        7        7       10 </v>
   <v type="int" >        2        7        7       10       11 </v>
   <v type="int" >        2        7       10       11       11 </v>
   <v type="int" >        2        6        6        7       10 </v>
   <v type="int" >        2        6        7       10       10 </v>
   <v type="int" >        2        7       10       10       11 </v>
   <v type="int" >        2        1        2        2        5 </v>
   <v type="int" >        2        2        2        5        6 </v>
   <v type="int" >        2        2        5        6        6 </v>
   <v type="int" >        2        1        1        2        5 </v>
   <v type="int" >        2        1        2        5        5 </v>
   <v type="int" >        2        2        5        5        6 </v>
   <v type="int" >        2        8       11       11       12 </v>
   <v type="int" >        2        7        8       11       11 </v>
   <v type="int" >        2        7        7        8       11 </v>
   <v type="int" >        2        8       11       12       12 </v>
   <v type="int" >        2        8        8       11       12 </v>
   <v type="int" >        2        7        8        8       11 </v>
   <v type="int" >        2        1        5        6        6 </v>
   <v type="int" >        2        1        2        6        6 </v>
   <v type="int" >        2        1        2        2        6 </v>
   <v type="int" >        2        1        5        5        6 </v>
   <v type="int" >        2        1        1        5        6 </v>
   <v type="int" >        2        1        1        2        6 </v>
   <v type="int" >        2        7        7        8       12 </v>
   <v type="int" >        2        7        7       11       12 </v>
   <v type="int" >        2        7       11       11       12 </v>
   <v type="int" >        2        7        8        8       12 </v>
   <v type="int" >        2        7        8       12       12 </v>
   <v type="int" >        2        7       11       12       12 </v>
   <v type="int" >        2        3        4        4        7 </v>
   <v type="int" >        2        4        4        7        8 </v>
   <v type="int" >        2        4        7        8        8 </v>
   <v type="int" >        2        3        3        4        7 </v>
   <v type="int" >        2        3        4        7        7 </v>
   <v type="int" >        2        4        7        7        8 </v>
   <v type="int" >        2        6        9        9       10 </v>
   <v type="int" >        2        5        6        9        9 </v>
   <v type="int" >        2        5        5        6        9 </v>
   <v type="int" >        2        6        9       10       10 </v>
   <v type="int" >        2        6        6        9       10 </v>
   <v type="int" >        2        5        6        6        9 </v>
   <v type="int" >        2        6        6        7       11 </v>
   <v type="int" >        2        6        6       10       11 </v>
   <v type="int" >        2        6       10       10       11 </v>
   <v type="int" >        2        6        7        7       11 </v>
   <v type="int" >        2        6        7       11       11 </v>
   <v type="int" >        2        6       10       11       11 </v>
   <v type="int" >        2        2        6        7        7 </v>
   <v type="int" >        2        2        3        7        7 </v>
   <v type="int" >        2        2        3        3        7 </v>
   <v type="int" >        2        2        6        6        7 </v>
   <v type="int" >        2        2        2        6        7 </v>
   <v type="int" >        2        2        2        3        7 </v>
   <v type="int" >        2        5        9       10       10 </v>
   <v type="int" >        2        5        6       10       10 </v>
   <v type="int" >        2        5        6        6       10 </v>
   <v type="int" >        2        5        9        9       10 </v>
   <v type="int" >        2        5        5        9       10 </v>
   <v type="int" >        2        5        5        6       10 </v>
   <v type="int" >        2        3        3        4        8 </v>
   <v type="int" >        2        3        3        7        8 </v>
   <v type="int" >        2        3        7        7        8 </v>
   <v type="int" >        2        3        4        4        8 </v>
   <v type="int" >        2        3        4        8        8 </v>
   <v type="int" >        2        3        7        8        8 </v>
  </varray>
  <i name="volumeweight">      0.00694444 </i>
 </kpoints>
 <parameters>
  <separator name="general" >
   <i type="string" name="SYSTEM">unknown system</i>
   <i type="logical" name="LCOMPAT"> F  </i>
  </separator>
  <separator name="electronic" >
   <i type="string" name="PREC">accura</i>
   <i name="ENMAX">    680.00000000</i>
   <i name="ENAUG">   1360.00000000</i>
   <i name="EDIFF">      0.00001000</i>
   <i type="int" name="IALGO">    68</i>
   <i type="int" name="IWAVPR">    10</i>
   <i type="int" name="NBANDS">    72</i>
   <i type="int" name="NBANDSLOW">    -1</i>
   <i type="int" name="NBANDSHIGH">    -1</i>
   <i name="NELECT">    112.00000000</i>
   <i type="int" name="TURBO">     0</i>
   <i type="int" name="IRESTART">     0</i>
   <i type="int" name="NREBOOT">     0</i>
   <i type="int" name="NMIN">     0</i>
   <i name="EREF">      0.00000000</i>
   <separator name="electronic smearing" >
    <i type="int" name="ISMEAR">    -5</i>
    <i name="SIGMA">      0.20000000</i>
    <i name="KSPACING">      0.50000000</i>
    <i type="logical" name="KGAMMA"> T  </i>
    <i type="logical" name="KBLOWUP"> T  </i>
   </separator>
   <separator name="electronic projectors" >
    <i type="logical" name="LREAL"> F  </i>
    <v name="ROPT">      0.00000000      0.00000000      0.00000000</v>
    <i type="int" name="LMAXPAW">  -100</i>
    <i type="int" name="LMAXMIX">     4</i>
    <i type="logical" name="NLSPLINE"> F  </i>
   </separator>
   <separator name="electronic startup" >
    <i type="int" name="ISTART">     0</i>
    <i type="int" name="ICHARG">     2</i>
    <i type="int" name="INIWAV">     1</i>
   </separator>
   <separator name="electronic spin" >
    <i type="int" name="ISPIN">     2</i>
    <i type="logical" name="LNONCOLLINEAR"> F  </i>
    <v name="MAGMOM">      0.60000000      0.60000000      0.60000000      0.60000000      0.60000000      0.60000000      0.60000000      0.60000000      0.60000000      0.60000000      0.60000000      0.60000000      0.60000000      0.60000000      0.60000000      0.60000000</v>
    <i name="NUPDOWN">     -1.00000000</i>
    <i type="logical" name="LSORBIT"> F  </i>
    <v name="SAXIS">      0.00000000      0.00000000      1.00000000</v>
    <i type="logical" name="LSPIRAL"> F  </i>
    <v name="QSPIRAL">      0.00000000      0.00000000      0.00000000</v>
    <i type="logical" name="LZEROZ"> F  </i>
   </separator>
   <separator name="electronic exchange-correlation" >
    <i type="logical" name="LASPH"> T  </i>
    <i type="logical" name="LMETAGGA"> F  </i>
   </separator>
   <separator name="electronic convergence" >
    <i type="int" name="NELM">   200</i>
    <i type="int" name="NELMDL">    -5</i>
    <i type="int" name="NELMIN">     2</i>
    <i name="ENINI">    680.00000000</i>
    <separator name="electronic convergence detail" >
     <i type="logical" name="LDIAG"> T  </i>
     <i type="logical" name="LSUBROT"> F  </i>
     <i name="WEIMIN">      0.00000000</i>
     <i name="EBREAK">      0.00000003</i>
     <i name="DEPER">      0.30000000</i>
     <i type="int" name="NRMM">     4</i>
     <i name="TIME">      0.40000000</i>
    </separator>
   </separator>
   <separator name="electronic mixer" >
    <i name="AMIX">      0.40000000</i>
    <i name="BMIX">      1.00000000</i>
    <i name="AMIN">      0.10000000</i>
    <i name="AMIX_MAG">      1.60000000</i>
    <i name="BMIX_MAG">      1.00000000</i>
    <separator name="electronic mixer details" >
     <i type="int" name="IMIX">     4</i>
     <i type="logical" name="MIXFIRST"> F  </i>
     <i type="int" name="MAXMIX">   -45</i>
     <i name="WC">    100.00000000</i>
     <i type="int" name="INIMIX">     1</i>
     <i type="int" name="MIXPRE">     1</i>
     <i type="int" name="MREMOVE">     5</i>
    </separator>
   </separator>
   <separator name="electronic dipolcorrection" >
    <i type="logical" name="LDIPOL"> F  </i>
    <i type="logical" name="LMONO"> F  </i>
    <i type="int" name="IDIPOL">     0</i>
    <i name="EPSILON">      1.00000000</i>
    <v name="DIPOL">   -100.00000000   -100.00000000   -100.00000000</v>
    <i name="EFIELD">      0.00000000</i>
   </separator>
  </separator>
  <separator name="grids" >
   <i type="int" name="NGX">    32</i>
   <i type="int" name="NGY">    54</i>
   <i type="int" name="NGZ">   126</i>
   <i type="int" name="NGXF">    64</i>
   <i type="int" name="NGYF">   108</i>
   <i type="int" name="NGZF">   252</i>
   <i type="logical" name="ADDGRID"> F  </i>
  </separator>
  <separator name="ionic" >
   <i type="int" name="NSW">     0</i>
   <i type="int" name="IBRION">    -1</i>
   <i type="int" name="MDALGO">     0</i>
   <i type="int" name="ISIF">     2</i>
   <i name="PSTRESS">      0.00000000</i>
   <i name="EDIFFG">      0.00010000</i>
   <i type="int" name="NFREE">     0</i>
   <i name="POTIM">      0.50000000</i>
   <i name="SMASS">     -3.00000000</i>
   <i name="SCALEE">      1.00000000</i>
  </separator>
  <separator name="ionic md" >
   <i name="TEBEG">      0.00010000</i>
   <i name="TEEND">      0.00010000</i>
   <i type="int" name="NBLOCK">     1</i>
   <i type="int" name="KBLOCK">     1</i>
   <i type="int" name="NPACO">   256</i>
   <i name="APACO">     10.00000000</i>
  </separator>
  <separator name="symmetry" >
   <i type="int" name="ISYM">     2</i>
   <i name="SYMPREC">      0.00001000</i>
  </separator>
  <separator name="dos" >
   <i type="int" name="LORBIT">    11</i>
   <v name="RWIGS">     -1.00000000     -1.00000000     -1.00000000</v>
   <i type="int" name="NEDOS">   301</i>
   <i name="EMIN">     10.00000000</i>
   <i name="EMAX">    -10.00000000</i>
   <i name="EFERMI">      0.00000000</i>
  </separator>
  <separator name="writing" >
   <i type="int" name="NWRITE">     2</i>
   <i type="logical" name="LWAVE"> T  </i>
   <i type="logical" name="LDOWNSAMPLE"> F  </i>
   <i type="logical" name="LCHARG"> T  </i>
   <i type="logical" name="LPARD"> F  </i>
   <i type="logical" name="LVTOT"> T  </i>
   <i type="logical" name="LVHAR"> F  </i>
   <i type="logical" name="LELF"> F  </i>
   <i type="logical" name="LOPTICS"> F  </i>
   <v name="STM">      0.00000000      0.00000000      0.00000000      0.00000000      0.00000000      0.00000000      0.00000000</v>
  </separator>
  <separator name="performance" >
   <i type="int" name="NPAR">    12</i>
   <i type="int" name="NSIM">     4</i>
   <i type="int" name="NBLK">    -1</i>
   <i type="logical" name="LPLANE"> T  </i>
   <i type="logical" name="LSCALAPACK"> T  </i>
   <i type="logical" name="LSCAAWARE"> F  </i>
   <i type="logical" name="LSCALU"> F  </i>
   <i type="logical" name="LASYNC"> F  </i>
   <i type="logical" name="LORBITALREAL"> F  </i>
  </separator>
  <separator name="miscellaneous" >
   <i type="int" name="IDIOT">     3</i>
   <i type="int" name="PHON_NSTRUCT">    -1</i>
   <i type="logical" name="LMUSIC"> F  </i>
   <v name="POMASS">     63.54600000    121.75000000     32.06600000</v>
   <v name="DARWINR">      0.00000000      0.00000000      0.00000000</v>
   <v name="DARWINV">      1.00000000      1.00000000      1.00000000</v>
   <i type="logical" name="LCORR"> T  </i>
  </separator>
  <i type="logical" name="GGA_COMPAT"> T  </i>
  <i type="logical" name="LBERRY"> F  </i>
  <i type="int" name="ICORELEVEL">     0</i>
  <i type="logical" name="LDAU"> F  </i>
  <i type="int" name="I_CONSTRAINED_M">     0</i>
  <separator name="electronic exchange-correlation" >
   <i type="string" name="GGA">PS</i>
   <i type="int" name="VOSKOWN">     0</i>
   <i type="logical" name="LHFCALC"> F  </i>
   <i type="string" name="PRECFOCK"></i>
   <i type="logical" name="LSYMGRAD"> F  </i>
   <i type="logical" name="LHFONE"> F  </i>
   <i type="logical" name="LRHFCALC"> F  </i>
   <i type="logical" name="LTHOMAS"> F  </i>
   <i type="logical" name="LMODELHF"> F  </i>
   <i type="logical" name="LFOCKACE"> F  </i>
   <i name="ENCUT4O">     -1.00000000</i>
   <i type="int" name="EXXOEP">     0</i>
   <i type="int" name="FOURORBIT">     0</i>
   <i name="AEXX">      0.00000000</i>
   <i name="HFALPHA">      0.00000000</i>
   <i name="MCALPHA">      0.00000000</i>
   <i name="ALDAX">      1.00000000</i>
   <i name="AGGAX">      1.00000000</i>
   <i name="ALDAC">      1.00000000</i>
   <i name="AGGAC">      1.00000000</i>
   <i type="int" name="NKREDX">     1</i>
   <i type="int" name="NKREDY">     1</i>
   <i type="int" name="NKREDZ">     1</i>
   <i type="logical" name="SHIFTRED"> F  </i>
   <i type="logical" name="ODDONLY"> F  </i>
   <i type="logical" name="EVENONLY"> F  </i>
   <i type="int" name="LMAXFOCK">     0</i>
   <i type="int" name="NMAXFOCKAE">     0</i>
   <i type="logical" name="LFOCKAEDFT"> F  </i>
   <i name="HFSCREEN">      0.00000000</i>
   <i name="HFSCREENC">      0.00000000</i>
   <i type="int" name="NBANDSGWLOW">     0</i>
  </separator>
  <separator name="vdW DFT" >
   <i type="logical" name="LUSE_VDW"> F  </i>
   <i type="int" name="IVDW_NL">     1</i>
   <i type="logical" name="LSPIN_VDW"> F  </i>
   <i name="Zab_VDW">     -0.84910000</i>
   <i name="PARAM1">      0.12340000</i>
   <i name="PARAM2">      1.00000000</i>
   <i name="PARAM3">      0.00000000</i>
  </separator>
  <separator name="model GW" >
   <i type="int" name="MODEL_GW">     0</i>
   <i name="MODEL_EPS0">     12.54913108</i>
   <i name="MODEL_ALPHA">      1.00000000</i>
  </separator>
  <separator name="linear response parameters" >
   <i type="logical" name="LEPSILON"> F  </i>
   <i type="logical" name="LRPA"> F  </i>
   <i type="logical" name="LNABLA"> F  </i>
   <i type="logical" name="LVEL"> F  </i>
   <i name="CSHIFT">      0.10000000</i>
   <i name="OMEGAMAX">     -1.00000000</i>
   <i name="DEG_THRESHOLD">      0.00200000</i>
   <i name="RTIME">     -0.10000000</i>
   <i name="WPLASMAI">      0.00000000</i>
   <v name="DFIELD">      0.00000000      0.00000000      0.00000000</v>
   <v name="WPLASMA">      0.00000000      0.00000000      0.00000000      0.00000000      0.00000000      0.00000000      0.00000000      0.00000000      0.00000000</v>
  </separator>
  <separator name="orbital magnetization" >
   <i type="logical" name="NUCIND"> F  </i>
   <v name="MAGPOS">      0.00000000      0.00000000      0.00000000</v>
   <i type="logical" name="LNICSALL"> T  </i>
   <i type="logical" name="ORBITALMAG"> F  </i>
   <i type="logical" name="LMAGBLOCH"> F  </i>
   <i type="logical" name="LCHIMAG"> F  </i>
   <i type="logical" name="LGAUGE"> T  </i>
   <i type="int" name="MAGATOM">     0</i>
   <v name="MAGDIPOL">      0.00000000      0.00000000      0.00000000</v>
   <v name="AVECCONST">      0.00000000      0.00000000      0.00000000</v>
  </separator>
  <separator name="response functions" >
   <i type="logical" name="LALL_IN_ONE"> F  </i>
   <i type="int" name="IALL_IN_ONE">    -1</i>
   <i type="int" name="NBANDS_WAVE">    -1</i>
   <i type="logical" name="LFINITE_TEMPERATURE"> F  </i>
   <i type="logical" name="LADDER"> F  </i>
   <i type="logical" name="LRPAFORCE"> F  </i>
   <i type="logical" name="LFXC"> F  </i>
   <i type="logical" name="LHARTREE"> T  </i>
   <i type="int" name="IBSE">     0</i>
   <v type="int" name="KPOINT">    -1     0     0     0</v>
   <i type="logical" name="LTCTC"> F  </i>
   <i type="logical" name="LTCTE"> F  </i>
   <i type="logical" name="LTETE"> F  </i>
   <i type="logical" name="LTRIPLET"> F  </i>
   <i type="logical" name="LFXCEPS"> F  </i>
   <i type="logical" name="LFXHEG"> F  </i>
   <i type="int" name="NATURALO">     2</i>
   <i type="logical" name="LHOLEGF"> F  </i>
   <i type="logical" name="L2ORDER"> F  </i>
   <i type="logical" name="LDMP1"> F  </i>
   <i type="logical" name="LMP2LT"> F  </i>
   <i type="logical" name="LSMP2LT"> F  </i>
   <i type="logical" name="LGWLF"> F  </i>
   <i name="ENCUTGW">     -1.60000002</i>
   <i name="ENCUTGWSOFT">     -1.60000002</i>
   <i name="ENCUTLF">     -1.00000000</i>
   <i type="logical" name="LESF_SPLINES"> F  </i>
   <i type="int" name="LMAXMP2">    -1</i>
   <i name="SCISSOR">      0.00000000</i>
   <i type="int" name="NOMEGA">     0</i>
   <i type="int" name="NOMEGAR">     0</i>
   <i type="int" name="NBANDSGW">    -1</i>
   <i type="int" name="NBANDSO">    -1</i>
   <i type="int" name="NBANDSV">    -1</i>
   <i type="int" name="NELMGW">     1</i>
   <i type="int" name="NELMHF">     1</i>
   <i type="int" name="DIM">     3</i>
   <i type="int" name="IESPILON">     4</i>
   <i type="int" name="ANTIRES">     0</i>
   <i name="OMEGAMAX">    -30.00000000</i>
   <i name="OMEGAMIN">    -30.00000000</i>
   <i name="OMEGATL">   -200.00000000</i>
   <i type="int" name="OMEGAGRID">     0</i>
   <i name="CSHIFT">     -0.10000000</i>
   <i type="logical" name="LSELFENERGY"> F  </i>
   <i type="logical" name="LSPECTRAL"> F  </i>
   <i type="logical" name="LSPECTRALGW"> F  </i>
   <i type="logical" name="LSINGLES"> F  </i>
   <i type="logical" name="LFERMIGW"> F  </i>
   <i type="logical" name="ODDONLYGW"> F  </i>
   <i type="logical" name="EVENONLYGW"> F  </i>
   <i type="int" name="NKREDLFX">     1</i>
   <i type="int" name="NKREDLFY">     1</i>
   <i type="int" name="NKREDLFZ">     1</i>
   <i type="int" name="MAXMEM">  2800</i>
   <i type="int" name="TELESCOPE">     0</i>
   <i type="int" name="NTAUPAR">    -1</i>
   <i type="int" name="NOMEGAPAR">    -1</i>
   <i name="DAMP_NEWTON">      0.80000001</i>
   <i name="LAMBDA">      1.00000000</i>
  </separator>
  <separator name="External order field" >
   <i name="OFIELD_KAPPA">      0.00000000</i>
   <v name="OFIELD_K">      0.00000000      0.00000000      0.00000000</v>
   <i name="OFIELD_Q6_NEAR">      0.00000000</i>
   <i name="OFIELD_Q6_FAR">      0.00000000</i>
   <i name="OFIELD_A">      0.00000000</i>
  </separator>
  <separator name="optional k-points parameters" >
   <i type="int" name="KPOINTS_OPT_MODE">     1</i>
   <i type="logical" name="LKPOINTS_OPT"> F  </i>
  </separator>
 </parameters>
 <atominfo>
  <atoms>      16 </atoms>
  <types>       3 </types>
  <array name="atoms" >
   <dimension dim="1">ion</dimension>
   <field type="string">element</field>
   <field type="int">atomtype</field>
   <set>
    <rc><c>Cu</c><c>   1</c></rc>
    <rc><c>Cu</c><c>   1</c></rc>
    <rc><c>Cu</c><c>   1</c></rc>
    <rc><c>Cu</c><c>   1</c></rc>
    <rc><c>Sb</c><c>   2</c></rc>
    <rc><c>Sb</c><c>   2</c></rc>
    <rc><c>Sb</c><c>   2</c></rc>
    <rc><c>Sb</c><c>   2</c></rc>
    <rc><c>S </c><c>   3</c></rc>
    <rc><c>S </c><c>   3</c></rc>
    <rc><c>S </c><c>   3</c></rc>
    <rc><c>S </c><c>   3</c></rc>
    <rc><c>S </c><c>   3</c></rc>
    <rc><c>S </c><c>   3</c></rc>
    <rc><c>S </c><c>   3</c></rc>
    <rc><c>S </c><c>   3</c></rc>
   </set>
  </array>
  <array name="atomtypes" >
   <dimension dim="1">type</dimension>
   <field type="int">atomspertype</field>
   <field type="string">element</field>
   <field>mass</field>
   <field>valence</field>
   <field type="string">pseudopotential</field>
   <set>
    <rc><c>   4</c><c>Cu</c><c>     63.54600000</c><c>     11.00000000</c><c>  PAW_PBE Cu 22Jun2005                  </c></rc>
    <rc><c>   4</c><c>Sb</c><c>    121.75000000</c><c>      5.00000000</c><c>  PAW_PBE Sb 06Sep2000                  </c></rc>
    <rc><c>   8</c><c>S </c><c>     32.06600000</c><c>      6.00000000</c><c>  PAW_PBE S 06Sep2000                   </c></rc>
   </set>
  </array>
 </atominfo>
 <structure name="initialpos" >
  <crystal>
   <varray name="basis" >
    <v>       3.80157474       0.00000000       0.00000000 </v>
    <v>      -0.00000000       6.07432056       0.00000000 </v>
    <v>       0.00000000       0.00000000      14.49176048 </v>
   </varray>
   <i name="volume">    334.64349539 </i>
   <varray name="rec_basis" >
    <v>       0.26304889       0.00000000       0.00000000 </v>
    <v>       0.00000000       0.16462747       0.00000000 </v>
    <v>      -0.00000000      -0.00000000       0.06900473 </v>
   </varray>
  </crystal>
  <varray name="positions" >
   <v>       0.25000000       0.25010162       0.82821842 </v>
   <v>       0.25000000       0.75010162       0.67178158 </v>
   <v>       0.75000000       0.74989838       0.17178158 </v>
   <v>       0.75000000       0.24989838       0.32821842 </v>
   <v>       0.25000000       0.72881200       0.43458741 </v>
   <v>       0.75000000       0.27118800       0.56541259 </v>
   <v>       0.25000000       0.22881200       0.06541259 </v>
   <v>       0.75000000       0.77118800       0.93458741 </v>
   <v>       0.25000000       0.12368586       0.40104516 </v>
   <v>       0.75000000       0.87631414       0.59895484 </v>
   <v>       0.25000000       0.62368586       0.09895484 </v>
   <v>       0.75000000       0.37631414       0.90104516 </v>
   <v>       0.75000000       0.62427265       0.32157721 </v>
   <v>       0.25000000       0.87572735       0.82157721 </v>
   <v>       0.75000000       0.12427265       0.17842279 </v>
   <v>       0.25000000       0.37572735       0.67842279 </v>
  </varray>
 </structure>
 <calculation>
  <scstep>
   <time name="dav">    1.11    1.12</time>
   <time name="total">    1.58    1.59</time>
   <energy>
    <i name="alphaZ">    140.40642575 </i>
    <i name="ewald">  -5671.52231121 </i>
    <i name="hartreedc">  -2980.89971617 </i>
    <i name="XCdc">    106.15872711 </i>
    <i name="pawpsdc">   7298.03152464 </i>
    <i name="pawaedc">  -7481.74669141 </i>
    <i name="eentropy">      0.00000000 </i>
    <i name="bandstr">   1323.42354002 </i>
    <i name="atom">   8369.31508255 </i>
    <i name="e_fr_energy">   1103.16658127 </i>
    <i name="e_wo_entrp">   1103.16658127 </i>
    <i name="e_0_energy">   1103.16658127 </i>
   </energy>
  </scstep>
  <scstep>
   <time name="dav">    1.06    1.06</time>
   <time name="total">    1.07    1.08</time>
   <energy>
    <i name="e_fr_energy">    103.35393890 </i>
    <i name="e_wo_entrp">    103.35393890 </i>
    <i name="e_0_energy">    103.35393890 </i>
   </energy>
  </scstep>
  <scstep>
   <time name="dav">    1.36    1.37</time>
   <time name="total">    1.37    1.39</time>
   <energy>
    <i name="e_fr_energy">    -65.76795868 </i>
    <i name="e_wo_entrp">    -65.76795868 </i>
    <i name="e_0_energy">    -65.76795868 </i>
   </energy>
  </scstep>
  <scstep>
   <time name="dav">    1.41    1.43</time>
   <time name="total">    1.43    1.44</time>
   <energy>
    <i name="e_fr_energy">    -79.31563642 </i>
    <i name="e_wo_entrp">    -79.31563642 </i>
    <i name="e_0_energy">    -79.31563642 </i>
   </energy>
  </scstep>
  <scstep>
   <time name="dav">    1.40    1.42</time>
   <time name="total">    1.50    1.52</time>
   <energy>
    <i name="e_fr_energy">    -79.55629245 </i>
    <i name="e_wo_entrp">    -79.55629245 </i>
    <i name="e_0_energy">    -79.55629245 </i>
   </energy>
  </scstep>
  <scstep>
   <time name="diag">    0.27    0.27</time>
   <time name="diis">    0.60    0.60</time>
   <time name="orth">    0.04    0.04</time>
   <time name="total">    1.43    1.45</time>
   <energy>
    <i name="e_fr_energy">    -79.62120991 </i>
    <i name="e_wo_entrp">    -79.62120991 </i>
    <i name="e_0_energy">    -79.62120991 </i>
   </energy>
  </scstep>
  <scstep>
   <time name="diag">    0.27    0.27</time>
   <time name="diis">    0.53    0.53</time>
   <time name="orth">    0.04    0.04</time>
   <time name="total">    1.35    1.37</time>
   <energy>
    <i name="e_fr_energy">    -73.88345097 </i>
    <i name="e_wo_entrp">    -73.88345097 </i>
    <i name="e_0_energy">    -73.88345097 </i>
   </energy>
  </scstep>
  <scstep>
   <time name="diag">    0.27    0.27</time>
   <time name="diis">    0.64    0.64</time>
   <time name="orth">    0.04    0.04</time>
   <time name="total">    1.48    1.49</time>
   <energy>
    <i name="e_fr_energy">    -74.91936544 </i>
    <i name="e_wo_entrp">    -74.91936544 </i>
    <i name="e_0_energy">    -74.91936544 </i>
   </energy>
  </scstep>
  <scstep>
   <time name="diag">    0.28    0.28</time>
   <time name="diis">    0.57    0.57</time>
   <time name="orth">    0.04    0.04</time>
   <time name="total">    1.43    1.44</time>
   <energy>
    <i name="e_fr_energy">    -75.05316128 </i>
    <i name="e_wo_entrp">    -75.05316128 </i>
    <i name="e_0_energy">    -75.05316128 </i>
   </energy>
  </scstep>
  <scstep>
   <time name="diag">    0.29    0.29</time>
   <time name="diis">    0.58    0.58</time>
   <time name="orth">    0.04    0.04</time>
   <time name="total">    1.46    1.47</time>
   <energy>
    <i name="e_fr_energy">    -74.93382472 </i>
    <i name="e_wo_entrp">    -74.93382472 </i>
    <i name="e_0_energy">    -74.93382472 </i>
   </energy>
  </scstep>
  <scstep>
   <time name="diag">    0.31    0.31</time>
   <time name="diis">    0.69    0.69</time>
   <time name="orth">    0.04    0.04</time>
   <time name="total">    1.57    1.59</time>
   <energy>
    <i name="e_fr_energy">    -74.95400878 </i>
    <i name="e_wo_entrp">    -74.95400878 </i>
    <i name="e_0_energy">    -74.95400878 </i>
   </energy>
  </scstep>
  <scstep>
   <time name="diag">    0.29    0.29</time>
   <time name="diis">    0.61    0.61</time>
   <time name="orth">    0.04    0.04</time>
   <time name="total">    1.49    1.51</time>
   <energy>
    <i name="e_fr_energy">    -74.99378677 </i>
    <i name="e_wo_entrp">    -74.99378677 </i>
    <i name="e_0_energy">    -74.99378677 </i>
   </energy>
  </scstep>
  <scstep>
   <time name="diag">    0.27    0.27</time>
   <time name="diis">    0.63    0.63</time>
   <time name="orth">    0.04    0.04</time>
   <time name="total">    1.45    1.47</time>
   <energy>
    <i name="e_fr_energy">    -74.98807142 </i>
    <i name="e_wo_entrp">    -74.98807142 </i>
    <i name="e_0_energy">    -74.98807142 </i>
   </energy>
  </scstep>
  <scstep>
   <time name="diag">    0.27    0.27</time>
   <time name="diis">    0.64    0.64</time>
   <time name="orth">    0.04    0.04</time>
   <time name="total">    1.46    1.48</time>
   <energy>
    <i name="e_fr_energy">    -74.99012249 </i>
    <i name="e_wo_entrp">    -74.99012249 </i>
    <i name="e_0_energy">    -74.99012249 </i>
   </energy>
  </scstep>
  <scstep>
   <time name="diag">    0.27    0.27</time>
   <time name="diis">    0.67    0.68</time>
   <time name="orth">    0.04    0.04</time>
   <time name="total">    1.51    1.53</time>
   <energy>
    <i name="e_fr_energy">    -74.99105261 </i>
    <i name="e_wo_entrp">    -74.99105261 </i>
    <i name="e_0_energy">    -74.99105261 </i>
   </energy>
  </scstep>
  <scstep>
   <time name="diag">    0.27    0.27</time>
   <time name="diis">    0.68    0.68</time>
   <time name="orth">    0.04    0.04</time>
   <time name="total">    1.51    1.52</time>
   <energy>
    <i name="e_fr_energy">    -74.99109577 </i>
    <i name="e_wo_entrp">    -74.99109577 </i>
    <i name="e_0_energy">    -74.99109577 </i>
   </energy>
  </scstep>
  <scstep>
   <time name="diag">    0.27    0.27</time>
   <time name="diis">    0.59    0.59</time>
   <time name="orth">    0.04    0.04</time>
   <time name="total">    1.45    1.46</time>
   <energy>
    <i name="e_fr_energy">    -74.99110830 </i>
    <i name="e_wo_entrp">    -74.99110830 </i>
    <i name="e_0_energy">    -74.99110830 </i>
   </energy>
  </scstep>
  <scstep>
   <time name="diag">    0.28    0.28</time>
   <time name="diis">    0.48    0.48</time>
   <time name="orth">    0.05    0.05</time>
   <time name="total">    1.25    1.27</time>
   <energy>
    <i name="alphaZ">    140.40642575 </i>
    <i name="ewald">  -5671.52231121 </i>
    <i name="hartreedc">  -2933.95939893 </i>
    <i name="XCdc">    104.62888039 </i>
    <i name="pawpsdc">  10770.37058203 </i>
    <i name="pawaedc"> -10962.16067177 </i>
    <i name="eentropy">      0.00000000 </i>
    <i name="bandstr">    107.93029995 </i>
    <i name="atom">   8369.31508255 </i>
    <i name="e_fr_energy">    -74.99111126 </i>
    <i name="e_wo_entrp">    -74.99111126 </i>
    <i name="e_0_energy">    -74.99111126 </i>
   </energy>
  </scstep>
  <structure>
   <crystal>
    <varray name="basis" >
     <v>       3.80157474       0.00000000       0.00000000 </v>
     <v>      -0.00000000       6.07432056       0.00000000 </v>
     <v>       0.00000000       0.00000000      14.49176048 </v>
    </varray>
    <i name="volume">    334.64349539 </i>
    <varray name="rec_basis" >
     <v>       0.26304889       0.00000000       0.00000000 </v>
     <v>       0.00000000       0.16462747       0.00000000 </v>
     <v>      -0.00000000      -0.00000000       0.06900473 </v>
    </varray>
   </crystal>
   <varray name="positions" >
    <v>       0.25000000       0.25010162       0.82821842 </v>
    <v>       0.25000000       0.75010162       0.67178158 </v>
    <v>       0.75000000       0.74989838       0.17178158 </v>
    <v>       0.75000000       0.24989838       0.32821842 </v>
    <v>       0.25000000       0.72881200       0.43458741 </v>
    <v>       0.75000000       0.27118800       0.56541259 </v>
    <v>       0.25000000       0.22881200       0.06541259 </v>
    <v>       0.75000000       0.77118800       0.93458741 </v>
    <v>       0.25000000       0.12368586       0.40104516 </v>
    <v>       0.75000000       0.87631414       0.59895484 </v>
    <v>       0.25000000       0.62368586       0.09895484 </v>
    <v>       0.75000000       0.37631414       0.90104516 </v>
    <v>       0.75000000       0.62427265       0.32157721 </v>
    <v>       0.25000000       0.87572735       0.82157721 </v>
    <v>       0.75000000       0.12427265       0.17842279 </v>
    <v>       0.25000000       0.37572735       0.67842279 </v>
   </varray>
  </structure>
  <varray name="forces" >
   <v>      -0.00000000       0.01719957      -0.00198683 </v>
   <v>      -0.00000000       0.01719957       0.00198683 </v>
   <v>       0.00000000      -0.01719957       0.00198683 </v>
   <v>       0.00000000      -0.01719957      -0.00198683 </v>
   <v>       0.00000000      -0.08840811       0.20914636 </v>
   <v>      -0.00000000       0.08840811      -0.20914636 </v>
   <v>       0.00000000      -0.08840811      -0.20914636 </v>
   <v>      -0.00000000       0.08840811       0.20914636 </v>
   <v>      -0.00000000       0.24039972      -0.01595211 </v>
   <v>       0.00000000      -0.24039972       0.01595211 </v>
   <v>      -0.00000000       0.24039972       0.01595211 </v>
   <v>       0.00000000      -0.24039972      -0.01595211 </v>
   <v>       0.00000000      -0.08558225      -0.13714887 </v>
   <v>      -0.00000000       0.08558225      -0.13714887 </v>
   <v>       0.00000000      -0.08558225       0.13714887 </v>
   <v>      -0.00000000       0.08558225       0.13714887 </v>
  </varray>
  <varray name="stress" >
   <v>     -16.88274582       0.00000000      -0.00000000 </v>
   <v>       0.00000000     -11.82865885      -0.00000000 </v>
   <v>      -0.00000000      -0.00000000     -19.33889085 </v>
  </varray>
  <energy>
   <i name="e_fr_energy">    -74.99111126 </i>
   <i name="e_wo_entrp">    -74.99111126 </i>
   <i name="e_0_energy">    -74.99111126 </i>
  </energy>
  <time name="totalsc">   31.52   31.86</time>
  <eigenvalues>
   <array>
    <dimension dim="1">band</dimension>
    <dimension dim="2">kpoint</dimension>
    <dimension dim="3">spin</dimension>
    <field>eigene</field>
    <field>occ</field>
    <set>
     <set comment="spin 1">
      <set comment="kpoint 1">
       <r>   -8.9662    1.0000 </r>
       <r>   -8.6750    1.0000 </r>
       <r>   -8.5627    1.0000 </r>
       <r>   -8.1701    1.0000 </r>
       <r>   -7.3229    1.0000 </r>
       <r>   -7.2045    1.0000 </r>
       <r>   -7.0626    1.0000 </r>
       <r>   -6.8745    1.0000 </r>
       <r>   -3.4251    1.0000 </r>
       <r>   -3.2434    1.0000 </r>
       <r>   -3.1996    1.0000 </r>
       <r>   -2.7553    1.0000 </r>
       <r>   -0.5694    1.0000 </r>
       <r>   -0.1559    1.0000 </r>
       <r>    0.2902    1.0000 </r>
       <r>    0.7064    1.0000 </r>
       <r>    0.8500    1.0000 </r>
       <r>    1.3936    1.0000 </r>
       <r>    1.6554    1.0000 </r>
       <r>    1.6905    1.0000 </r>
       <r>    1.7493    1.0000 </r>
       <r>    1.8887    1.0000 </r>
       <r>    2.0667    1.0000 </r>
       <r>    2.0925    1.0000 </r>
       <r>    2.0966    1.0000 </r>
       <r>    2.1248    1.0000 </r>
       <r>    2.1626    1.0000 </r>
       <r>    2.2414    1.0000 </r>
       <r>    2.2886    1.0000 </r>
       <r>    2.3588    1.0000 </r>
       <r>    2.3916    1.0000 </r>
       <r>    2.4648    1.0000 </r>
       <r>    3.0346    1.0000 </r>
       <r>    3.1137    1.0000 </r>
       <r>    3.1463    1.0000 </r>
       <r>    3.4787    1.0000 </r>
       <r>    3.6767    1.0000 </r>
       <r>    3.6794    1.0000 </r>
       <r>    3.7111    1.0000 </r>
       <r>    3.7716    1.0000 </r>
       <r>    3.9241    1.0000 </r>
       <r>    3.9605    1.0000 </r>
       <r>    3.9933    1.0000 </r>
       <r>    4.0103    1.0000 </r>
       <r>    4.3339    1.0000 </r>
       <r>    4.4027    1.0000 </r>
       <r>    4.5957    1.0000 </r>
       <r>    4.9437    1.0000 </r>
       <r>    5.1559    1.0000 </r>
       <r>    5.4837    1.0000 </r>
       <r>    5.4935    1.0000 </r>
       <r>    5.5557    1.0000 </r>
       <r>    5.6071    1.0000 </r>
       <r>    5.6550    1.0000 </r>
       <r>    5.6751    1.0000 </r>
       <r>    5.8094    1.0000 </r>
       <r>    6.6394    0.0000 </r>
       <r>    6.9823    0.0000 </r>
       <r>    7.0061    0.0000 </r>
       <r>    7.3344    0.0000 </r>
       <r>    7.8321    0.0000 </r>
       <r>    7.9648    0.0000 </r>
       <r>    8.2690    0.0000 </r>
       <r>    8.2810    0.0000 </r>
       <r>    8.5073    0.0000 </r>
       <r>    8.5698    0.0000 </r>
       <r>    8.7953    0.0000 </r>
       <r>    8.9518    0.0000 </r>
       <r>    9.9097    0.0000 </r>
       <r>   10.1088    0.0000 </r>
       <r>   10.4670    0.0000 </r>
       <r>   10.9720    0.0000 </r>
      </set>
      <set comment="kpoint 2">
       <r>   -8.7716    1.0000 </r>
       <r>   -8.4876    1.0000 </r>
       <r>   -8.3897    1.0000 </r>
       <r>   -8.0036    1.0000 </r>
       <r>   -7.2424    1.0000 </r>
       <r>   -7.1621    1.0000 </r>
       <r>   -7.0284    1.0000 </r>
       <r>   -6.8743    1.0000 </r>
       <r>   -3.4366    1.0000 </r>
       <r>   -3.2253    1.0000 </r>
       <r>   -3.1804    1.0000 </r>
       <r>   -2.8175    1.0000 </r>
       <r>   -0.3761    1.0000 </r>
       <r>    0.0249    1.0000 </r>
       <r>    0.3371    1.0000 </r>
       <r>    0.7450    1.0000 </r>
       <r>    0.7784    1.0000 </r>
       <r>    0.8594    1.0000 </r>
       <r>    0.9130    1.0000 </r>
       <r>    1.0797    1.0000 </r>
       <r>    1.4040    1.0000 </r>
       <r>    1.5910    1.0000 </r>
       <r>    1.6306    1.0000 </r>
       <r>    1.7627    1.0000 </r>
       <r>    1.9600    1.0000 </r>
       <r>    2.0124    1.0000 </r>
       <r>    2.0663    1.0000 </r>
       <r>    2.1221    1.0000 </r>
       <r>    2.1320    1.0000 </r>
       <r>    2.1775    1.0000 </r>
       <r>    2.3061    1.0000 </r>
       <r>    2.3524    1.0000 </r>
       <r>    3.1022    1.0000 </r>
       <r>    3.3652    1.0000 </r>
       <r>    3.3828    1.0000 </r>
       <r>    3.3981    1.0000 </r>
       <r>    3.6805    1.0000 </r>
       <r>    3.7113    1.0000 </r>
       <r>    3.7156    1.0000 </r>
       <r>    3.7421    1.0000 </r>
       <r>    3.7995    1.0000 </r>
       <r>    3.8833    1.0000 </r>
       <r>    3.9731    1.0000 </r>
       <r>    4.0499    1.0000 </r>
       <r>    4.3141    1.0000 </r>
       <r>    4.3340    1.0000 </r>
       <r>    4.4769    1.0000 </r>
       <r>    4.5343    1.0000 </r>
       <r>    4.8418    1.0000 </r>
       <r>    5.0516    1.0000 </r>
       <r>    5.2224    1.0000 </r>
       <r>    5.2298    1.0000 </r>
       <r>    5.4346    1.0000 </r>
       <r>    5.4491    1.0000 </r>
       <r>    5.4646    1.0000 </r>
       <r>    5.7067    1.0000 </r>
       <r>    7.5162    0.0000 </r>
       <r>    7.5310    0.0000 </r>
       <r>    7.5659    0.0000 </r>
       <r>    7.7460    0.0000 </r>
       <r>    7.8657    0.0000 </r>
       <r>    8.0713    0.0000 </r>
       <r>    8.1109    0.0000 </r>
       <r>    8.1261    0.0000 </r>
       <r>    8.5313    0.0000 </r>
       <r>    8.6041    0.0000 </r>
       <r>    9.1547    0.0000 </r>
       <r>    9.2071    0.0000 </r>
       <r>   10.4661    0.0000 </r>
       <r>   10.7366    0.0000 </r>
       <r>   11.0617    0.0000 </r>
       <r>   11.1401    0.0000 </r>
      </set>
      <set comment="kpoint 3">
       <r>   -8.2387    1.0000 </r>
       <r>   -7.9853    1.0000 </r>
       <r>   -7.9390    1.0000 </r>
       <r>   -7.5851    1.0000 </r>
       <r>   -7.1467    1.0000 </r>
       <r>   -7.1037    1.0000 </r>
       <r>   -7.0485    1.0000 </r>
       <r>   -7.0147    1.0000 </r>
       <r>   -3.4950    1.0000 </r>
       <r>   -3.3996    1.0000 </r>
       <r>   -3.1941    1.0000 </r>
       <r>   -3.1244    1.0000 </r>
       <r>   -0.0985    1.0000 </r>
       <r>    0.0093    1.0000 </r>
       <r>    0.0501    1.0000 </r>
       <r>    0.2671    1.0000 </r>
       <r>    0.3741    1.0000 </r>
       <r>    0.3830    1.0000 </r>
       <r>    0.4172    1.0000 </r>
       <r>    0.6109    1.0000 </r>
       <r>    1.0129    1.0000 </r>
       <r>    1.1797    1.0000 </r>
       <r>    1.1886    1.0000 </r>
       <r>    1.5197    1.0000 </r>
       <r>    1.7556    1.0000 </r>
       <r>    1.9219    1.0000 </r>
       <r>    1.9549    1.0000 </r>
       <r>    1.9668    1.0000 </r>
       <r>    2.0741    1.0000 </r>
       <r>    2.1902    1.0000 </r>
       <r>    2.5497    1.0000 </r>
       <r>    2.5613    1.0000 </r>
       <r>    2.8807    1.0000 </r>
       <r>    2.9095    1.0000 </r>
       <r>    3.1790    1.0000 </r>
       <r>    3.2761    1.0000 </r>
       <r>    3.5875    1.0000 </r>
       <r>    3.6422    1.0000 </r>
       <r>    3.6834    1.0000 </r>
       <r>    3.6848    1.0000 </r>
       <r>    3.7990    1.0000 </r>
       <r>    3.8343    1.0000 </r>
       <r>    3.8653    1.0000 </r>
       <r>    3.9095    1.0000 </r>
       <r>    4.0444    1.0000 </r>
       <r>    4.1631    1.0000 </r>
       <r>    4.2309    1.0000 </r>
       <r>    4.4735    1.0000 </r>
       <r>    4.5077    1.0000 </r>
       <r>    4.5250    1.0000 </r>
       <r>    4.5938    1.0000 </r>
       <r>    4.7603    1.0000 </r>
       <r>    4.8592    1.0000 </r>
       <r>    4.9864    1.0000 </r>
       <r>    5.1075    1.0000 </r>
       <r>    5.3510    1.0000 </r>
       <r>    7.1116    0.0000 </r>
       <r>    7.3345    0.0000 </r>
       <r>    7.7156    0.0000 </r>
       <r>    7.9768    0.0000 </r>
       <r>    8.0663    0.0000 </r>
       <r>    8.1185    0.0000 </r>
       <r>    8.4983    0.0000 </r>
       <r>    8.8525    0.0000 </r>
       <r>    8.8609    0.0000 </r>
       <r>    9.0152    0.0000 </r>
       <r>    9.2709    0.0000 </r>
       <r>    9.3587    0.0000 </r>
       <r>   10.4147    0.0000 </r>
       <r>   10.8844    0.0000 </r>
       <r>   10.9458    0.0000 </r>
       <r>   11.0423    0.0000 </r>
      </set>
      <set comment="kpoint 4">
       <r>   -7.5966    1.0000 </r>
       <r>   -7.5966    1.0000 </r>
       <r>   -7.3936    1.0000 </r>
       <r>   -7.3936    1.0000 </r>
       <r>   -7.3526    1.0000 </r>
       <r>   -7.3526    1.0000 </r>
       <r>   -7.1766    1.0000 </r>
       <r>   -7.1766    1.0000 </r>
       <r>   -3.4757    1.0000 </r>
       <r>   -3.4757    1.0000 </r>
       <r>   -3.4252    1.0000 </r>
       <r>   -3.4252    1.0000 </r>
       <r>   -0.2188    1.0000 </r>
       <r>   -0.2188    1.0000 </r>
       <r>   -0.0306    1.0000 </r>
       <r>   -0.0306    1.0000 </r>
       <r>    0.4017    1.0000 </r>
       <r>    0.4017    1.0000 </r>
       <r>    0.5152    1.0000 </r>
       <r>    0.5152    1.0000 </r>
       <r>    1.0890    1.0000 </r>
       <r>    1.0890    1.0000 </r>
       <r>    1.1374    1.0000 </r>
       <r>    1.1374    1.0000 </r>
       <r>    1.7638    1.0000 </r>
       <r>    1.7638    1.0000 </r>
       <r>    1.9203    1.0000 </r>
       <r>    1.9203    1.0000 </r>
       <r>    2.1791    1.0000 </r>
       <r>    2.1791    1.0000 </r>
       <r>    2.5358    1.0000 </r>
       <r>    2.5358    1.0000 </r>
       <r>    2.8240    1.0000 </r>
       <r>    2.8240    1.0000 </r>
       <r>    3.0292    1.0000 </r>
       <r>    3.0292    1.0000 </r>
       <r>    3.6918    1.0000 </r>
       <r>    3.6918    1.0000 </r>
       <r>    3.7075    1.0000 </r>
       <r>    3.7075    1.0000 </r>
       <r>    3.7515    1.0000 </r>
       <r>    3.7515    1.0000 </r>
       <r>    3.8594    1.0000 </r>
       <r>    3.8594    1.0000 </r>
       <r>    3.9021    1.0000 </r>
       <r>    3.9021    1.0000 </r>
       <r>    4.1466    1.0000 </r>
       <r>    4.1466    1.0000 </r>
       <r>    4.2681    1.0000 </r>
       <r>    4.2681    1.0000 </r>
       <r>    4.4353    1.0000 </r>
       <r>    4.4353    1.0000 </r>
       <r>    4.8946    1.0000 </r>
       <r>    4.8946    1.0000 </r>
       <r>    4.9654    1.0000 </r>
       <r>    4.9654    1.0000 </r>
       <r>    7.5057    0.0000 </r>
       <r>    7.5057    0.0000 </r>
       <r>    7.6300    0.0000 </r>
       <r>    7.6300    0.0000 </r>
       <r>    8.1578    0.0000 </r>
       <r>    8.1578    0.0000 </r>
       <r>    8.3819    0.0000 </r>
       <r>    8.3819    0.0000 </r>
       <r>    9.0011    0.0000 </r>
       <r>    9.0011    0.0000 </r>
       <r>    9.1894    0.0000 </r>
       <r>    9.1894    0.0000 </r>
       <r>   10.2637    0.0000 </r>
       <r>   10.2637    0.0000 </r>
       <r>   10.7967    0.0000 </r>
       <r>   10.7970    0.0000 </r>
      </set>
      <set comment="kpoint 5">
       <r>   -8.8263    1.0000 </r>
       <r>   -8.5690    1.0000 </r>
       <r>   -8.4612    1.0000 </r>
       <r>   -8.1689    1.0000 </r>
       <r>   -7.4973    1.0000 </r>
       <r>   -7.3837    1.0000 </r>
       <r>   -7.1851    1.0000 </r>
       <r>   -6.9961    1.0000 </r>
       <r>   -3.7152    1.0000 </r>
       <r>   -3.4574    1.0000 </r>
       <r>   -2.9082    1.0000 </r>
       <r>   -2.5950    1.0000 </r>
       <r>   -0.1333    1.0000 </r>
       <r>    0.3566    1.0000 </r>
       <r>    0.4084    1.0000 </r>
       <r>    0.7917    1.0000 </r>
       <r>    0.8853    1.0000 </r>
       <r>    1.3576    1.0000 </r>
       <r>    1.6780    1.0000 </r>
       <r>    1.7077    1.0000 </r>
       <r>    1.7491    1.0000 </r>
       <r>    1.7735    1.0000 </r>
       <r>    1.7996    1.0000 </r>
       <r>    2.0633    1.0000 </r>
       <r>    2.1004    1.0000 </r>
       <r>    2.1518    1.0000 </r>
       <r>    2.1841    1.0000 </r>
       <r>    2.2677    1.0000 </r>
       <r>    2.2734    1.0000 </r>
       <r>    2.3640    1.0000 </r>
       <r>    2.4886    1.0000 </r>
       <r>    2.5368    1.0000 </r>
       <r>    3.1241    1.0000 </r>
       <r>    3.1656    1.0000 </r>
       <r>    3.2920    1.0000 </r>
       <r>    3.4806    1.0000 </r>
       <r>    3.7395    1.0000 </r>
       <r>    3.7543    1.0000 </r>
       <r>    3.7649    1.0000 </r>
       <r>    3.8548    1.0000 </r>
       <r>    3.9137    1.0000 </r>
       <r>    3.9800    1.0000 </r>
       <r>    4.0150    1.0000 </r>
       <r>    4.0185    1.0000 </r>
       <r>    4.4216    1.0000 </r>
       <r>    4.5525    1.0000 </r>
       <r>    4.5793    1.0000 </r>
       <r>    4.9762    1.0000 </r>
       <r>    5.0487    1.0000 </r>
       <r>    5.0781    1.0000 </r>
       <r>    5.2302    1.0000 </r>
       <r>    5.2358    1.0000 </r>
       <r>    5.4083    1.0000 </r>
       <r>    5.4355    1.0000 </r>
       <r>    5.6674    1.0000 </r>
       <r>    5.6974    1.0000 </r>
       <r>    6.5195    0.0000 </r>
       <r>    6.5407    0.0000 </r>
       <r>    7.1575    0.0000 </r>
       <r>    7.5238    0.0000 </r>
       <r>    7.6524    0.0000 </r>
       <r>    7.7327    0.0000 </r>
       <r>    7.8364    0.0000 </r>
       <r>    8.1567    0.0000 </r>
       <r>    8.6910    0.0000 </r>
       <r>    8.9543    0.0000 </r>
       <r>    8.9789    0.0000 </r>
       <r>    9.3366    0.0000 </r>
       <r>    9.6960    0.0000 </r>
       <r>    9.7950    0.0000 </r>
       <r>   10.4552    0.0000 </r>
       <r>   10.7368    0.0000 </r>
      </set>
      <set comment="kpoint 6">
       <r>   -8.6367    1.0000 </r>
       <r>   -8.3871    1.0000 </r>
       <r>   -8.2906    1.0000 </r>
       <r>   -8.0008    1.0000 </r>
       <r>   -7.4008    1.0000 </r>
       <r>   -7.3123    1.0000 </r>
       <r>   -7.1381    1.0000 </r>
       <r>   -6.9757    1.0000 </r>
       <r>   -3.6988    1.0000 </r>
       <r>   -3.4855    1.0000 </r>
       <r>   -2.9680    1.0000 </r>
       <r>   -2.7232    1.0000 </r>
       <r>    0.0116    1.0000 </r>
       <r>    0.3185    1.0000 </r>
       <r>    0.5320    1.0000 </r>
       <r>    0.7077    1.0000 </r>
       <r>    0.8780    1.0000 </r>
       <r>    1.0138    1.0000 </r>
       <r>    1.0962    1.0000 </r>
       <r>    1.1028    1.0000 </r>
       <r>    1.3934    1.0000 </r>
       <r>    1.4551    1.0000 </r>
       <r>    1.5721    1.0000 </r>
       <r>    1.7441    1.0000 </r>
       <r>    1.8759    1.0000 </r>
       <r>    1.9338    1.0000 </r>
       <r>    2.1128    1.0000 </r>
       <r>    2.1312    1.0000 </r>
       <r>    2.2482    1.0000 </r>
       <r>    2.2820    1.0000 </r>
       <r>    2.3454    1.0000 </r>
       <r>    2.3959    1.0000 </r>
       <r>    3.0937    1.0000 </r>
       <r>    3.2036    1.0000 </r>
       <r>    3.5230    1.0000 </r>
       <r>    3.5244    1.0000 </r>
       <r>    3.7003    1.0000 </r>
       <r>    3.7464    1.0000 </r>
       <r>    3.7613    1.0000 </r>
       <r>    3.8161    1.0000 </r>
       <r>    3.8720    1.0000 </r>
       <r>    3.9102    1.0000 </r>
       <r>    3.9698    1.0000 </r>
       <r>    4.0578    1.0000 </r>
       <r>    4.4165    1.0000 </r>
       <r>    4.4230    1.0000 </r>
       <r>    4.4602    1.0000 </r>
       <r>    4.6278    1.0000 </r>
       <r>    4.7766    1.0000 </r>
       <r>    4.9080    1.0000 </r>
       <r>    4.9265    1.0000 </r>
       <r>    5.2519    1.0000 </r>
       <r>    5.2909    1.0000 </r>
       <r>    5.3122    1.0000 </r>
       <r>    5.3496    1.0000 </r>
       <r>    5.5480    1.0000 </r>
       <r>    7.0250    0.0000 </r>
       <r>    7.2433    0.0000 </r>
       <r>    7.4775    0.0000 </r>
       <r>    7.5258    0.0000 </r>
       <r>    7.8666    0.0000 </r>
       <r>    7.9099    0.0000 </r>
       <r>    8.1987    0.0000 </r>
       <r>    8.2840    0.0000 </r>
       <r>    8.4013    0.0000 </r>
       <r>    8.4915    0.0000 </r>
       <r>    9.1248    0.0000 </r>
       <r>    9.2791    0.0000 </r>
       <r>   10.4263    0.0000 </r>
       <r>   10.8054    0.0000 </r>
       <r>   10.8266    0.0000 </r>
       <r>   11.0700    0.0000 </r>
      </set>
      <set comment="kpoint 7">
       <r>   -8.1238    1.0000 </r>
       <r>   -7.9070    1.0000 </r>
       <r>   -7.8539    1.0000 </r>
       <r>   -7.5827    1.0000 </r>
       <r>   -7.2127    1.0000 </r>
       <r>   -7.2106    1.0000 </r>
       <r>   -7.1109    1.0000 </r>
       <r>   -7.0448    1.0000 </r>
       <r>   -3.7379    1.0000 </r>
       <r>   -3.6504    1.0000 </r>
       <r>   -3.2607    1.0000 </r>
       <r>   -3.2090    1.0000 </r>
       <r>   -0.1569    1.0000 </r>
       <r>   -0.0354    1.0000 </r>
       <r>   -0.0071    1.0000 </r>
       <r>    0.3310    1.0000 </r>
       <r>    0.5260    1.0000 </r>
       <r>    0.6562    1.0000 </r>
       <r>    0.7997    1.0000 </r>
       <r>    0.9001    1.0000 </r>
       <r>    1.0087    1.0000 </r>
       <r>    1.2758    1.0000 </r>
       <r>    1.3440    1.0000 </r>
       <r>    1.3595    1.0000 </r>
       <r>    1.7326    1.0000 </r>
       <r>    1.8757    1.0000 </r>
       <r>    2.0346    1.0000 </r>
       <r>    2.1661    1.0000 </r>
       <r>    2.2820    1.0000 </r>
       <r>    2.3117    1.0000 </r>
       <r>    2.5454    1.0000 </r>
       <r>    2.5689    1.0000 </r>
       <r>    2.7880    1.0000 </r>
       <r>    2.8776    1.0000 </r>
       <r>    3.2349    1.0000 </r>
       <r>    3.4602    1.0000 </r>
       <r>    3.6415    1.0000 </r>
       <r>    3.6646    1.0000 </r>
       <r>    3.7018    1.0000 </r>
       <r>    3.7715    1.0000 </r>
       <r>    3.8216    1.0000 </r>
       <r>    3.8543    1.0000 </r>
       <r>    3.8591    1.0000 </r>
       <r>    4.0205    1.0000 </r>
       <r>    4.1145    1.0000 </r>
       <r>    4.1732    1.0000 </r>
       <r>    4.3122    1.0000 </r>
       <r>    4.3622    1.0000 </r>
       <r>    4.3918    1.0000 </r>
       <r>    4.5321    1.0000 </r>
       <r>    4.5754    1.0000 </r>
       <r>    4.7178    1.0000 </r>
       <r>    4.9759    1.0000 </r>
       <r>    5.0768    1.0000 </r>
       <r>    5.2047    1.0000 </r>
       <r>    5.2336    1.0000 </r>
       <r>    6.7978    0.0000 </r>
       <r>    7.1430    0.0000 </r>
       <r>    7.3595    0.0000 </r>
       <r>    7.6335    0.0000 </r>
       <r>    7.8426    0.0000 </r>
       <r>    8.1618    0.0000 </r>
       <r>    8.2867    0.0000 </r>
       <r>    8.4754    0.0000 </r>
       <r>    8.8343    0.0000 </r>
       <r>    8.8466    0.0000 </r>
       <r>    8.9894    0.0000 </r>
       <r>    9.1027    0.0000 </r>
       <r>   10.1922    0.0000 </r>
       <r>   10.6354    0.0000 </r>
       <r>   10.7952    0.0000 </r>
       <r>   11.1200    0.0000 </r>
      </set>
      <set comment="kpoint 8">
       <r>   -7.5359    1.0000 </r>
       <r>   -7.5359    1.0000 </r>
       <r>   -7.3673    1.0000 </r>
       <r>   -7.3673    1.0000 </r>
       <r>   -7.3171    1.0000 </r>
       <r>   -7.3171    1.0000 </r>
       <r>   -7.2159    1.0000 </r>
       <r>   -7.2159    1.0000 </r>
       <r>   -3.6921    1.0000 </r>
       <r>   -3.6921    1.0000 </r>
       <r>   -3.6588    1.0000 </r>
       <r>   -3.6588    1.0000 </r>
       <r>   -0.3395    1.0000 </r>
       <r>   -0.3395    1.0000 </r>
       <r>   -0.0600    1.0000 </r>
       <r>   -0.0600    1.0000 </r>
       <r>    0.4680    1.0000 </r>
       <r>    0.4680    1.0000 </r>
       <r>    0.8383    1.0000 </r>
       <r>    0.8383    1.0000 </r>
       <r>    1.2465    1.0000 </r>
       <r>    1.2465    1.0000 </r>
       <r>    1.2674    1.0000 </r>
       <r>    1.2674    1.0000 </r>
       <r>    1.8274    1.0000 </r>
       <r>    1.8274    1.0000 </r>
       <r>    2.0439    1.0000 </r>
       <r>    2.0439    1.0000 </r>
       <r>    2.3335    1.0000 </r>
       <r>    2.3335    1.0000 </r>
       <r>    2.5300    1.0000 </r>
       <r>    2.5300    1.0000 </r>
       <r>    2.9573    1.0000 </r>
       <r>    2.9573    1.0000 </r>
       <r>    3.0455    1.0000 </r>
       <r>    3.0455    1.0000 </r>
       <r>    3.7154    1.0000 </r>
       <r>    3.7154    1.0000 </r>
       <r>    3.7217    1.0000 </r>
       <r>    3.7217    1.0000 </r>
       <r>    3.7970    1.0000 </r>
       <r>    3.7970    1.0000 </r>
       <r>    3.8749    1.0000 </r>
       <r>    3.8749    1.0000 </r>
       <r>    4.0504    1.0000 </r>
       <r>    4.0504    1.0000 </r>
       <r>    4.2096    1.0000 </r>
       <r>    4.2096    1.0000 </r>
       <r>    4.2170    1.0000 </r>
       <r>    4.2170    1.0000 </r>
       <r>    4.5029    1.0000 </r>
       <r>    4.5029    1.0000 </r>
       <r>    4.7564    1.0000 </r>
       <r>    4.7564    1.0000 </r>
       <r>    5.0029    1.0000 </r>
       <r>    5.0029    1.0000 </r>
       <r>    7.2332    0.0000 </r>
       <r>    7.2332    0.0000 </r>
       <r>    7.4427    0.0000 </r>
       <r>    7.4427    0.0000 </r>
       <r>    8.1207    0.0000 </r>
       <r>    8.1207    0.0000 </r>
       <r>    8.3002    0.0000 </r>
       <r>    8.3002    0.0000 </r>
       <r>    8.6488    0.0000 </r>
       <r>    8.6488    0.0000 </r>
       <r>    8.6581    0.0000 </r>
       <r>    8.6581    0.0000 </r>
       <r>   10.3197    0.0000 </r>
       <r>   10.3199    0.0000 </r>
       <r>   10.4130    0.0000 </r>
       <r>   10.4136    0.0000 </r>
      </set>
      <set comment="kpoint 9">
       <r>   -8.5171    1.0000 </r>
       <r>   -8.5171    1.0000 </r>
       <r>   -8.2955    1.0000 </r>
       <r>   -8.2955    1.0000 </r>
       <r>   -7.6318    1.0000 </r>
       <r>   -7.6318    1.0000 </r>
       <r>   -7.2207    1.0000 </r>
       <r>   -7.2207    1.0000 </r>
       <r>   -3.7218    1.0000 </r>
       <r>   -3.7218    1.0000 </r>
       <r>   -2.6492    1.0000 </r>
       <r>   -2.6492    1.0000 </r>
       <r>    0.4339    1.0000 </r>
       <r>    0.4339    1.0000 </r>
       <r>    0.8353    1.0000 </r>
       <r>    0.8353    1.0000 </r>
       <r>    1.2678    1.0000 </r>
       <r>    1.2678    1.0000 </r>
       <r>    1.7127    1.0000 </r>
       <r>    1.7127    1.0000 </r>
       <r>    1.7711    1.0000 </r>
       <r>    1.7711    1.0000 </r>
       <r>    1.8861    1.0000 </r>
       <r>    1.8861    1.0000 </r>
       <r>    2.0409    1.0000 </r>
       <r>    2.0409    1.0000 </r>
       <r>    2.2365    1.0000 </r>
       <r>    2.2365    1.0000 </r>
       <r>    2.3274    1.0000 </r>
       <r>    2.3274    1.0000 </r>
       <r>    2.5740    1.0000 </r>
       <r>    2.5740    1.0000 </r>
       <r>    3.2204    1.0000 </r>
       <r>    3.2204    1.0000 </r>
       <r>    3.5313    1.0000 </r>
       <r>    3.5313    1.0000 </r>
       <r>    3.7001    1.0000 </r>
       <r>    3.7001    1.0000 </r>
       <r>    3.8887    1.0000 </r>
       <r>    3.8887    1.0000 </r>
       <r>    3.9421    1.0000 </r>
       <r>    3.9421    1.0000 </r>
       <r>    4.0187    1.0000 </r>
       <r>    4.0187    1.0000 </r>
       <r>    4.2310    1.0000 </r>
       <r>    4.2310    1.0000 </r>
       <r>    4.6950    1.0000 </r>
       <r>    4.6950    1.0000 </r>
       <r>    4.8978    1.0000 </r>
       <r>    4.8978    1.0000 </r>
       <r>    4.9781    1.0000 </r>
       <r>    4.9781    1.0000 </r>
       <r>    5.4471    1.0000 </r>
       <r>    5.4471    1.0000 </r>
       <r>    5.4647    1.0000 </r>
       <r>    5.4647    1.0000 </r>
       <r>    6.6435    0.0000 </r>
       <r>    6.6435    0.0000 </r>
       <r>    7.1957    0.0000 </r>
       <r>    7.1957    0.0000 </r>
       <r>    7.5896    0.0000 </r>
       <r>    7.5896    0.0000 </r>
       <r>    7.8966    0.0000 </r>
       <r>    7.8966    0.0000 </r>
       <r>    9.0548    0.0000 </r>
       <r>    9.0549    0.0000 </r>
       <r>    9.0884    0.0000 </r>
       <r>    9.0884    0.0000 </r>
       <r>    9.5763    0.0000 </r>
       <r>    9.5764    0.0000 </r>
       <r>   10.4048    0.0000 </r>
       <r>   10.4063    0.0000 </r>
      </set>
      <set comment="kpoint 10">
       <r>   -8.3409    1.0000 </r>
       <r>   -8.3409    1.0000 </r>
       <r>   -8.1230    1.0000 </r>
       <r>   -8.1230    1.0000 </r>
       <r>   -7.5283    1.0000 </r>
       <r>   -7.5283    1.0000 </r>
       <r>   -7.1694    1.0000 </r>
       <r>   -7.1694    1.0000 </r>
       <r>   -3.7398    1.0000 </r>
       <r>   -3.7398    1.0000 </r>
       <r>   -2.7986    1.0000 </r>
       <r>   -2.7986    1.0000 </r>
       <r>    0.4818    1.0000 </r>
       <r>    0.4818    1.0000 </r>
       <r>    0.5379    1.0000 </r>
       <r>    0.5379    1.0000 </r>
       <r>    1.0000    1.0000 </r>
       <r>    1.0000    1.0000 </r>
       <r>    1.3855    1.0000 </r>
       <r>    1.3855    1.0000 </r>
       <r>    1.4654    1.0000 </r>
       <r>    1.4654    1.0000 </r>
       <r>    1.8408    1.0000 </r>
       <r>    1.8408    1.0000 </r>
       <r>    1.9046    1.0000 </r>
       <r>    1.9046    1.0000 </r>
       <r>    2.0416    1.0000 </r>
       <r>    2.0416    1.0000 </r>
       <r>    2.3535    1.0000 </r>
       <r>    2.3535    1.0000 </r>
       <r>    2.4006    1.0000 </r>
       <r>    2.4006    1.0000 </r>
       <r>    3.2583    1.0000 </r>
       <r>    3.2583    1.0000 </r>
       <r>    3.4834    1.0000 </r>
       <r>    3.4834    1.0000 </r>
       <r>    3.7073    1.0000 </r>
       <r>    3.7073    1.0000 </r>
       <r>    3.8233    1.0000 </r>
       <r>    3.8233    1.0000 </r>
       <r>    3.8903    1.0000 </r>
       <r>    3.8903    1.0000 </r>
       <r>    4.0171    1.0000 </r>
       <r>    4.0171    1.0000 </r>
       <r>    4.3258    1.0000 </r>
       <r>    4.3258    1.0000 </r>
       <r>    4.5170    1.0000 </r>
       <r>    4.5170    1.0000 </r>
       <r>    4.7438    1.0000 </r>
       <r>    4.7438    1.0000 </r>
       <r>    4.9570    1.0000 </r>
       <r>    4.9570    1.0000 </r>
       <r>    5.1676    1.0000 </r>
       <r>    5.1676    1.0000 </r>
       <r>    5.2015    1.0000 </r>
       <r>    5.2015    1.0000 </r>
       <r>    7.0932    0.0000 </r>
       <r>    7.0932    0.0000 </r>
       <r>    7.5048    0.0000 </r>
       <r>    7.5048    0.0000 </r>
       <r>    7.6441    0.0000 </r>
       <r>    7.6441    0.0000 </r>
       <r>    8.2045    0.0000 </r>
       <r>    8.2045    0.0000 </r>
       <r>    8.4342    0.0000 </r>
       <r>    8.4342    0.0000 </r>
       <r>    9.1542    0.0000 </r>
       <r>    9.1542    0.0000 </r>
       <r>   10.5405    0.0000 </r>
       <r>   10.5410    0.0000 </r>
       <r>   11.0098    0.0000 </r>
       <r>   11.0646    0.0000 </r>
      </set>
      <set comment="kpoint 11">
       <r>   -7.8800    1.0000 </r>
       <r>   -7.8800    1.0000 </r>
       <r>   -7.6947    1.0000 </r>
       <r>   -7.6947    1.0000 </r>
       <r>   -7.3176    1.0000 </r>
       <r>   -7.3176    1.0000 </r>
       <r>   -7.1248    1.0000 </r>
       <r>   -7.1248    1.0000 </r>
       <r>   -3.8759    1.0000 </r>
       <r>   -3.8759    1.0000 </r>
       <r>   -3.3366    1.0000 </r>
       <r>   -3.3366    1.0000 </r>
       <r>   -0.1448    1.0000 </r>
       <r>   -0.1448    1.0000 </r>
       <r>    0.1040    1.0000 </r>
       <r>    0.1040    1.0000 </r>
       <r>    0.5398    1.0000 </r>
       <r>    0.5398    1.0000 </r>
       <r>    1.1319    1.0000 </r>
       <r>    1.1319    1.0000 </r>
       <r>    1.2858    1.0000 </r>
       <r>    1.2858    1.0000 </r>
       <r>    1.6394    1.0000 </r>
       <r>    1.6394    1.0000 </r>
       <r>    1.9051    1.0000 </r>
       <r>    1.9051    1.0000 </r>
       <r>    2.1760    1.0000 </r>
       <r>    2.1760    1.0000 </r>
       <r>    2.4836    1.0000 </r>
       <r>    2.4836    1.0000 </r>
       <r>    2.6040    1.0000 </r>
       <r>    2.6040    1.0000 </r>
       <r>    2.8776    1.0000 </r>
       <r>    2.8776    1.0000 </r>
       <r>    3.4025    1.0000 </r>
       <r>    3.4025    1.0000 </r>
       <r>    3.6638    1.0000 </r>
       <r>    3.6638    1.0000 </r>
       <r>    3.7314    1.0000 </r>
       <r>    3.7314    1.0000 </r>
       <r>    3.8311    1.0000 </r>
       <r>    3.8311    1.0000 </r>
       <r>    4.0201    1.0000 </r>
       <r>    4.0201    1.0000 </r>
       <r>    4.1820    1.0000 </r>
       <r>    4.1820    1.0000 </r>
       <r>    4.2756    1.0000 </r>
       <r>    4.2756    1.0000 </r>
       <r>    4.6096    1.0000 </r>
       <r>    4.6096    1.0000 </r>
       <r>    4.6179    1.0000 </r>
       <r>    4.6179    1.0000 </r>
       <r>    4.8989    1.0000 </r>
       <r>    4.8989    1.0000 </r>
       <r>    5.0139    1.0000 </r>
       <r>    5.0139    1.0000 </r>
       <r>    6.8190    0.0000 </r>
       <r>    6.8190    0.0000 </r>
       <r>    7.0628    0.0000 </r>
       <r>    7.0628    0.0000 </r>
       <r>    7.7877    0.0000 </r>
       <r>    7.7877    0.0000 </r>
       <r>    7.9910    0.0000 </r>
       <r>    7.9910    0.0000 </r>
       <r>    8.8389    0.0000 </r>
       <r>    8.8389    0.0000 </r>
       <r>    9.1947    0.0000 </r>
       <r>    9.1947    0.0000 </r>
       <r>   10.5496    0.0000 </r>
       <r>   10.5573    0.0000 </r>
       <r>   10.8979    0.0000 </r>
       <r>   10.9750    0.0000 </r>
      </set>
      <set comment="kpoint 12">
       <r>   -7.4069    1.0000 </r>
       <r>   -7.4069    1.0000 </r>
       <r>   -7.4069    1.0000 </r>
       <r>   -7.4069    1.0000 </r>
       <r>   -7.2677    1.0000 </r>
       <r>   -7.2677    1.0000 </r>
       <r>   -7.2677    1.0000 </r>
       <r>   -7.2677    1.0000 </r>
       <r>   -3.8765    1.0000 </r>
       <r>   -3.8765    1.0000 </r>
       <r>   -3.8765    1.0000 </r>
       <r>   -3.8765    1.0000 </r>
       <r>   -0.3064    1.0000 </r>
       <r>   -0.3064    1.0000 </r>
       <r>   -0.3064    1.0000 </r>
       <r>   -0.3064    1.0000 </r>
       <r>    0.7001    1.0000 </r>
       <r>    0.7001    1.0000 </r>
       <r>    0.7001    1.0000 </r>
       <r>    0.7001    1.0000 </r>
       <r>    1.4986    1.0000 </r>
       <r>    1.4986    1.0000 </r>
       <r>    1.4986    1.0000 </r>
       <r>    1.4986    1.0000 </r>
       <r>    2.0874    1.0000 </r>
       <r>    2.0874    1.0000 </r>
       <r>    2.0874    1.0000 </r>
       <r>    2.0874    1.0000 </r>
       <r>    2.5970    1.0000 </r>
       <r>    2.5970    1.0000 </r>
       <r>    2.5970    1.0000 </r>
       <r>    2.5970    1.0000 </r>
       <r>    3.0829    1.0000 </r>
       <r>    3.0829    1.0000 </r>
       <r>    3.0829    1.0000 </r>
       <r>    3.0829    1.0000 </r>
       <r>    3.7183    1.0000 </r>
       <r>    3.7183    1.0000 </r>
       <r>    3.7183    1.0000 </r>
       <r>    3.7183    1.0000 </r>
       <r>    3.9007    1.0000 </r>
       <r>    3.9007    1.0000 </r>
       <r>    3.9007    1.0000 </r>
       <r>    3.9007    1.0000 </r>
       <r>    4.0125    1.0000 </r>
       <r>    4.0125    1.0000 </r>
       <r>    4.0125    1.0000 </r>
       <r>    4.0125    1.0000 </r>
       <r>    4.5472    1.0000 </r>
       <r>    4.5472    1.0000 </r>
       <r>    4.5472    1.0000 </r>
       <r>    4.5472    1.0000 </r>
       <r>    4.9024    1.0000 </r>
       <r>    4.9024    1.0000 </r>
       <r>    4.9024    1.0000 </r>
       <r>    4.9024    1.0000 </r>
       <r>    6.7323    0.0000 </r>
       <r>    6.7323    0.0000 </r>
       <r>    6.7323    0.0000 </r>
       <r>    6.7323    0.0000 </r>
       <r>    7.8937    0.0000 </r>
       <r>    7.8937    0.0000 </r>
       <r>    7.8937    0.0000 </r>
       <r>    7.8937    0.0000 </r>
       <r>    8.7422    0.0000 </r>
       <r>    8.7422    0.0000 </r>
       <r>    8.7422    0.0000 </r>
       <r>    8.7422    0.0000 </r>
       <r>   10.4506    0.0000 </r>
       <r>   10.4508    0.0000 </r>
       <r>   10.4509    0.0000 </r>
       <r>   10.4525    0.0000 </r>
      </set>
     </set>
     <set comment="spin 2">
      <set comment="kpoint 1">
       <r>   -8.9661    1.0000 </r>
       <r>   -8.6750    1.0000 </r>
       <r>   -8.5627    1.0000 </r>
       <r>   -8.1701    1.0000 </r>
       <r>   -7.3229    1.0000 </r>
       <r>   -7.2045    1.0000 </r>
       <r>   -7.0626    1.0000 </r>
       <r>   -6.8745    1.0000 </r>
       <r>   -3.4251    1.0000 </r>
       <r>   -3.2434    1.0000 </r>
       <r>   -3.1995    1.0000 </r>
       <r>   -2.7553    1.0000 </r>
       <r>   -0.5693    1.0000 </r>
       <r>   -0.1558    1.0000 </r>
       <r>    0.2902    1.0000 </r>
       <r>    0.7064    1.0000 </r>
       <r>    0.8501    1.0000 </r>
       <r>    1.3936    1.0000 </r>
       <r>    1.6555    1.0000 </r>
       <r>    1.6905    1.0000 </r>
       <r>    1.7493    1.0000 </r>
       <r>    1.8887    1.0000 </r>
       <r>    2.0667    1.0000 </r>
       <r>    2.0925    1.0000 </r>
       <r>    2.0967    1.0000 </r>
       <r>    2.1247    1.0000 </r>
       <r>    2.1626    1.0000 </r>
       <r>    2.2415    1.0000 </r>
       <r>    2.2886    1.0000 </r>
       <r>    2.3588    1.0000 </r>
       <r>    2.3916    1.0000 </r>
       <r>    2.4648    1.0000 </r>
       <r>    3.0347    1.0000 </r>
       <r>    3.1137    1.0000 </r>
       <r>    3.1463    1.0000 </r>
       <r>    3.4787    1.0000 </r>
       <r>    3.6766    1.0000 </r>
       <r>    3.6794    1.0000 </r>
       <r>    3.7111    1.0000 </r>
       <r>    3.7715    1.0000 </r>
       <r>    3.9240    1.0000 </r>
       <r>    3.9604    1.0000 </r>
       <r>    3.9933    1.0000 </r>
       <r>    4.0102    1.0000 </r>
       <r>    4.3339    1.0000 </r>
       <r>    4.4027    1.0000 </r>
       <r>    4.5957    1.0000 </r>
       <r>    4.9437    1.0000 </r>
       <r>    5.1558    1.0000 </r>
       <r>    5.4837    1.0000 </r>
       <r>    5.4934    1.0000 </r>
       <r>    5.5558    1.0000 </r>
       <r>    5.6070    1.0000 </r>
       <r>    5.6550    1.0000 </r>
       <r>    5.6751    1.0000 </r>
       <r>    5.8094    1.0000 </r>
       <r>    6.6396    0.0000 </r>
       <r>    6.9824    0.0000 </r>
       <r>    7.0062    0.0000 </r>
       <r>    7.3345    0.0000 </r>
       <r>    7.8322    0.0000 </r>
       <r>    7.9649    0.0000 </r>
       <r>    8.2691    0.0000 </r>
       <r>    8.2810    0.0000 </r>
       <r>    8.5074    0.0000 </r>
       <r>    8.5698    0.0000 </r>
       <r>    8.7954    0.0000 </r>
       <r>    8.9519    0.0000 </r>
       <r>    9.9093    0.0000 </r>
       <r>   10.1101    0.0000 </r>
       <r>   10.4635    0.0000 </r>
       <r>   11.0390    0.0000 </r>
      </set>
      <set comment="kpoint 2">
       <r>   -8.7716    1.0000 </r>
       <r>   -8.4876    1.0000 </r>
       <r>   -8.3897    1.0000 </r>
       <r>   -8.0036    1.0000 </r>
       <r>   -7.2424    1.0000 </r>
       <r>   -7.1621    1.0000 </r>
       <r>   -7.0284    1.0000 </r>
       <r>   -6.8743    1.0000 </r>
       <r>   -3.4365    1.0000 </r>
       <r>   -3.2252    1.0000 </r>
       <r>   -3.1803    1.0000 </r>
       <r>   -2.8175    1.0000 </r>
       <r>   -0.3760    1.0000 </r>
       <r>    0.0250    1.0000 </r>
       <r>    0.3371    1.0000 </r>
       <r>    0.7451    1.0000 </r>
       <r>    0.7784    1.0000 </r>
       <r>    0.8594    1.0000 </r>
       <r>    0.9130    1.0000 </r>
       <r>    1.0797    1.0000 </r>
       <r>    1.4041    1.0000 </r>
       <r>    1.5910    1.0000 </r>
       <r>    1.6306    1.0000 </r>
       <r>    1.7627    1.0000 </r>
       <r>    1.9600    1.0000 </r>
       <r>    2.0124    1.0000 </r>
       <r>    2.0663    1.0000 </r>
       <r>    2.1221    1.0000 </r>
       <r>    2.1320    1.0000 </r>
       <r>    2.1775    1.0000 </r>
       <r>    2.3061    1.0000 </r>
       <r>    2.3524    1.0000 </r>
       <r>    3.1022    1.0000 </r>
       <r>    3.3652    1.0000 </r>
       <r>    3.3828    1.0000 </r>
       <r>    3.3981    1.0000 </r>
       <r>    3.6804    1.0000 </r>
       <r>    3.7113    1.0000 </r>
       <r>    3.7155    1.0000 </r>
       <r>    3.7421    1.0000 </r>
       <r>    3.7994    1.0000 </r>
       <r>    3.8833    1.0000 </r>
       <r>    3.9731    1.0000 </r>
       <r>    4.0498    1.0000 </r>
       <r>    4.3141    1.0000 </r>
       <r>    4.3340    1.0000 </r>
       <r>    4.4769    1.0000 </r>
       <r>    4.5343    1.0000 </r>
       <r>    4.8418    1.0000 </r>
       <r>    5.0515    1.0000 </r>
       <r>    5.2224    1.0000 </r>
       <r>    5.2298    1.0000 </r>
       <r>    5.4345    1.0000 </r>
       <r>    5.4491    1.0000 </r>
       <r>    5.4646    1.0000 </r>
       <r>    5.7067    1.0000 </r>
       <r>    7.5163    0.0000 </r>
       <r>    7.5311    0.0000 </r>
       <r>    7.5660    0.0000 </r>
       <r>    7.7461    0.0000 </r>
       <r>    7.8658    0.0000 </r>
       <r>    8.0714    0.0000 </r>
       <r>    8.1110    0.0000 </r>
       <r>    8.1262    0.0000 </r>
       <r>    8.5314    0.0000 </r>
       <r>    8.6042    0.0000 </r>
       <r>    9.1548    0.0000 </r>
       <r>    9.2072    0.0000 </r>
       <r>   10.4569    0.0000 </r>
       <r>   10.7302    0.0000 </r>
       <r>   11.0670    0.0000 </r>
       <r>   11.1290    0.0000 </r>
      </set>
      <set comment="kpoint 3">
       <r>   -8.2386    1.0000 </r>
       <r>   -7.9852    1.0000 </r>
       <r>   -7.9389    1.0000 </r>
       <r>   -7.5851    1.0000 </r>
       <r>   -7.1467    1.0000 </r>
       <r>   -7.1037    1.0000 </r>
       <r>   -7.0485    1.0000 </r>
       <r>   -7.0147    1.0000 </r>
       <r>   -3.4949    1.0000 </r>
       <r>   -3.3995    1.0000 </r>
       <r>   -3.1940    1.0000 </r>
       <r>   -3.1243    1.0000 </r>
       <r>   -0.0984    1.0000 </r>
       <r>    0.0094    1.0000 </r>
       <r>    0.0501    1.0000 </r>
       <r>    0.2672    1.0000 </r>
       <r>    0.3742    1.0000 </r>
       <r>    0.3831    1.0000 </r>
       <r>    0.4173    1.0000 </r>
       <r>    0.6109    1.0000 </r>
       <r>    1.0129    1.0000 </r>
       <r>    1.1798    1.0000 </r>
       <r>    1.1887    1.0000 </r>
       <r>    1.5197    1.0000 </r>
       <r>    1.7557    1.0000 </r>
       <r>    1.9219    1.0000 </r>
       <r>    1.9549    1.0000 </r>
       <r>    1.9668    1.0000 </r>
       <r>    2.0741    1.0000 </r>
       <r>    2.1902    1.0000 </r>
       <r>    2.5498    1.0000 </r>
       <r>    2.5613    1.0000 </r>
       <r>    2.8807    1.0000 </r>
       <r>    2.9096    1.0000 </r>
       <r>    3.1789    1.0000 </r>
       <r>    3.2761    1.0000 </r>
       <r>    3.5874    1.0000 </r>
       <r>    3.6421    1.0000 </r>
       <r>    3.6834    1.0000 </r>
       <r>    3.6848    1.0000 </r>
       <r>    3.7990    1.0000 </r>
       <r>    3.8342    1.0000 </r>
       <r>    3.8653    1.0000 </r>
       <r>    3.9095    1.0000 </r>
       <r>    4.0443    1.0000 </r>
       <r>    4.1631    1.0000 </r>
       <r>    4.2308    1.0000 </r>
       <r>    4.4735    1.0000 </r>
       <r>    4.5077    1.0000 </r>
       <r>    4.5250    1.0000 </r>
       <r>    4.5938    1.0000 </r>
       <r>    4.7603    1.0000 </r>
       <r>    4.8591    1.0000 </r>
       <r>    4.9864    1.0000 </r>
       <r>    5.1075    1.0000 </r>
       <r>    5.3510    1.0000 </r>
       <r>    7.1117    0.0000 </r>
       <r>    7.3346    0.0000 </r>
       <r>    7.7157    0.0000 </r>
       <r>    7.9769    0.0000 </r>
       <r>    8.0664    0.0000 </r>
       <r>    8.1186    0.0000 </r>
       <r>    8.4984    0.0000 </r>
       <r>    8.8526    0.0000 </r>
       <r>    8.8610    0.0000 </r>
       <r>    9.0152    0.0000 </r>
       <r>    9.2709    0.0000 </r>
       <r>    9.3588    0.0000 </r>
       <r>   10.4135    0.0000 </r>
       <r>   10.8635    0.0000 </r>
       <r>   10.9323    0.0000 </r>
       <r>   11.0669    0.0000 </r>
      </set>
      <set comment="kpoint 4">
       <r>   -7.5966    1.0000 </r>
       <r>   -7.5966    1.0000 </r>
       <r>   -7.3935    1.0000 </r>
       <r>   -7.3935    1.0000 </r>
       <r>   -7.3526    1.0000 </r>
       <r>   -7.3526    1.0000 </r>
       <r>   -7.1766    1.0000 </r>
       <r>   -7.1766    1.0000 </r>
       <r>   -3.4756    1.0000 </r>
       <r>   -3.4756    1.0000 </r>
       <r>   -3.4251    1.0000 </r>
       <r>   -3.4251    1.0000 </r>
       <r>   -0.2187    1.0000 </r>
       <r>   -0.2187    1.0000 </r>
       <r>   -0.0305    1.0000 </r>
       <r>   -0.0305    1.0000 </r>
       <r>    0.4017    1.0000 </r>
       <r>    0.4017    1.0000 </r>
       <r>    0.5153    1.0000 </r>
       <r>    0.5153    1.0000 </r>
       <r>    1.0890    1.0000 </r>
       <r>    1.0890    1.0000 </r>
       <r>    1.1375    1.0000 </r>
       <r>    1.1375    1.0000 </r>
       <r>    1.7638    1.0000 </r>
       <r>    1.7638    1.0000 </r>
       <r>    1.9203    1.0000 </r>
       <r>    1.9203    1.0000 </r>
       <r>    2.1791    1.0000 </r>
       <r>    2.1791    1.0000 </r>
       <r>    2.5358    1.0000 </r>
       <r>    2.5358    1.0000 </r>
       <r>    2.8241    1.0000 </r>
       <r>    2.8241    1.0000 </r>
       <r>    3.0292    1.0000 </r>
       <r>    3.0292    1.0000 </r>
       <r>    3.6917    1.0000 </r>
       <r>    3.6917    1.0000 </r>
       <r>    3.7075    1.0000 </r>
       <r>    3.7075    1.0000 </r>
       <r>    3.7515    1.0000 </r>
       <r>    3.7515    1.0000 </r>
       <r>    3.8593    1.0000 </r>
       <r>    3.8593    1.0000 </r>
       <r>    3.9021    1.0000 </r>
       <r>    3.9021    1.0000 </r>
       <r>    4.1466    1.0000 </r>
       <r>    4.1466    1.0000 </r>
       <r>    4.2681    1.0000 </r>
       <r>    4.2681    1.0000 </r>
       <r>    4.4353    1.0000 </r>
       <r>    4.4353    1.0000 </r>
       <r>    4.8946    1.0000 </r>
       <r>    4.8946    1.0000 </r>
       <r>    4.9653    1.0000 </r>
       <r>    4.9653    1.0000 </r>
       <r>    7.5058    0.0000 </r>
       <r>    7.5058    0.0000 </r>
       <r>    7.6301    0.0000 </r>
       <r>    7.6301    0.0000 </r>
       <r>    8.1579    0.0000 </r>
       <r>    8.1579    0.0000 </r>
       <r>    8.3820    0.0000 </r>
       <r>    8.3820    0.0000 </r>
       <r>    9.0012    0.0000 </r>
       <r>    9.0012    0.0000 </r>
       <r>    9.1895    0.0000 </r>
[...]
        <r>  0.0146  0.0077  0.0090  0.0012  0.0000  0.0000  0.0000  0.0000  0.0000 </r>
        <r>  0.0086  0.0062  0.0032  0.0041  0.0000  0.0000  0.0000  0.0000  0.0000 </r>
        <r>  0.0236  0.0228  0.0029  0.0005  0.0000  0.0000  0.0000  0.0000  0.0000 </r>
        <r>  0.0034  0.0010  0.0271  0.0017  0.0000  0.0000  0.0000  0.0000  0.0000 </r>
        <r>  0.0017  0.0003  0.0115  0.0071  0.0000  0.0000  0.0000  0.0000  0.0000 </r>
        <r>  0.0038  0.0008  0.0189  0.0011  0.0000  0.0000  0.0000  0.0000  0.0000 </r>
        <r>  0.0010  0.0004  0.0060  0.0003  0.0000  0.0000  0.0000  0.0000  0.0000 </r>
       </set>
       <set comment="band 61">
        <r>  0.0060  0.0009  0.0004  0.0001  0.0019  0.0010  0.0011  0.0010  0.0011 </r>
        <r>  0.0023  0.0037  0.0034  0.0000  0.0040  0.0014  0.0004  0.0034  0.0003 </r>
        <r>  0.0057  0.0006  0.0014  0.0001  0.0069  0.0000  0.0001  0.0010  0.0002 </r>
        <r>  0.0005  0.0028  0.0013  0.0000  0.0011  0.0018  0.0010  0.0049  0.0009 </r>
        <r>  0.0004  0.0147  0.0024  0.0253  0.0013  0.0000  0.0009  0.0005  0.0005 </r>
        <r>  0.0001  0.0402  0.0037  0.0066  0.0003  0.0001  0.0016  0.0001  0.0011 </r>
        <r>  0.0000  0.0498  0.0026  0.0169  0.0009  0.0001  0.0014  0.0001  0.0012 </r>
        <r>  0.0002  0.0073  0.0000  0.0507  0.0026  0.0000  0.0000  0.0007  0.0001 </r>
        <r>  0.0003  0.0035  0.0034  0.0001  0.0000  0.0000  0.0000  0.0000  0.0000 </r>
        <r>  0.0010  0.0110  0.0021  0.0003  0.0000  0.0000  0.0000  0.0000  0.0000 </r>
        <r>  0.0015  0.0157  0.0139  0.0002  0.0000  0.0000  0.0000  0.0000  0.0000 </r>
        <r>  0.0003  0.0031  0.0106  0.0001  0.0000  0.0000  0.0000  0.0000  0.0000 </r>
        <r>  0.0084  0.0042  0.0107  0.0081  0.0000  0.0000  0.0000  0.0000  0.0000 </r>
        <r>  0.0125  0.0029  0.0240  0.0010  0.0000  0.0000  0.0000  0.0000  0.0000 </r>
        <r>  0.0027  0.0000  0.0091  0.0159  0.0000  0.0000  0.0000  0.0000  0.0000 </r>
        <r>  0.0026  0.0028  0.0028  0.0166  0.0000  0.0000  0.0000  0.0000  0.0000 </r>
       </set>
       <set comment="band 62">
        <r>  0.0048  0.0049  0.0052  0.0000  0.0020  0.0015  0.0002  0.0003  0.0001 </r>
        <r>  0.0072  0.0018  0.0002  0.0000  0.0003  0.0020  0.0020  0.0014  0.0020 </r>
        <r>  0.0017  0.0003  0.0001  0.0000  0.0002  0.0003  0.0003  0.0067  0.0003 </r>
        <r>  0.0007  0.0011  0.0010  0.0002  0.0115  0.0004  0.0001  0.0018  0.0001 </r>
        <r>  0.0000  0.0879  0.0051  0.0019  0.0001  0.0002  0.0026  0.0000  0.0022 </r>
        <r>  0.0001  0.0042  0.0007  0.0815  0.0042  0.0000  0.0003  0.0012  0.0001 </r>
        <r>  0.0006  0.0056  0.0021  0.0146  0.0008  0.0000  0.0007  0.0002  0.0002 </r>
        <r>  0.0000  0.0143  0.0008  0.0015  0.0001  0.0000  0.0004  0.0000  0.0003 </r>
        <r>  0.0026  0.0270  0.0183  0.0001  0.0000  0.0000  0.0000  0.0000  0.0000 </r>
        <r>  0.0001  0.0010  0.0010  0.0000  0.0000  0.0000  0.0000  0.0000  0.0000 </r>
        <r>  0.0001  0.0009  0.0067  0.0000  0.0000  0.0000  0.0000  0.0000  0.0000 </r>
        <r>  0.0004  0.0045  0.0040  0.0005  0.0000  0.0000  0.0000  0.0000  0.0000 </r>
        <r>  0.0007  0.0008  0.0008  0.0295  0.0000  0.0000  0.0000  0.0000  0.0000 </r>
        <r>  0.0005  0.0025  0.0011  0.0046  0.0000  0.0000  0.0000  0.0000  0.0000 </r>
        <r>  0.0036  0.0008  0.0069  0.0052  0.0000  0.0000  0.0000  0.0000  0.0000 </r>
        <r>  0.0213  0.0058  0.0377  0.0023  0.0000  0.0000  0.0000  0.0000  0.0000 </r>
       </set>
       <set comment="band 63">
        <r>  0.0005  0.0012  0.0008  0.0001  0.0088  0.0006  0.0003  0.0052  0.0003 </r>
        <r>  0.0022  0.0003  0.0005  0.0001  0.0025  0.0001  0.0002  0.0030  0.0002 </r>
        <r>  0.0023  0.0045  0.0019  0.0000  0.0012  0.0031  0.0020  0.0015  0.0018 </r>
        <r>  0.0094  0.0020  0.0034  0.0000  0.0014  0.0003  0.0001  0.0004  0.0002 </r>
        <r>  0.0001  0.0082  0.0004  0.0228  0.0012  0.0000  0.0002  0.0002  0.0002 </r>
        <r>  0.0004  0.0094  0.0004  0.0107  0.0006  0.0000  0.0002  0.0001  0.0002 </r>
        <r>  0.0001  0.0128  0.0013  0.0580  0.0029  0.0000  0.0005  0.0010  0.0003 </r>
        <r>  0.0002  0.0816  0.0067  0.0079  0.0004  0.0001  0.0031  0.0001  0.0021 </r>
        <r>  0.0003  0.0028  0.0045  0.0004  0.0000  0.0000  0.0000  0.0000  0.0000 </r>
        <r>  0.0004  0.0040  0.0168  0.0001  0.0000  0.0000  0.0000  0.0000  0.0000 </r>
        <r>  0.0003  0.0035  0.0011  0.0001  0.0000  0.0000  0.0000  0.0000  0.0000 </r>
        <r>  0.0022  0.0231  0.0075  0.0001  0.0000  0.0000  0.0000  0.0000  0.0000 </r>
        <r>  0.0034  0.0005  0.0125  0.0023  0.0000  0.0000  0.0000  0.0000  0.0000 </r>
        <r>  0.0026  0.0015  0.0034  0.0319  0.0000  0.0000  0.0000  0.0000  0.0000 </r>
        <r>  0.0179  0.0076  0.0253  0.0055  0.0000  0.0000  0.0000  0.0000  0.0000 </r>
        <r>  0.0023  0.0004  0.0054  0.0019  0.0000  0.0000  0.0000  0.0000  0.0000 </r>
       </set>
       <set comment="band 64">
        <r>  0.0032  0.0010  0.0001  0.0001  0.0012  0.0011  0.0010  0.0037  0.0010 </r>
        <r>  0.0027  0.0022  0.0025  0.0001  0.0071  0.0006  0.0001  0.0024  0.0000 </r>
        <r>  0.0047  0.0027  0.0031  0.0001  0.0056  0.0008  0.0002  0.0010  0.0002 </r>
        <r>  0.0039  0.0021  0.0008  0.0000  0.0000  0.0017  0.0014  0.0031  0.0013 </r>
        <r>  0.0003  0.0012  0.0008  0.0495  0.0025  0.0000  0.0002  0.0008  0.0001 </r>
        <r>  0.0001  0.0581  0.0039  0.0006  0.0000  0.0001  0.0019  0.0000  0.0015 </r>
        <r>  0.0000  0.0439  0.0027  0.0100  0.0005  0.0001  0.0014  0.0001  0.0011 </r>
        <r>  0.0003  0.0088  0.0012  0.0394  0.0020  0.0000  0.0005  0.0006  0.0002 </r>
        <r>  0.0000  0.0001  0.0038  0.0001  0.0000  0.0000  0.0000  0.0000  0.0000 </r>
        <r>  0.0017  0.0173  0.0101  0.0003  0.0000  0.0000  0.0000  0.0000  0.0000 </r>
        <r>  0.0013  0.0133  0.0083  0.0003  0.0000  0.0000  0.0000  0.0000  0.0000 </r>
        <r>  0.0003  0.0026  0.0078  0.0000  0.0000  0.0000  0.0000  0.0000  0.0000 </r>
        <r>  0.0136  0.0045  0.0225  0.0017  0.0000  0.0000  0.0000  0.0000  0.0000 </r>
        <r>  0.0105  0.0030  0.0181  0.0041  0.0000  0.0000  0.0000  0.0000  0.0000 </r>
        <r>  0.0021  0.0015  0.0053  0.0150  0.0000  0.0000  0.0000  0.0000  0.0000 </r>
        <r>  0.0000  0.0010  0.0006  0.0207  0.0000  0.0000  0.0000  0.0000  0.0000 </r>
       </set>
       <set comment="band 65">
        <r>  0.0019  0.0003  0.0009  0.0000  0.0022  0.0005  0.0019  0.0007  0.0002 </r>
        <r>  0.0229  0.0033  0.0001  0.0002  0.0012  0.0038  0.0095  0.0025  0.0025 </r>
        <r>  0.0023  0.0004  0.0001  0.0007  0.0014  0.0006  0.0016  0.0140  0.0003 </r>
        <r>  0.0023  0.0002  0.0001  0.0006  0.0172  0.0002  0.0005  0.0034  0.0002 </r>
        <r>  0.0110  0.0031  0.1227  0.0013  0.0005  0.0009  0.0009  0.0001  0.0001 </r>
        <r>  0.0009  0.0004  0.0064  0.0185  0.0016  0.0001  0.0000  0.0003  0.0000 </r>
        <r>  0.0007  0.0051  0.0343  0.0023  0.0001  0.0001  0.0002  0.0000  0.0001 </r>
        <r>  0.0013  0.0012  0.0224  0.0015  0.0017  0.0001  0.0002  0.0001  0.0000 </r>
        <r>  0.0008  0.0079  0.0229  0.0007  0.0000  0.0000  0.0000  0.0000  0.0000 </r>
        <r>  0.0002  0.0008  0.0014  0.0127  0.0000  0.0000  0.0000  0.0000  0.0000 </r>
        <r>  0.0008  0.0008  0.0173  0.0022  0.0000  0.0000  0.0000  0.0000  0.0000 </r>
        <r>  0.0001  0.0007  0.0060  0.0031  0.0000  0.0000  0.0000  0.0000  0.0000 </r>
        <r>  0.0001  0.0001  0.0026  0.0607  0.0000  0.0000  0.0000  0.0000  0.0000 </r>
        <r>  0.0017  0.0006  0.0093  0.0100  0.0000  0.0000  0.0000  0.0000  0.0000 </r>
        <r>  0.0006  0.0001  0.0006  0.0120  0.0000  0.0000  0.0000  0.0000  0.0000 </r>
        <r>  0.0021  0.0001  0.0084  0.0034  0.0000  0.0000  0.0000  0.0000  0.0000 </r>
       </set>
       <set comment="band 66">
        <r>  0.0014  0.0002  0.0002  0.0001  0.0057  0.0002  0.0007  0.0069  0.0001 </r>
        <r>  0.0041  0.0006  0.0001  0.0012  0.0121  0.0007  0.0019  0.0099  0.0005 </r>
        <r>  0.0027  0.0012  0.0009  0.0002  0.0009  0.0018  0.0059  0.0028  0.0008 </r>
        <r>  0.0211  0.0022  0.0001  0.0001  0.0032  0.0023  0.0051  0.0011  0.0018 </r>
        <r>  0.0020  0.0009  0.0247  0.0132  0.0028  0.0002  0.0002  0.0004  0.0000 </r>
        <r>  0.0087  0.0002  0.0569  0.0034  0.0003  0.0006  0.0004  0.0000  0.0001 </r>
        <r>  0.0006  0.0010  0.0102  0.0060  0.0004  0.0001  0.0001  0.0000  0.0000 </r>
        <r>  0.0026  0.0076  0.0940  0.0010  0.0004  0.0004  0.0007  0.0000  0.0000 </r>
        <r>  0.0002  0.0014  0.0052  0.0062  0.0000  0.0000  0.0000  0.0000  0.0000 </r>
        <r>  0.0014  0.0076  0.0056  0.0025  0.0000  0.0000  0.0000  0.0000  0.0000 </r>
        <r>  0.0002  0.0005  0.0037  0.0090  0.0000  0.0000  0.0000  0.0000  0.0000 </r>
        <r>  0.0002  0.0007  0.0330  0.0010  0.0000  0.0000  0.0000  0.0000  0.0000 </r>
        <r>  0.0005  0.0000  0.0152  0.0119  0.0000  0.0000  0.0000  0.0000  0.0000 </r>
        <r>  0.0003  0.0001  0.0022  0.0376  0.0000  0.0000  0.0000  0.0000  0.0000 </r>
        <r>  0.0031  0.0006  0.0019  0.0043  0.0000  0.0000  0.0000  0.0000  0.0000 </r>
        <r>  0.0005  0.0000  0.0017  0.0323  0.0000  0.0000  0.0000  0.0000  0.0000 </r>
       </set>
       <set comment="band 67">
        <r>  0.0206  0.0031  0.0001  0.0004  0.0011  0.0037  0.0095  0.0046  0.0024 </r>
        <r>  0.0017  0.0001  0.0008  0.0000  0.0041  0.0001  0.0007  0.0004  0.0001 </r>
        <r>  0.0029  0.0002  0.0001  0.0004  0.0164  0.0002  0.0003  0.0015  0.0002 </r>
        <r>  0.0040  0.0008  0.0001  0.0008  0.0004  0.0010  0.0029  0.0142  0.0006 </r>
        <r>  0.0003  0.0039  0.0162  0.0044  0.0001  0.0000  0.0001  0.0000  0.0001 </r>
        <r>  0.0023  0.0019  0.0413  0.0004  0.0019  0.0002  0.0003  0.0002  0.0000 </r>
        <r>  0.0103  0.0035  0.1254  0.0012  0.0009  0.0009  0.0009  0.0001  0.0001 </r>
        <r>  0.0010  0.0004  0.0029  0.0176  0.0011  0.0000  0.0000  0.0002  0.0000 </r>
        <r>  0.0009  0.0008  0.0114  0.0041  0.0000  0.0000  0.0000  0.0000  0.0000 </r>
        <r>  0.0000  0.0013  0.0106  0.0014  0.0000  0.0000  0.0000  0.0000  0.0000 </r>
        <r>  0.0006  0.0070  0.0248  0.0003  0.0000  0.0000  0.0000  0.0000  0.0000 </r>
        <r>  0.0004  0.0011  0.0008  0.0129  0.0000  0.0000  0.0000  0.0000  0.0000 </r>
        <r>  0.0010  0.0001  0.0004  0.0047  0.0000  0.0000  0.0000  0.0000  0.0000 </r>
        <r>  0.0023  0.0001  0.0058  0.0019  0.0000  0.0000  0.0000  0.0000  0.0000 </r>
        <r>  0.0001  0.0001  0.0046  0.0609  0.0000  0.0000  0.0000  0.0000  0.0000 </r>
        <r>  0.0011  0.0005  0.0102  0.0186  0.0000  0.0000  0.0000  0.0000  0.0000 </r>
       </set>
       <set comment="band 68">
        <r>  0.0054  0.0006  0.0000  0.0011  0.0129  0.0006  0.0014  0.0085  0.0005 </r>
        <r>  0.0006  0.0003  0.0002  0.0002  0.0046  0.0004  0.0014  0.0079  0.0002 </r>
        <r>  0.0214  0.0024  0.0000  0.0003  0.0032  0.0025  0.0057  0.0023  0.0019 </r>
        <r>  0.0019  0.0010  0.0009  0.0000  0.0013  0.0015  0.0050  0.0019  0.0006 </r>
        <r>  0.0006  0.0019  0.0222  0.0047  0.0005  0.0001  0.0002  0.0000  0.0000 </r>
        <r>  0.0020  0.0072  0.0812  0.0013  0.0001  0.0003  0.0006  0.0000  0.0000 </r>
        <r>  0.0023  0.0001  0.0159  0.0141  0.0026  0.0002  0.0001  0.0004  0.0000 </r>
        <r>  0.0091  0.0005  0.0665  0.0035  0.0007  0.0007  0.0005  0.0001  0.0001 </r>
        <r>  0.0001  0.0002  0.0080  0.0078  0.0000  0.0000  0.0000  0.0000  0.0000 </r>
        <r>  0.0002  0.0005  0.0299  0.0021  0.0000  0.0000  0.0000  0.0000  0.0000 </r>
        <r>  0.0004  0.0019  0.0018  0.0072  0.0000  0.0000  0.0000  0.0000  0.0000 </r>
        <r>  0.0013  0.0076  0.0079  0.0017  0.0000  0.0000  0.0000  0.0000  0.0000 </r>
        <r>  0.0028  0.0006  0.0028  0.0088  0.0000  0.0000  0.0000  0.0000  0.0000 </r>
        <r>  0.0002  0.0000  0.0037  0.0366  0.0000  0.0000  0.0000  0.0000  0.0000 </r>
        <r>  0.0007  0.0000  0.0139  0.0089  0.0000  0.0000  0.0000  0.0000  0.0000 </r>
        <r>  0.0008  0.0002  0.0006  0.0318  0.0000  0.0000  0.0000  0.0000  0.0000 </r>
       </set>
       <set comment="band 69">
        <r>  0.0054  0.0011  0.0002  0.0001  0.0000  0.0056  0.0002  0.0000  0.0008 </r>
        <r>  0.0396  0.0093  0.0020  0.0015  0.0007  0.0013  0.0011  0.0001  0.0047 </r>
        <r>  0.0042  0.0020  0.0003  0.0001  0.0001  0.0095  0.0004  0.0000  0.0017 </r>
        <r>  0.0763  0.0165  0.0035  0.0008  0.0004  0.0028  0.0019  0.0001  0.0082 </r>
        <r>  0.0000  0.0017  0.0001  0.0134  0.0143  0.0006  0.0005  0.0037  0.0000 </r>
        <r>  0.0000  0.0027  0.0002  0.0070  0.0078  0.0012  0.0009  0.0021  0.0001 </r>
        <r>  0.0000  0.0007  0.0008  0.0008  0.0009  0.0001  0.0001  0.0003  0.0000 </r>
        <r>  0.0000  0.0016  0.0015  0.0010  0.0007  0.0001  0.0000  0.0002  0.0000 </r>
        <r>  0.0001  0.0024  0.0000  0.0023  0.0000  0.0000  0.0000  0.0000  0.0000 </r>
        <r>  0.0001  0.0045  0.0001  0.0011  0.0000  0.0000  0.0000  0.0000  0.0000 </r>
        <r>  0.0000  0.0002  0.0001  0.0069  0.0000  0.0000  0.0000  0.0000  0.0000 </r>
        <r>  0.0001  0.0002  0.0002  0.0041  0.0000  0.0000  0.0000  0.0000  0.0000 </r>
        <r>  0.0046  0.0115  0.0020  0.0009  0.0000  0.0000  0.0000  0.0000  0.0000 </r>
        <r>  0.0002  0.0010  0.0005  0.0015  0.0000  0.0000  0.0000  0.0000  0.0000 </r>
        <r>  0.0002  0.0020  0.0007  0.0007  0.0000  0.0000  0.0000  0.0000  0.0000 </r>
        <r>  0.0024  0.0066  0.0009  0.0014  0.0000  0.0000  0.0000  0.0000  0.0000 </r>
       </set>
       <set comment="band 70">
        <r>  0.0250  0.0051  0.0010  0.0013  0.0005  0.0047  0.0006  0.0001  0.0027 </r>
        <r>  0.0275  0.0070  0.0014  0.0001  0.0002  0.0034  0.0008  0.0000  0.0038 </r>
        <r>  0.0589  0.0166  0.0034  0.0004  0.0002  0.0003  0.0020  0.0000  0.0089 </r>
        <r>  0.0142  0.0002  0.0001  0.0006  0.0003  0.0109  0.0000  0.0000  0.0001 </r>
        <r>  0.0000  0.0017  0.0004  0.0025  0.0006  0.0005  0.0004  0.0001  0.0000 </r>
        <r>  0.0000  0.0004  0.0015  0.0048  0.0055  0.0003  0.0002  0.0015  0.0000 </r>
        <r>  0.0000  0.0012  0.0006  0.0103  0.0131  0.0004  0.0003  0.0035  0.0000 </r>
        <r>  0.0000  0.0036  0.0000  0.0044  0.0042  0.0009  0.0007  0.0011  0.0000 </r>
        <r>  0.0001  0.0017  0.0001  0.0081  0.0000  0.0000  0.0000  0.0000  0.0000 </r>
        <r>  0.0000  0.0004  0.0002  0.0025  0.0000  0.0000  0.0000  0.0000  0.0000 </r>
        <r>  0.0000  0.0014  0.0001  0.0003  0.0000  0.0000  0.0000  0.0000  0.0000 </r>
        <r>  0.0001  0.0039  0.0000  0.0035  0.0000  0.0000  0.0000  0.0000  0.0000 </r>
        <r>  0.0005  0.0001  0.0014  0.0011  0.0000  0.0000  0.0000  0.0000  0.0000 </r>
        <r>  0.0014  0.0037  0.0010  0.0021  0.0000  0.0000  0.0000  0.0000  0.0000 </r>
        <r>  0.0038  0.0122  0.0010  0.0007  0.0000  0.0000  0.0000  0.0000  0.0000 </r>
        <r>  0.0017  0.0051  0.0008  0.0005  0.0000  0.0000  0.0000  0.0000  0.0000 </r>
       </set>
       <set comment="band 71">
        <r>  0.0951  0.0203  0.0042  0.0005  0.0002  0.0032  0.0023  0.0000  0.0101 </r>
        <r>  0.0018  0.0019  0.0002  0.0001  0.0001  0.0117  0.0004  0.0000  0.0018 </r>
        <r>  0.0228  0.0062  0.0013  0.0018  0.0009  0.0004  0.0008  0.0001  0.0033 </r>
        <r>  0.0059  0.0004  0.0001  0.0000  0.0000  0.0040  0.0001  0.0000  0.0003 </r>
        <r>  0.0000  0.0019  0.0018  0.0011  0.0005  0.0001  0.0000  0.0001  0.0000 </r>
        <r>  0.0000  0.0003  0.0006  0.0003  0.0006  0.0001  0.0001  0.0002  0.0000 </r>
        <r>  0.0000  0.0033  0.0002  0.0040  0.0049  0.0014  0.0011  0.0013  0.0001 </r>
        <r>  0.0000  0.0014  0.0000  0.0166  0.0177  0.0004  0.0003  0.0046  0.0000 </r>
        <r>  0.0001  0.0000  0.0002  0.0029  0.0000  0.0000  0.0000  0.0000  0.0000 </r>
        <r>  0.0000  0.0002  0.0001  0.0086  0.0000  0.0000  0.0000  0.0000  0.0000 </r>
        <r>  0.0001  0.0057  0.0001  0.0003  0.0000  0.0000  0.0000  0.0000  0.0000 </r>
        <r>  0.0000  0.0015  0.0000  0.0027  0.0000  0.0000  0.0000  0.0000  0.0000 </r>
        <r>  0.0002  0.0003  0.0005  0.0018  0.0000  0.0000  0.0000  0.0000  0.0000 </r>
        <r>  0.0057  0.0141  0.0025  0.0008  0.0000  0.0000  0.0000  0.0000  0.0000 </r>
        <r>  0.0015  0.0045  0.0004  0.0015  0.0000  0.0000  0.0000  0.0000  0.0000 </r>
        <r>  0.0000  0.0020  0.0008  0.0003  0.0000  0.0000  0.0000  0.0000  0.0000 </r>
       </set>
       <set comment="band 72">
        <r>  0.0006  0.0024  0.0003  0.0006  0.0005  0.0057  0.0004  0.0000  0.0019 </r>
        <r>  0.0565  0.0107  0.0025  0.0011  0.0003  0.0032  0.0012  0.0000  0.0051 </r>
        <r>  0.0390  0.0040  0.0009  0.0000  0.0000  0.0084  0.0003  0.0000  0.0016 </r>
        <r>  0.0276  0.0116  0.0026  0.0010  0.0005  0.0014  0.0014  0.0001  0.0068 </r>
        <r>  0.0000  0.0016  0.0002  0.0050  0.0084  0.0011  0.0008  0.0023  0.0000 </r>
        <r>  0.0000  0.0035  0.0004  0.0100  0.0093  0.0005  0.0004  0.0025  0.0000 </r>
        <r>  0.0000  0.0016  0.0009  0.0069  0.0052  0.0000  0.0000  0.0012  0.0000 </r>
        <r>  0.0000  0.0003  0.0013  0.0001  0.0009  0.0005  0.0004  0.0003  0.0001 </r>
        <r>  0.0000  0.0033  0.0000  0.0011  0.0000  0.0000  0.0000  0.0000  0.0000 </r>
        <r>  0.0002  0.0020  0.0000  0.0026  0.0000  0.0000  0.0000  0.0000  0.0000 </r>
        <r>  0.0001  0.0002  0.0001  0.0063  0.0000  0.0000  0.0000  0.0000  0.0000 </r>
        <r>  0.0000  0.0017  0.0004  0.0039  0.0000  0.0000  0.0000  0.0000  0.0000 </r>
        <r>  0.0020  0.0088  0.0003  0.0008  0.0000  0.0000  0.0000  0.0000  0.0000 </r>
        <r>  0.0001  0.0024  0.0002  0.0002  0.0000  0.0000  0.0000  0.0000  0.0000 </r>
        <r>  0.0018  0.0022  0.0020  0.0011  0.0000  0.0000  0.0000  0.0000  0.0000 </r>
        <r>  0.0034  0.0074  0.0016  0.0031  0.0000  0.0000  0.0000  0.0000  0.0000 </r>
       </set>
      </set>
     </set>
    </set>
   </array>
  </projected>
 </calculation>
 <structure name="finalpos" >
  <crystal>
   <varray name="basis" >
    <v>       3.80157474       0.00000000       0.00000000 </v>
    <v>      -0.00000000       6.07432056       0.00000000 </v>
    <v>       0.00000000       0.00000000      14.49176048 </v>
   </varray>
   <i name="volume">    334.64349539 </i>
   <varray name="rec_basis" >
    <v>       0.26304889       0.00000000       0.00000000 </v>
    <v>       0.00000000       0.16462747       0.00000000 </v>
    <v>      -0.00000000      -0.00000000       0.06900473 </v>
   </varray>
  </crystal>
  <varray name="positions" >
   <v>       0.25000000       0.25010162       0.82821842 </v>
   <v>       0.25000000       0.75010162       0.67178158 </v>
   <v>       0.75000000       0.74989838       0.17178158 </v>
   <v>       0.75000000       0.24989838       0.32821842 </v>
   <v>       0.25000000       0.72881200       0.43458741 </v>
   <v>       0.75000000       0.27118800       0.56541259 </v>
   <v>       0.25000000       0.22881200       0.06541259 </v>
   <v>       0.75000000       0.77118800       0.93458741 </v>
   <v>       0.25000000       0.12368586       0.40104516 </v>
   <v>       0.75000000       0.87631414       0.59895484 </v>
   <v>       0.25000000       0.62368586       0.09895484 </v>
   <v>       0.75000000       0.37631414       0.90104516 </v>
   <v>       0.75000000       0.62427265       0.32157721 </v>
   <v>       0.25000000       0.87572735       0.82157721 </v>
   <v>       0.75000000       0.12427265       0.17842279 </v>
   <v>       0.25000000       0.37572735       0.67842279 </v>
  </varray>
 </structure>
</modeling>
