 vasp.6.4.2 20Jul23 (build Mar 15 2024 16:31:38) complex                        
  
 executed on             LinuxIFC date 2025.03.14  16:41:20
 running  120 mpi-ranks, on    3 nodes
 distrk:  each k-point on  120 cores,    1 groups
 distr:  one band on NCORE=  10 cores,   12 groups


--------------------------------------------------------------------------------------------------------


 INCAR:
   ALGO = Fast
   CSHIFT = 1e-05
   EDIFF = 1e-05
   ENAUG = 1360
   ENCUT = 680
   GGA = Ps
   ISMEAR = -5
   ISPIN = 1
   ISYM = 2
   LAECHG = True
   LASPH = True
   LCHARG = False
   LELF = False
   LMAXMIX = 4
   LMIXTAU = True
   LOPTICS = True
   LORBIT = 11
   LREAL = False
   LVTOT = True
   LWAVE = False
   NBANDS = 58
   NCORE = 10
   NEDOS = 2000
   NELM = 200
   NSW = 0
   PREC = Accurate
   SIGMA = 0.05

 POTCAR:    PAW_PBE Ga_d 06Jul2010                
 POTCAR:    PAW_PBE As 22Sep2009                  
 WARNING: For LVTOT=.TRUE., VASP.5.x writes the TOTAL local potential to the
     file LOCPOT. If you want only the Hartree contributions, use LVHAR=.TRUE.
     instead. 

 POTCAR:    PAW_PBE Ga_d 06Jul2010                
   VRHFIN =Ga: s2p1                                                                                 
   LEXCH  = PE                                                                                      
   EATOM  =  2148.8298 eV,  157.9345 Ry                                                             
                                                                                                    
   TITEL  = PAW_PBE Ga_d 06Jul2010                                                                  
   LULTRA =        F    use ultrasoft PP ?                                                          
   IUNSCR =        1    unscreen: 0-lin 1-nonlin 2-no                                               
   RPACOR =    1.700    partial core radius                                                         
   POMASS =   69.723; ZVAL   =   13.000    mass and valenz                                          
   RCORE  =    2.300    outmost cutoff radius                                                       
   RWIGS  =    2.300; RWIGS  =    1.217    wigner-seitz radius (au A)                               
   ENMAX  =  282.691; ENMIN  =  212.018 eV                                                          
   ICORE  =        3    local potential                                                             
   LCOR   =        T    correct aug charges                                                         
   LPAW   =        T    paw PP                                                                      
   EAUG   =  490.690                                                                                
   DEXC   =    0.000                                                                                
   RMAX   =    2.341    core radius for proj-oper                                                   
   RAUG   =    1.300    factor for augmentation sphere                                              
   RDEP   =    2.413    radius for radial grids                                                     
   RDEPT  =    1.856    core radius for aug-charge                                                  
                                                                                                    
   Atomic configuration                                                                             
    9 entries                                                                                       
     n  l   j            E        occ.                                                              
     1  0  0.50    -10228.7831   2.0000                                                             
     2  0  0.50     -1262.1604   2.0000                                                             
     2  1  1.50     -1098.6333   6.0000                                                             
     3  0  0.50      -148.1110   2.0000                                                             
     3  1  1.50       -98.8436   6.0000                                                             
     3  2  2.50       -19.1549  10.0000                                                             
     4  0  0.50        -8.9483   2.0000                                                             
     4  1  0.50        -2.5791   1.0000                                                             
     4  3  2.50        -2.7416   0.0000                                                             
   Description                                                                                      
     l       E           TYP  RCUT    TYP  RCUT                                                     
     2    -19.1549037     23  2.300                                                                 
     2     -5.4423304     23  2.300                                                                 
     0     -8.9483111     23  2.300                                                                 
     0     68.0291300     23  2.300                                                                 
     1     -2.5790802     23  2.100                                                                 
     1     81.6349560     23  2.300                                                                 
     3      6.8029130     23  2.300                                                                 
  local pseudopotential read in
  partial core-charges read in
  partial kinetic energy density read in
  atomic valenz-charges read in
  non local Contribution for L=           2  read in
    real space projection operators read in
  non local Contribution for L=           2  read in
    real space projection operators read in
  non local Contribution for L=           0  read in
    real space projection operators read in
  non local Contribution for L=           0  read in
    real space projection operators read in
  non local Contribution for L=           1  read in
    real space projection operators read in
  non local Contribution for L=           1  read in
    real space projection operators read in
    PAW grid and wavefunctions read in
 
   number of l-projection  operators is LMAX  =           6
   number of lm-projection operators is LMMAX =          18
 
 POTCAR:    PAW_PBE As 22Sep2009                  
   VRHFIN =As: s2p3                                                                                 
   LEXCH  = PE                                                                                      
   EATOM  =   170.1867 eV,   12.5084 Ry                                                             
                                                                                                    
   TITEL  = PAW_PBE As 22Sep2009                                                                    
   LULTRA =        F    use ultrasoft PP ?                                                          
   IUNSCR =        1    unscreen: 0-lin 1-nonlin 2-no                                               
   RPACOR =    1.900    partial core radius                                                         
   POMASS =   74.922; ZVAL   =    5.000    mass and valenz                                          
   RCORE  =    2.100    outmost cutoff radius                                                       
   RWIGS  =    2.300; RWIGS  =    1.217    wigner-seitz radius (au A)                               
   ENMAX  =  208.702; ENMIN  =  156.526 eV                                                          
   ICORE  =        3    local potential                                                             
   LCOR   =        T    correct aug charges                                                         
   LPAW   =        T    paw PP                                                                      
   EAUG   =  462.758                                                                                
   DEXC   =    0.000                                                                                
   RMAX   =    2.144    core radius for proj-oper                                                   
   RAUG   =    1.300    factor for augmentation sphere                                              
   RDEP   =    2.140    radius for radial grids                                                     
   RDEPT  =    1.956    core radius for aug-charge                                                  
                                                                                                    
   Atomic configuration                                                                             
   10 entries                                                                                       
     n  l   j            E        occ.                                                              
     1  0  0.50    -11718.0418   2.0000                                                             
     2  0  0.50     -1486.5454   2.0000                                                             
     2  1  1.50     -1303.3889   6.0000                                                             
     3  0  0.50      -190.2849   2.0000                                                             
     3  1  1.50      -133.6555   6.0000                                                             
     3  2  2.50       -40.6443  10.0000                                                             
     4  0  0.50       -14.4936   2.0000                                                             
     4  1  0.50        -5.1947   3.0000                                                             
     4  2  1.50        -5.4423   0.0000                                                             
     4  3  2.50        -5.4423   0.0000                                                             
   Description                                                                                      
     l       E           TYP  RCUT    TYP  RCUT                                                     
     0    -14.4935570     23  2.100                                                                 
     0    -11.9212055     23  2.100                                                                 
     1     -5.1947127     23  2.100                                                                 
     1     27.2116520     23  2.100                                                                 
     2     -5.4423304     23  2.100                                                                 
     3     -1.3605826      7  2.100                                                                 
  local pseudopotential read in
  partial core-charges read in
  partial kinetic energy density read in
  atomic valenz-charges read in
  non local Contribution for L=           0  read in
    real space projection operators read in
  non local Contribution for L=           0  read in
    real space projection operators read in
  non local Contribution for L=           1  read in
    real space projection operators read in
  non local Contribution for L=           1  read in
    real space projection operators read in
  non local Contribution for L=           2  read in
    real space projection operators read in
    PAW grid and wavefunctions read in
 
   number of l-projection  operators is LMAX  =           5
   number of lm-projection operators is LMMAX =          13
 
 -----------------------------------------------------------------------------
|                                                                             |
|               ----> ADVICE to this user running VASP <----                  |
|                                                                             |
|     You enforced a specific xc type in the INCAR file but a different       |
|     type was found in the POTCAR file.                                      |
|     I HOPE YOU KNOW WHAT YOU ARE DOING!                                     |
|                                                                             |
 -----------------------------------------------------------------------------

  PAW_PBE Ga_d 06Jul2010                :
 energy of atom  1       EATOM=-2148.8298
 kinetic energy error for atom=    0.0008 (will be added to EATOM!!)
  PAW_PBE As 22Sep2009                  :
 energy of atom  2       EATOM= -170.1867
 kinetic energy error for atom=    0.0003 (will be added to EATOM!!)
 
 
 POSCAR: Ga4 As4
  positions in direct lattice
  No initial velocities read in
 exchange correlation table for  LEXCH =       14
   RHO(1)=    0.500       N(1)  =     2000
   RHO(2)=  100.500       N(2)  =     4000
 


--------------------------------------------------------------------------------------------------------


 ion  position               nearest neighbor table
   1  0.000  0.000  0.000-   6 2.49   7 2.49   8 2.49   5 2.49
   2  0.500  0.500  0.000-   5 2.49   6 2.49   8 2.49   7 2.49
   3  0.500  0.000  0.500-   5 2.49   6 2.49   7 2.49   8 2.49
   4  0.000  0.500  0.500-   5 2.49   7 2.49   8 2.49   6 2.49
   5  0.250  0.250  0.250-   2 2.49   3 2.49   4 2.49   1 2.49
   6  0.250  0.750  0.750-   1 2.49   2 2.49   3 2.49   4 2.49
   7  0.750  0.750  0.250-   1 2.49   3 2.49   4 2.49   2 2.49
   8  0.750  0.250  0.750-   1 2.49   2 2.49   4 2.49   3 2.49
 
  LATTYP: Found a simple cubic cell.
 ALAT       =     5.7501821000
  
  Lattice vectors:
  
 A1 = (   5.7501821000,   0.0000000000,   0.0000000000)
 A2 = (  -0.0000000000,   5.7501821000,   0.0000000000)
 A3 = (   0.0000000000,   0.0000000000,   5.7501821000)


Analysis of symmetry for initial positions (statically):
=====================================================================
 Subroutine PRICEL returns following result:
 
  LATTYP: Found a face centered cubic cell.
 ALAT       =     5.7501821000
  
  Lattice vectors:
  
 A1 = (   2.8750910500,  -2.8750910500,   0.0000000000)
 A2 = (   2.8750910500,   0.0000000000,   2.8750910500)
 A3 = (   0.0000000000,  -2.8750910500,   2.8750910500)
 
   4 primitive cells build up your supercell.
 

 Routine SETGRP: Setting up the symmetry group for a 
 simple cubic supercell.


 Subroutine GETGRP returns: Found 24 space group operations
 (whereof 24 operations were pure point group operations)
 out of a pool of 48 trial point group operations.


The static configuration has the point symmetry T_d .


Analysis of symmetry for dynamics (positions and initial velocities):
=====================================================================
 Subroutine PRICEL returns following result:
 
  LATTYP: Found a face centered cubic cell.
 ALAT       =     5.7501821000
  
  Lattice vectors:
  
 A1 = (   2.8750910500,  -2.8750910500,   0.0000000000)
 A2 = (   2.8750910500,   0.0000000000,   2.8750910500)
 A3 = (   0.0000000000,  -2.8750910500,   2.8750910500)
 
   4 primitive cells build up your supercell.
 

 Routine SETGRP: Setting up the symmetry group for a 
 simple cubic supercell.


 Subroutine GETGRP returns: Found 24 space group operations
 (whereof 24 operations were pure point group operations)
 out of a pool of 48 trial point group operations.


The dynamic configuration has the point symmetry T_d .


 Subroutine INISYM returns: Found 24 space group operations
 (whereof 24 operations are pure point group operations),
 and found     4 'primitive' translations


----------------------------------------------------------------------------------------

                                     Primitive cell                                     

  volume of cell :      47.5319

  direct lattice vectors                    reciprocal lattice vectors
     2.875091050 -2.875091050  0.000000000     0.173907536 -0.173907536 -0.173907536
     2.875091050  0.000000000  2.875091050     0.173907536  0.173907536  0.173907536
     0.000000000 -2.875091050  2.875091050    -0.173907536 -0.173907536  0.173907536

  length of vectors
     4.065992756  4.065992756  4.065992756     0.301216688  0.301216688  0.301216688

  position of ions in fractional coordinates (direct lattice)
     0.000000000  0.000000000  0.000000000
     0.750000000  0.750000000  0.750000000

  ion indices of the primitive-cell ions
   primitive index   ion index
                 1           1
                 2           5

----------------------------------------------------------------------------------------

 
 
 KPOINTS: pymatgen with grid density = 1044 / numb

Automatic generation of k-mesh.
 Grid dimensions read from file:
 generate k-points for:    5    5    5

 Generating k-lattice:

  Cartesian coordinates                     Fractional coordinates (reciprocal lattice)
     0.034781507  0.000000000  0.000000000     0.200000000 -0.000000000  0.000000000
     0.000000000  0.034781507  0.000000000     0.000000000  0.200000000  0.000000000
    -0.000000000 -0.000000000  0.034781507     0.000000000  0.000000000  0.200000000

  Length of vectors
     0.034781507  0.034781507  0.034781507

  Shift w.r.t. Gamma in fractional coordinates (k-lattice)
     0.000000000  0.000000000  0.000000000

 TETIRR: Found     57 inequivalent tetrahedra from      750
 
 Subroutine IBZKPT returns following result:
 ===========================================
 
 Found     10 irreducible k-points:
 
 Following reciprocal coordinates:
            Coordinates               Weight
  0.000000  0.000000  0.000000      1.000000
  0.200000 -0.000000  0.000000      6.000000
  0.400000 -0.000000  0.000000      6.000000
  0.200000  0.200000  0.000000     12.000000
  0.400000  0.200000  0.000000     24.000000
  0.400000  0.400000  0.000000     12.000000
  0.200000  0.200000  0.200000      8.000000
  0.400000  0.200000  0.200000     24.000000
  0.400000  0.400000  0.200000     24.000000
  0.400000  0.400000  0.400000      8.000000
 
 Following cartesian coordinates:
            Coordinates               Weight
  0.000000  0.000000  0.000000      1.000000
  0.034782  0.000000  0.000000      6.000000
  0.069563  0.000000  0.000000      6.000000
  0.034782  0.034782  0.000000     12.000000
  0.069563  0.034782  0.000000     24.000000
  0.069563  0.069563  0.000000     12.000000
  0.034782  0.034782  0.034782      8.000000
  0.069563  0.034782  0.034782     24.000000
  0.069563  0.069563  0.034782     24.000000
  0.069563  0.069563  0.069563      8.000000
 
 -----------------------------------------------------------------------------
|                                                                             |
|           W    W    AA    RRRRR   N    N  II  N    N   GGGG   !!!           |
|           W    W   A  A   R    R  NN   N  II  NN   N  G    G  !!!           |
|           W    W  A    A  R    R  N N  N  II  N N  N  G       !!!           |
|           W WW W  AAAAAA  RRRRR   N  N N  II  N  N N  G  GGG   !            |
|           WW  WW  A    A  R   R   N   NN  II  N   NN  G    G                |
|           W    W  A    A  R    R  N    N  II  N    N   GGGG   !!!           |
|                                                                             |
|     The number of bands has been changed from the values supplied in        |
|     the INCAR file. This is a result of running the parallel version.       |
|     The orbitals not found in the WAVECAR file will be initialized with     |
|     random numbers, which is usually adequate. For correlated               |
|     calculations, however, you should redo the groundstate calculation.     |
|     I found NBANDS = 58. Now, NBANDS = 60.                                  |
|                                                                             |
 -----------------------------------------------------------------------------



--------------------------------------------------------------------------------------------------------




 Dimension of arrays:
   k-points           NKPTS =     10   k-points in BZ     NKDIM =     10   number of bands    NBANDS=     60
   number of dos      NEDOS =   2000   number of ions     NIONS =      8
   non local maximal  LDIM  =      6   non local SUM 2l+1 LMDIM =     18
   total plane-waves  NPLWV = 125000
   max r-space proj   IRMAX =      1   max aug-charges    IRDMAX=  27402
   dimension x,y,z NGX =    50 NGY =   50 NGZ =   50
   dimension x,y,z NGXF=   100 NGYF=  100 NGZF=  100
   support grid    NGXF=   100 NGYF=  100 NGZF=  100
   ions per type =               4   4
   NGX,Y,Z   is equivalent  to a cutoff of  14.46, 14.46, 14.46 a.u.
   NGXF,Y,Z  is equivalent  to a cutoff of  28.91, 28.91, 28.91 a.u.

 SYSTEM =  unknown system                          
 POSCAR =  Ga4 As4                                 

 Startparameter for this run:
   NWRITE =      2    write-flag & timer
   PREC   = accura    normal or accurate (medium, high low for compatibility)
   ISTART =      1    job   : 0-new  1-cont  2-samecut
   ICHARG =      0    charge: 1-file 2-atom 10-const
   ISPIN  =      1    spin polarized calculation?
   LNONCOLLINEAR =      F non collinear calculations
   LSORBIT =      F    spin-orbit coupling
   INIWAV =      1    electr: 0-lowe 1-rand  2-diag
   LASPH  =      T    aspherical Exc in radial PAW
 Electronic Relaxation 1
   ENCUT  =  680.0 eV  49.98 Ry    7.07 a.u.  12.23 12.23 12.23*2*pi/ulx,y,z
   ENINI  =  680.0     initial cutoff
   ENAUG  = 1360.0 eV  augmentation charge cutoff
   NELM   =    200;   NELMIN=  2; NELMDL=  0     # of ELM steps 
   EDIFF  = 0.1E-04   stopping-criterion for ELM
   LREAL  =      F    real-space projection
   NLSPLINE    = F    spline interpolate recip. space projectors
   LCOMPAT=      F    compatible to vasp.4.4
   GGA_COMPAT  = T    GGA compatible to vasp.4.4-vasp.4.6
   LMAXPAW     = -100 max onsite density
   LMAXMIX     =    4 max onsite mixed and CHGCAR
   VOSKOWN=      0    Vosko Wilk Nusair interpolation
   ROPT   =    0.00000   0.00000
 Ionic relaxation
   EDIFFG = 0.1E-03   stopping-criterion for IOM
   NSW    =      0    number of steps for IOM
   NBLOCK =      1;   KBLOCK =      1    inner block; outer block 
   IBRION =     -1    ionic relax: 0-MD 1-quasi-New 2-CG
   NFREE  =      0    steps in history (QN), initial steepest desc. (CG)
   ISIF   =      2    stress and relaxation
   IWAVPR =     10    prediction:  0-non 1-charg 2-wave 3-comb
   ISYM   =      2    0-nonsym 1-usesym 2-fastsym
   LCORR  =      T    Harris-Foulkes like correction to forces

   POTIM  = 0.5000    time-step for ionic-motion
   TEIN   =    0.0    initial temperature
   TEBEG  =    0.0;   TEEND  =   0.0 temperature during run
   SMASS  =  -3.00    Nose mass-parameter (am)
   estimated Nose-frequenzy (Omega)   =  0.10E-29 period in steps = 0.13E+47 mass=  -0.756E-27a.u.
   SCALEE = 1.0000    scale energy and forces
   NPACO  =    256;   APACO  = 10.0  distance and # of slots for P.C.
   PSTRESS=    0.0 pullay stress

  Mass of Ions in am
   POMASS =  69.72 74.92
  Ionic Valenz
   ZVAL   =  13.00  5.00
  Atomic Wigner-Seitz radii
   RWIGS  =  -1.00 -1.00
  virtual crystal weights 
   VCA    =   1.00  1.00
   NELECT =      72.0000    total number of electrons
   NUPDOWN=      -1.0000    fix difference up-down

 DOS related values:
   EMIN   =  10.00;   EMAX   =-10.00  energy-range for DOS
   EFERMI =   0.00;   METHOD = LEGACY      
   ISMEAR =    -5;   SIGMA  =   0.05  broadening in eV -4-tet -1-fermi 0-gaus

 Electronic relaxation 2 (details)
   IALGO  =     68    algorithm
   LDIAG  =      T    sub-space diagonalisation (order eigenvalues)
   LSUBROT=      F    optimize rotation matrix (better conditioning)
   TURBO    =      0    0=normal 1=particle mesh
   IRESTART =      0    0=no restart 2=restart with 2 vectors
   NREBOOT  =      0    no. of reboots
   NMIN     =      0    reboot dimension
   EREF     =   0.00    reference energy to select bands
   IMIX   =      4    mixing-type and parameters
     AMIX     =   0.40;   BMIX     =  1.00
     AMIX_MAG =   1.60;   BMIX_MAG =  1.00
     AMIN     =   0.10
     WC   =   100.;   INIMIX=   1;  MIXPRE=   1;  MAXMIX= -45

 Intra band minimization:
   WEIMIN = 0.0000     energy-eigenvalue tresh-hold
   EBREAK =  0.42E-07  absolut break condition
   DEPER  =   0.30     relativ break condition  

   TIME   =   0.40     timestep for ELM

  volume/ion in A,a.u.               =      23.77       160.38
  Fermi-wavevector in a.u.,A,eV,Ry     =   1.184415  2.238221 19.086796  1.402840
  Thomas-Fermi vector in A             =   2.320630
 
 Write flags
   LWAVE        =      F    write WAVECAR
   LDOWNSAMPLE  =      F    k-point downsampling of WAVECAR
   LCHARG       =      F    write CHGCAR
   LVTOT        =      T    write LOCPOT, total local potential
   LVHAR        =      F    write LOCPOT, Hartree potential only
   LELF         =      F    write electronic localiz. function (ELF)
   LORBIT       =     11    0 simple, 1 ext, 2 COOP (PROOUT), +10 PAW based schemes


 Dipole corrections
   LMONO  =      F    monopole corrections only (constant potential shift)
   LDIPOL =      F    correct potential (dipole corrections)
   IDIPOL =      0    1-x, 2-y, 3-z, 4-all directions 
   EPSILON=  1.0000000 bulk dielectric constant

 Exchange correlation treatment:
   GGA     =    PS    GGA type
   LEXCH   =    14    internal setting for exchange type
   LIBXC   =     F    Libxc                    
   VOSKOWN =     0    Vosko Wilk Nusair interpolation
   LHFCALC =     F    Hartree Fock is set to
   LHFONE  =     F    Hartree Fock one center treatment
   AEXX    =    0.0000 exact exchange contribution

 Linear response parameters
   LEPSILON=     F    determine dielectric tensor
   LRPA    =     F    only Hartree local field effects (RPA)
   LNABLA  =     F    use nabla operator in PAW spheres
   LVEL    =     F    velocity operator in full k-point grid
   CSHIFT  =0.0000    complex shift for real part using Kramers Kronig
   OMEGAMAX=  -1.0    maximum frequency
   DEG_THRESHOLD= 0.2000000E-02 threshold for treating states as degnerate
   RTIME   =   -0.100 relaxation time in fs
  (WPLASMAI=    0.000 imaginary part of plasma frequency in eV, 0.658/RTIME)
   DFIELD  = 0.0000000 0.0000000 0.0000000 field for delta impulse in time
 
  Optional k-point grid parameters
   LKPOINTS_OPT  =     F    use optional k-point grid
   KPOINTS_OPT_MODE=     1    mode for optional k-point grid
 
 Orbital magnetization related:
   ORBITALMAG=     F  switch on orbital magnetization
   LCHIMAG   =     F  perturbation theory with respect to B field
   DQ        =  0.001000  dq finite difference perturbation B field
   LLRAUG    =     F  two centre corrections for induced B field
   LBONE     =     F  B-component reconstruction in AE one-centre
   LVGVCALC  =     T  calculate vGv susceptibility
   LVGVAPPL  =     F  apply vGv susceptibility instead of pGv for G=0

 Random number generation:
   RANDOM_GENERATOR = DEFAULT
   PCG_SEED         = not used


--------------------------------------------------------------------------------------------------------


 Static calculation
 charge density and potential will be updated during run
 non-spin polarized calculation
 RMM-DIIS sequential band-by-band and
  variant of blocked Davidson during initial phase
 perform sub-space diagonalisation
    before iterative eigenvector-optimisation
 modified Broyden-mixing scheme, WC =      100.0
 initial mixing is a Kerker type mixing with AMIX =  0.4000 and BMIX =      1.0000
 Hartree-type preconditioning will be used
 using additional bands           24
 reciprocal scheme for non local part
 use partial core corrections
 calculate Harris-corrections to forces 
   (improved forces if not selfconsistent)
 use gradient corrections 
 use of overlap-Matrix (Vanderbilt PP)
 Fermi weights with tetrahedron method with Bloechl corrections


--------------------------------------------------------------------------------------------------------


  energy-cutoff  :      680.00
  volume of cell :      190.13
      direct lattice vectors                 reciprocal lattice vectors
     5.750182100  0.000000000  0.000000000     0.173907536  0.000000000  0.000000000
    -0.000000000  5.750182100  0.000000000     0.000000000  0.173907536  0.000000000
     0.000000000  0.000000000  5.750182100    -0.000000000 -0.000000000  0.173907536

  length of vectors
     5.750182100  5.750182100  5.750182100     0.173907536  0.173907536  0.173907536


 
 old parameters found on file WAVECAR:
  energy-cutoff  :      680.00
  volume of cell :      181.56
      direct lattice vectors                 reciprocal lattice vectors
     5.662477870  0.000000000  0.000000000     0.176601132  0.000000000  0.000000000
    -0.000000000  5.662477870  0.000000000     0.000000000  0.176601132  0.000000000
     0.000000000  0.000000000  5.662477870    -0.000000000 -0.000000000  0.176601132

  length of vectors

 
 k-points in units of 2pi/SCALE and weight: pymatgen with grid density = 1044 / numb
   0.00000000  0.00000000  0.00000000       0.008
   0.03478151  0.00000000  0.00000000       0.048
   0.06956301  0.00000000  0.00000000       0.048
   0.03478151  0.03478151  0.00000000       0.096
   0.06956301  0.03478151  0.00000000       0.192
   0.06956301  0.06956301  0.00000000       0.096
   0.03478151  0.03478151  0.03478151       0.064
   0.06956301  0.03478151  0.03478151       0.192
   0.06956301  0.06956301  0.03478151       0.192
   0.06956301  0.06956301  0.06956301       0.064
 
 k-points in reciprocal lattice and weights: pymatgen with grid density = 1044 / numb
   0.00000000  0.00000000  0.00000000       0.008
   0.20000000 -0.00000000  0.00000000       0.048
   0.40000000 -0.00000000  0.00000000       0.048
   0.20000000  0.20000000  0.00000000       0.096
   0.40000000  0.20000000  0.00000000       0.192
   0.40000000  0.40000000  0.00000000       0.096
   0.20000000  0.20000000  0.20000000       0.064
   0.40000000  0.20000000  0.20000000       0.192
   0.40000000  0.40000000  0.20000000       0.192
   0.40000000  0.40000000  0.40000000       0.064
 
 position of ions in fractional coordinates (direct lattice) 
   0.00000000  0.00000000  0.00000000
   0.50000000  0.50000000  0.00000000
   0.50000000  0.00000000  0.50000000
   0.00000000  0.50000000  0.50000000
   0.25000000  0.25000000  0.25000000
   0.25000000  0.75000000  0.75000000
   0.75000000  0.75000000  0.25000000
   0.75000000  0.25000000  0.75000000
 
 position of ions in cartesian coordinates  (Angst):
   0.00000000  0.00000000  0.00000000
   2.87509105  2.87509105  0.00000000
   2.87509105  0.00000000  2.87509105
  -0.00000000  2.87509105  2.87509105
   1.43754552  1.43754552  1.43754553
   1.43754552  4.31263657  4.31263657
   4.31263657  4.31263657  1.43754553
   4.31263657  1.43754552  4.31263657
 


--------------------------------------------------------------------------------------------------------


 k-point   1 :   0.0000 0.0000 0.0000  plane waves:    7689
 k-point   2 :   0.2000-0.0000 0.0000  plane waves:    7657
 k-point   3 :   0.4000-0.0000 0.0000  plane waves:    7680
 k-point   4 :   0.2000 0.2000 0.0000  plane waves:    7681
 k-point   5 :   0.4000 0.2000 0.0000  plane waves:    7656
 k-point   6 :   0.4000 0.4000 0.0000  plane waves:    7644
 k-point   7 :   0.2000 0.2000 0.2000  plane waves:    7631
 k-point   8 :   0.4000 0.2000 0.2000  plane waves:    7655
 k-point   9 :   0.4000 0.4000 0.2000  plane waves:    7665
 k-point  10 :   0.4000 0.4000 0.4000  plane waves:    7682

 maximum and minimum number of plane-waves per node :       787      749

 maximum number of plane-waves:      7689
 maximum index in each direction: 
   IXMAX=   12   IYMAX=   12   IZMAX=   12
   IXMIN=  -12   IYMIN=  -12   IZMIN=  -12


 parallel 3D FFT for wavefunctions:
    minimum data exchange during FFTs selected (reduces bandwidth)
 parallel 3D FFT for charge:
    minimum data exchange during FFTs selected (reduces bandwidth)


 total amount of memory used by VASP MPI-rank0    34769. kBytes
=======================================================================

   base      :      30000. kBytes
   nonl-proj :       2310. kBytes
   fftplans  :        739. kBytes
   grid      :       1072. kBytes
   one-center:         15. kBytes
   wavefun   :        633. kBytes
 
     INWAV:  cpu time      0.2040: real time      0.2520
 Broyden mixing: mesh for mixing (old mesh)
   NGX = 25   NGY = 25   NGZ = 25
  (NGX  =100   NGY  =100   NGZ  =100)
  gives a total of  15625 points

 charge density for first step will be calculated from the start-wavefunctions


--------------------------------------------------------------------------------------------------------


 Maximum index for augmentation-charges         1005 (set IRDMAX)


--------------------------------------------------------------------------------------------------------


 initial charge from wavefunction
 First call to EWALD:  gamma=   0.308
 Maximum number of real-space cells 3x 3x 3
 Maximum number of reciprocal cells 3x 3x 3

    FEWALD:  cpu time      0.0026: real time      0.0028


--------------------------------------- Ionic step        1  -------------------------------------------




--------------------------------------- Iteration      1(   1)  ---------------------------------------


    POTLOK:  cpu time      0.0157: real time      0.0181
    SETDIJ:  cpu time      0.1529: real time      0.1539
     EDDAV:  cpu time      0.3616: real time      0.3692
 BZINTS: Fermi energy:    3.158079;   72.000000 electrons
         Band energy:-0.615048E+03;  BLOECHL correction:   -0.000000
       DOS:  cpu time      0.0073: real time      0.0074
    CHARGE:  cpu time      0.0296: real time      0.0297
    MIXING:  cpu time      0.0058: real time      0.0065
    --------------------------------------------
      LOOP:  cpu time      0.5729: real time      0.5847

 eigenvalue-minimisations  :  1524
 total energy-change (2. order) :-0.3690191E+02  (-0.3168399E+01)
 number of electron      71.9999995 magnetization 
 augmentation part       30.9990360 magnetization 

 Broyden mixing:
  rms(total) = 0.44715E+00    rms(broyden)= 0.44715E+00
  rms(prec ) = 0.74162E+00
  weight for this iteration     100.00

 Free energy of the ion-electron system (eV)
  ---------------------------------------------------
  alpha Z        PSCENC =       229.21542276
  Ewald energy   TEWEN  =     -4976.98459255
  -Hartree energ DENC   =     -2874.61232135
  -exchange      EXHF   =         0.00000000
  -V(xc)+E(xc)   XCENC  =       132.93337583
  PAW double counting   =      8017.20907852    -9221.15807656
  entropy T*S    EENTRO =         0.00000000
  eigenvalues    EBANDS =      -615.04847364
  atomic energy  EATOM  =      9271.54367517
  Solvation  Ediel_sol  =         0.00000000
  ---------------------------------------------------
  free energy    TOTEN  =       -36.90191181 eV

  energy without entropy =      -36.90191181  energy(sigma->0) =      -36.90191181


--------------------------------------------------------------------------------------------------------




--------------------------------------- Iteration      1(   2)  ---------------------------------------


    POTLOK:  cpu time      0.0133: real time      0.0272
    SETDIJ:  cpu time      0.1498: real time      0.1501
    EDDIAG:  cpu time      0.0881: real time      0.0891
  RMM-DIIS:  cpu time      0.1174: real time      0.1177
    ORTHCH:  cpu time      0.0107: real time      0.0107
 BZINTS: Fermi energy:    3.231474;   72.000000 electrons
         Band energy:-0.535376E+03;  BLOECHL correction:    0.000000
       DOS:  cpu time      0.0061: real time      0.0061
    CHARGE:  cpu time      0.0283: real time      0.0283
    MIXING:  cpu time      0.0015: real time      0.0015
    --------------------------------------------
      LOOP:  cpu time      0.4150: real time      0.4308

 eigenvalue-minimisations  :  1865
 total energy-change (2. order) : 0.7258071E+00  (-0.8836155E+00)
 number of electron      71.9999995 magnetization 
 augmentation part       30.6352856 magnetization 

 Broyden mixing:
  rms(total) = 0.21959E+00    rms(broyden)= 0.21959E+00
  rms(prec ) = 0.28069E+00
  weight for this iteration     100.00

 eigenvalues of (default mixing * dielectric matrix)
  average eigenvalue GAMMA=   1.2348
  1.2348

 Free energy of the ion-electron system (eV)
  ---------------------------------------------------
  alpha Z        PSCENC =       229.21542276
  Ewald energy   TEWEN  =     -4976.98459255
  -Hartree energ DENC   =     -2916.28037820
  -exchange      EXHF   =         0.00000000
  -V(xc)+E(xc)   XCENC  =       134.45223769
  PAW double counting   =      8041.57283231    -9284.31934248
  entropy T*S    EENTRO =         0.00000000
  eigenvalues    EBANDS =      -535.37595940
  atomic energy  EATOM  =      9271.54367517
  Solvation  Ediel_sol  =         0.00000000
  ---------------------------------------------------
  free energy    TOTEN  =       -36.17610469 eV

  energy without entropy =      -36.17610469  energy(sigma->0) =      -36.17610469


--------------------------------------------------------------------------------------------------------




--------------------------------------- Iteration      1(   3)  ---------------------------------------


    POTLOK:  cpu time      0.0096: real time      0.0294
    SETDIJ:  cpu time      0.1498: real time      0.1502
    EDDIAG:  cpu time      0.0827: real time      0.0830
  RMM-DIIS:  cpu time      0.1149: real time      0.1152
    ORTHCH:  cpu time      0.0110: real time      0.0110
 BZINTS: Fermi energy:    3.304572;   72.000000 electrons
         Band energy:-0.512660E+03;  BLOECHL correction:    0.000000
       DOS:  cpu time      0.0061: real time      0.0061
    CHARGE:  cpu time      0.0302: real time      0.0303
    MIXING:  cpu time      0.0004: real time      0.0004
    --------------------------------------------
      LOOP:  cpu time      0.4046: real time      0.4256

 eigenvalue-minimisations  :  1858
 total energy-change (2. order) :-0.8399023E-01  (-0.1873506E+00)
 number of electron      71.9999995 magnetization 
 augmentation part       30.5251182 magnetization 

 Broyden mixing:
  rms(total) = 0.13467E+00    rms(broyden)= 0.13467E+00
  rms(prec ) = 0.15176E+00
  weight for this iteration     100.00

 eigenvalues of (default mixing * dielectric matrix)
  average eigenvalue GAMMA=   1.9930
  1.3358  2.6502

 Free energy of the ion-electron system (eV)
  ---------------------------------------------------
  alpha Z        PSCENC =       229.21542276
  Ewald energy   TEWEN  =     -4976.98459255
  -Hartree energ DENC   =     -2929.56723664
  -exchange      EXHF   =         0.00000000
  -V(xc)+E(xc)   XCENC  =       134.94013817
  PAW double counting   =      7990.07366313    -9242.82109524
  entropy T*S    EENTRO =         0.00000000
  eigenvalues    EBANDS =      -512.66006972
  atomic energy  EATOM  =      9271.54367517
  Solvation  Ediel_sol  =         0.00000000
  ---------------------------------------------------
  free energy    TOTEN  =       -36.26009492 eV

  energy without entropy =      -36.26009492  energy(sigma->0) =      -36.26009492


--------------------------------------------------------------------------------------------------------




--------------------------------------- Iteration      1(   4)  ---------------------------------------


    POTLOK:  cpu time      0.0117: real time      0.0301
    SETDIJ:  cpu time      0.1502: real time      0.1505
    EDDIAG:  cpu time      0.0840: real time      0.0842
  RMM-DIIS:  cpu time      0.1081: real time      0.1084
    ORTHCH:  cpu time      0.0109: real time      0.0109
 BZINTS: Fermi energy:    3.376457;   72.000000 electrons
         Band energy:-0.514387E+03;  BLOECHL correction:    0.000000
       DOS:  cpu time      0.0060: real time      0.0061
    CHARGE:  cpu time      0.0255: real time      0.0256
    MIXING:  cpu time      0.0004: real time      0.0004
    --------------------------------------------
      LOOP:  cpu time      0.3968: real time      0.4162

 eigenvalue-minimisations  :  1996
 total energy-change (2. order) :-0.2609396E-01  (-0.3423278E-01)
 number of electron      71.9999995 magnetization 
 augmentation part       30.5653754 magnetization 

 Broyden mixing:
  rms(total) = 0.22174E-01    rms(broyden)= 0.22174E-01
  rms(prec ) = 0.46123E-01
  weight for this iteration     100.00

 eigenvalues of (default mixing * dielectric matrix)
  average eigenvalue GAMMA=   1.6563
  2.3661  1.3014  1.3014

 Free energy of the ion-electron system (eV)
  ---------------------------------------------------
  alpha Z        PSCENC =       229.21542276
  Ewald energy   TEWEN  =     -4976.98459255
  -Hartree energ DENC   =     -2930.83472686
  -exchange      EXHF   =         0.00000000
  -V(xc)+E(xc)   XCENC  =       134.96338152
  PAW double counting   =      7887.09996990    -9136.90199482
  entropy T*S    EENTRO =         0.00000000
  eigenvalues    EBANDS =      -514.38732401
  atomic energy  EATOM  =      9271.54367517
  Solvation  Ediel_sol  =         0.00000000
  ---------------------------------------------------
  free energy    TOTEN  =       -36.28618888 eV

  energy without entropy =      -36.28618888  energy(sigma->0) =      -36.28618888


--------------------------------------------------------------------------------------------------------




--------------------------------------- Iteration      1(   5)  ---------------------------------------


    POTLOK:  cpu time      0.0137: real time      0.0282
    SETDIJ:  cpu time      0.1492: real time      0.1495
    EDDIAG:  cpu time      0.0753: real time      0.0755
  RMM-DIIS:  cpu time      0.0989: real time      0.0992
    ORTHCH:  cpu time      0.0110: real time      0.0111
 BZINTS: Fermi energy:    3.363083;   72.000000 electrons
         Band energy:-0.508067E+03;  BLOECHL correction:    0.000000
       DOS:  cpu time      0.0060: real time      0.0060
    CHARGE:  cpu time      0.0249: real time      0.0250
    MIXING:  cpu time      0.0003: real time      0.0003
    --------------------------------------------
      LOOP:  cpu time      0.3794: real time      0.3947

 eigenvalue-minimisations  :  1820
 total energy-change (2. order) : 0.7476492E-03  (-0.4818087E-02)
 number of electron      71.9999995 magnetization 
 augmentation part       30.5342786 magnetization 

 Broyden mixing:
  rms(total) = 0.13189E-01    rms(broyden)= 0.13189E-01
  rms(prec ) = 0.19141E-01
  weight for this iteration     100.00

 eigenvalues of (default mixing * dielectric matrix)
  average eigenvalue GAMMA=   1.6288
  2.1713  2.1713  1.0863  1.0863

 Free energy of the ion-electron system (eV)
  ---------------------------------------------------
  alpha Z        PSCENC =       229.21542276
  Ewald energy   TEWEN  =     -4976.98459255
  -Hartree energ DENC   =     -2934.22411874
  -exchange      EXHF   =         0.00000000
  -V(xc)+E(xc)   XCENC  =       135.06921791
  PAW double counting   =      7903.89128075    -9156.72925972
  entropy T*S    EENTRO =         0.00000000
  eigenvalues    EBANDS =      -508.06706680
  atomic energy  EATOM  =      9271.54367517
  Solvation  Ediel_sol  =         0.00000000
  ---------------------------------------------------
  free energy    TOTEN  =       -36.28544123 eV

  energy without entropy =      -36.28544123  energy(sigma->0) =      -36.28544123


--------------------------------------------------------------------------------------------------------




--------------------------------------- Iteration      1(   6)  ---------------------------------------


    POTLOK:  cpu time      0.0088: real time      0.0251
    SETDIJ:  cpu time      0.1492: real time      0.1496
    EDDIAG:  cpu time      0.0766: real time      0.0767
  RMM-DIIS:  cpu time      0.1234: real time      0.1237
    ORTHCH:  cpu time      0.0108: real time      0.0108
 BZINTS: Fermi energy:    3.348800;   72.000000 electrons
         Band energy:-0.510344E+03;  BLOECHL correction:    0.000000
       DOS:  cpu time      0.0059: real time      0.0059
    CHARGE:  cpu time      0.0370: real time      0.0371
    MIXING:  cpu time      0.0004: real time      0.0004
    --------------------------------------------
      LOOP:  cpu time      0.4120: real time      0.4293

 eigenvalue-minimisations  :  1938
 total energy-change (2. order) :-0.8025899E-05  (-0.1088232E-02)
 number of electron      71.9999995 magnetization 
 augmentation part       30.5453679 magnetization 

 Broyden mixing:
  rms(total) = 0.73342E-02    rms(broyden)= 0.73342E-02
  rms(prec ) = 0.93096E-02
  weight for this iteration     100.00

 eigenvalues of (default mixing * dielectric matrix)
  average eigenvalue GAMMA=   1.6118
  2.8970  1.1071  1.1071  1.4740  1.4740

 Free energy of the ion-electron system (eV)
  ---------------------------------------------------
  alpha Z        PSCENC =       229.21542276
  Ewald energy   TEWEN  =     -4976.98459255
  -Hartree energ DENC   =     -2933.19580443
  -exchange      EXHF   =         0.00000000
  -V(xc)+E(xc)   XCENC  =       135.02394322
  PAW double counting   =      7899.68874651    -9151.23302753
  entropy T*S    EENTRO =         0.00000000
  eigenvalues    EBANDS =      -510.34381241
  atomic energy  EATOM  =      9271.54367517
  Solvation  Ediel_sol  =         0.00000000
  ---------------------------------------------------
  free energy    TOTEN  =       -36.28544926 eV

  energy without entropy =      -36.28544926  energy(sigma->0) =      -36.28544926


--------------------------------------------------------------------------------------------------------




--------------------------------------- Iteration      1(   7)  ---------------------------------------


    POTLOK:  cpu time      0.0087: real time      0.0264
    SETDIJ:  cpu time      0.1493: real time      0.1497
    EDDIAG:  cpu time      0.0745: real time      0.0746
  RMM-DIIS:  cpu time      0.1036: real time      0.1038
    ORTHCH:  cpu time      0.0107: real time      0.0107
 BZINTS: Fermi energy:    3.359357;   72.000000 electrons
         Band energy:-0.510118E+03;  BLOECHL correction:    0.000000
       DOS:  cpu time      0.0059: real time      0.0059
    CHARGE:  cpu time      0.0249: real time      0.0250
    MIXING:  cpu time      0.0004: real time      0.0004
    --------------------------------------------
      LOOP:  cpu time      0.3780: real time      0.3965

 eigenvalue-minimisations  :  1897
 total energy-change (2. order) :-0.1370381E-03  (-0.1968723E-03)
 number of electron      71.9999995 magnetization 
 augmentation part       30.5446889 magnetization 

 Broyden mixing:
  rms(total) = 0.37150E-02    rms(broyden)= 0.37150E-02
  rms(prec ) = 0.50864E-02
  weight for this iteration     100.00

 eigenvalues of (default mixing * dielectric matrix)
  average eigenvalue GAMMA=   1.6451
  2.5907  2.5907  1.3477  1.3477  0.9969  0.9969

 Free energy of the ion-electron system (eV)
  ---------------------------------------------------
  alpha Z        PSCENC =       229.21542276
  Ewald energy   TEWEN  =     -4976.98459255
  -Hartree energ DENC   =     -2933.44014953
  -exchange      EXHF   =         0.00000000
  -V(xc)+E(xc)   XCENC  =       135.03342005
  PAW double counting   =      7892.68892109    -9144.22388132
  entropy T*S    EENTRO =         0.00000000
  eigenvalues    EBANDS =      -510.11840197
  atomic energy  EATOM  =      9271.54367517
  Solvation  Ediel_sol  =         0.00000000
  ---------------------------------------------------
  free energy    TOTEN  =       -36.28558629 eV

  energy without entropy =      -36.28558629  energy(sigma->0) =      -36.28558629


--------------------------------------------------------------------------------------------------------




--------------------------------------- Iteration      1(   8)  ---------------------------------------


    POTLOK:  cpu time      0.0085: real time      0.0253
    SETDIJ:  cpu time      0.1493: real time      0.1496
    EDDIAG:  cpu time      0.0756: real time      0.0759
  RMM-DIIS:  cpu time      0.0992: real time      0.0995
    ORTHCH:  cpu time      0.0107: real time      0.0107
 BZINTS: Fermi energy:    3.365581;   72.000000 electrons
         Band energy:-0.510814E+03;  BLOECHL correction:    0.000000
       DOS:  cpu time      0.0059: real time      0.0059
    CHARGE:  cpu time      0.0248: real time      0.0249
    MIXING:  cpu time      0.0004: real time      0.0004
    --------------------------------------------
      LOOP:  cpu time      0.3743: real time      0.3921

 eigenvalue-minimisations  :  1815
 total energy-change (2. order) : 0.1426881E-04  (-0.4030994E-04)
 number of electron      71.9999995 magnetization 
 augmentation part       30.5474881 magnetization 

 Broyden mixing:
  rms(total) = 0.10543E-02    rms(broyden)= 0.10543E-02
  rms(prec ) = 0.18189E-02
  weight for this iteration     100.00

 eigenvalues of (default mixing * dielectric matrix)
  average eigenvalue GAMMA=   1.5530
  2.7099  2.7099  1.2815  1.2815  1.0934  1.0934  0.7011

 Free energy of the ion-electron system (eV)
  ---------------------------------------------------
  alpha Z        PSCENC =       229.21542276
  Ewald energy   TEWEN  =     -4976.98459255
  -Hartree energ DENC   =     -2933.03291747
  -exchange      EXHF   =         0.00000000
  -V(xc)+E(xc)   XCENC  =       135.01913446
  PAW double counting   =      7894.24527379    -9145.47738472
  entropy T*S    EENTRO =         0.00000000
  eigenvalues    EBANDS =      -510.81418348
  atomic energy  EATOM  =      9271.54367517
  Solvation  Ediel_sol  =         0.00000000
  ---------------------------------------------------
  free energy    TOTEN  =       -36.28557203 eV

  energy without entropy =      -36.28557203  energy(sigma->0) =      -36.28557203


--------------------------------------------------------------------------------------------------------




--------------------------------------- Iteration      1(   9)  ---------------------------------------


    POTLOK:  cpu time      0.0087: real time      0.0265
    SETDIJ:  cpu time      0.1492: real time      0.1496
    EDDIAG:  cpu time      0.0753: real time      0.0755
  RMM-DIIS:  cpu time      0.0868: real time      0.0870
    ORTHCH:  cpu time      0.0107: real time      0.0107
 BZINTS: Fermi energy:    3.342750;   72.000000 electrons
         Band energy:-0.510682E+03;  BLOECHL correction:    0.000000
       DOS:  cpu time      0.0060: real time      0.0060
    --------------------------------------------
      LOOP:  cpu time      0.3367: real time      0.3553

 eigenvalue-minimisations  :  1543
 total energy-change (2. order) :-0.2274404E-05  (-0.8812704E-05)
 number of electron      71.9999995 magnetization 
 augmentation part       30.5474881 magnetization 

 Free energy of the ion-electron system (eV)
  ---------------------------------------------------
  alpha Z        PSCENC =       229.21542276
  Ewald energy   TEWEN  =     -4976.98459255
  -Hartree energ DENC   =     -2933.11830205
  -exchange      EXHF   =         0.00000000
  -V(xc)+E(xc)   XCENC  =       135.02164218
  PAW double counting   =      7894.23898067    -9145.51997541
  entropy T*S    EENTRO =         0.00000000
  eigenvalues    EBANDS =      -510.68242506
  atomic energy  EATOM  =      9271.54367517
  Solvation  Ediel_sol  =         0.00000000
  ---------------------------------------------------
  free energy    TOTEN  =       -36.28557430 eV

  energy without entropy =      -36.28557430  energy(sigma->0) =      -36.28557430


--------------------------------------------------------------------------------------------------------




 average (electrostatic) potential at core
  the test charge radii are     1.0314  1.0621
  (the norm of the test charge is              1.0000)
       1 -66.6298       2 -66.6298       3 -66.6298       4 -66.6298       5 -50.6410
       6 -50.6410       7 -50.6410       8 -50.6410
 
 
 
 E-fermi :   3.3427     XC(G=0):  -9.5476     alpha+bet : -9.2550

 Fermi energy:         3.3427497904

 k-point     1 :       0.0000    0.0000    0.0000
  band No.  band energies     occupation 
      1     -11.4462      2.00000
      2     -11.4462      2.00000
      3     -11.4462      2.00000
      4     -11.3519      2.00000
      5     -11.3519      2.00000
      6     -11.3519      2.00000
      7     -11.3104      2.00000
      8     -11.3104      2.00000
      9     -11.3104      2.00000
     10     -11.3104      2.00000
     11     -11.3104      2.00000
     12     -11.3104      2.00000
     13     -11.3046      2.00000
     14     -11.3046      2.00000
     15     -11.3046      2.00000
     16     -11.2836      2.00000
     17     -11.2836      2.00000
     18     -11.2726      2.00000
     19     -11.2726      2.00000
     20     -11.2726      2.00000
     21      -9.0573      2.00000
     22      -6.7549      2.00000
     23      -6.7549      2.00000
     24      -6.7549      2.00000
     25      -3.2779      2.00000
     26      -3.2779      2.00000
     27      -3.2779      2.00000
     28       0.8174      2.00000
     29       0.8174      2.00000
     30       0.8174      2.00000
     31       0.8174      2.00000
     32       0.8174      2.00000
     33       0.8174      2.00000
     34       3.3410      2.00000
     35       3.3410      2.00000
     36       3.3410      2.00000
     37       3.4247      0.00000
     38       4.7839      0.00000
     39       4.7839      0.00000
     40       4.7839      0.00000
     41       4.9364      0.00000
     42       4.9364      0.00000
     43       4.9364      0.00000
     44       7.0169      0.00000
     45       7.0169      0.00000
     46       7.0169      0.00000
     47      10.5748      0.00000
     48      13.1300      0.00000
     49      13.1999      0.00000
     50      13.2243      0.00000
     51      13.2972      0.00000
     52      13.3469      0.00000
     53      13.6947      0.00000
     54      13.6782      0.00000
     55      14.0792      0.00000
     56      13.9859      0.00000
     57      14.5810      0.00000
     58      15.8016      0.00000
     59      16.3934      0.00000
     60      37.1411      0.00000

 k-point     2 :       0.2000   -0.0000    0.0000
  band No.  band energies     occupation 
      1     -11.4426      2.00000
      2     -11.4426      2.00000
      3     -11.4389      2.00000
      4     -11.3633      2.00000
      5     -11.3481      2.00000
      6     -11.3481      2.00000
      7     -11.3154      2.00000
      8     -11.3154      2.00000
      9     -11.3145      2.00000
     10     -11.3145      2.00000
     11     -11.3122      2.00000
     12     -11.3122      2.00000
     13     -11.3023      2.00000
     14     -11.3005      2.00000
     15     -11.3005      2.00000
     16     -11.2851      2.00000
     17     -11.2825      2.00000
     18     -11.2745      2.00000
     19     -11.2745      2.00000
     20     -11.2737      2.00000
     21      -8.9113      2.00000
     22      -7.1352      2.00000
     23      -6.7384      2.00000
     24      -6.7384      2.00000
     25      -3.2235      2.00000
     26      -3.2235      2.00000
     27      -2.7198      2.00000
     28       0.5004      2.00000
     29       0.5004      2.00000
     30       0.5675      2.00000
     31       0.5675      2.00000
     32       0.9739      2.00000
     33       0.9739      2.00000
     34       1.6701      2.00000
     35       2.9170      2.00000
     36       2.9170      2.00000
     37       4.7348      0.00000
     38       5.0462      0.00000
     39       5.3764      0.00000
     40       5.4836      0.00000
     41       5.4836      0.00000
     42       5.6420      0.00000
     43       5.6420      0.00000
     44       6.5387      0.00000
     45       7.6258      0.00000
     46       7.6258      0.00000
     47      11.3694      0.00000
     48      11.7407      0.00000
     49      11.7727      0.00000
     50      11.7735      0.00000
     51      11.9431      0.00000
     52      12.0136      0.00000
     53      12.1990      0.00000
     54      12.3877      0.00000
     55      12.8066      0.00000
     56      13.8248      0.00000
     57      13.9374      0.00000
     58      14.9150      0.00000
     59      15.5956      0.00000
     60      15.8854      0.00000

 k-point     3 :       0.4000   -0.0000    0.0000
  band No.  band energies     occupation 
      1     -11.4360      2.00000
      2     -11.4360      2.00000
      3     -11.4184      2.00000
      4     -11.3899      2.00000
      5     -11.3379      2.00000
      6     -11.3379      2.00000
      7     -11.3251      2.00000
      8     -11.3251      2.00000
      9     -11.3243      2.00000
     10     -11.3243      2.00000
     11     -11.3137      2.00000
     12     -11.3137      2.00000
     13     -11.2965      2.00000
     14     -11.2942      2.00000
     15     -11.2942      2.00000
     16     -11.2898      2.00000
     17     -11.2798      2.00000
     18     -11.2788      2.00000
     19     -11.2788      2.00000
     20     -11.2764      2.00000
     21      -8.4905      2.00000
     22      -7.8506      2.00000
     23      -6.7113      2.00000
     24      -6.7113      2.00000
     25      -3.1261      2.00000
     26      -3.1261      2.00000
     27      -1.4771      2.00000
     28       0.0323      2.00000
     29       0.0680      2.00000
     30       0.0680      2.00000
     31       0.2396      2.00000
     32       0.2396      2.00000
     33       1.4289      2.00000
     34       1.4289      2.00000
     35       2.1279      2.00000
     36       2.1279      2.00000
     37       5.0080      0.00000
     38       5.5773      0.00000
     39       6.1289      0.00000
     40       6.3726      0.00000
     41       7.1423      0.00000
     42       7.1423      0.00000
     43       7.1872      0.00000
     44       7.1872      0.00000
     45       8.9593      0.00000
     46       8.9606      0.00000
     47       9.4091      0.00000
     48       9.4091      0.00000
     49       9.8327      0.00000
     50       9.8328      0.00000
     51      10.4339      0.00000
     52      10.5407      0.00000
     53      10.5537      0.00000
     54      11.0588      0.00000
     55      13.3183      0.00000
     56      14.0474      0.00000
     57      14.1572      0.00000
     58      14.3276      0.00000
     59      15.4096      0.00000
     60      15.9925      0.00000

 k-point     4 :       0.2000    0.2000    0.0000
  band No.  band energies     occupation 
      1     -11.4392      2.00000
      2     -11.4360      2.00000
      3     -11.4360      2.00000
      4     -11.3701      2.00000
      5     -11.3477      2.00000
      6     -11.3453      2.00000
      7     -11.3192      2.00000
      8     -11.3192      2.00000
      9     -11.3188      2.00000
     10     -11.3158      2.00000
     11     -11.3158      2.00000
     12     -11.3141      2.00000
     13     -11.2989      2.00000
     14     -11.2989      2.00000
     15     -11.2979      2.00000
     16     -11.2849      2.00000
     17     -11.2828      2.00000
     18     -11.2761      2.00000
     19     -11.2751      2.00000
     20     -11.2751      2.00000
     21      -8.7698      2.00000
     22      -7.0820      2.00000
     23      -7.0820      2.00000
     24      -6.7568      2.00000
     25      -3.1668      2.00000
     26      -2.7560      2.00000
     27      -2.7560      2.00000
     28      -0.1065      2.00000
     29       0.5725      2.00000
     30       0.5725      2.00000
     31       0.7973      2.00000
     32       0.8733      2.00000
     33       0.8733      2.00000
     34       1.0755      2.00000
     35       2.4598      2.00000
     36       3.1797      2.00000
     37       5.1047      0.00000
     38       5.1257      0.00000
     39       5.4939      0.00000
     40       5.4939      0.00000
     41       5.9781      0.00000
     42       5.9781      0.00000
     43       6.9577      0.00000
     44       7.1232      0.00000
     45       7.3071      0.00000
     46       8.1795      0.00000
     47      10.2933      0.00000
     48      10.2933      0.00000
     49      11.4445      0.00000
     50      11.7064      0.00000
     51      11.8097      0.00000
     52      12.0174      0.00000
     53      12.1044      0.00000
     54      12.2735      0.00000
     55      12.2954      0.00000
     56      13.0534      0.00000
     57      13.2804      0.00000
     58      14.1675      0.00000
     59      14.3210      0.00000
     60      15.3606      0.00000

 k-point     5 :       0.4000    0.2000    0.0000
  band No.  band energies     occupation 
      1     -11.4327      2.00000
      2     -11.4312      2.00000
      3     -11.4176      2.00000
      4     -11.3923      2.00000
      5     -11.3394      2.00000
      6     -11.3375      2.00000
      7     -11.3284      2.00000
      8     -11.3268      2.00000
      9     -11.3260      2.00000
     10     -11.3259      2.00000
     11     -11.3172      2.00000
     12     -11.3168      2.00000
     13     -11.2940      2.00000
     14     -11.2927      2.00000
     15     -11.2921      2.00000
     16     -11.2883      2.00000
     17     -11.2804      2.00000
     18     -11.2799      2.00000
     19     -11.2791      2.00000
     20     -11.2772      2.00000
     21      -8.3632      2.00000
     22      -7.7509      2.00000
     23      -6.9544      2.00000
     24      -6.8275      2.00000
     25      -3.0272      2.00000
     26      -2.8688      2.00000
     27      -1.7189      2.00000
     28      -0.4863      2.00000
     29      -0.3409      2.00000
     30      -0.0521      2.00000
     31       0.8376      2.00000
     32       0.9669      2.00000
     33       1.0318      2.00000
     34       1.5659      2.00000
     35       1.6474      2.00000
     36       2.4916      2.00000
     37       5.7775      0.00000
     38       5.9452      0.00000
     39       6.0144      0.00000
     40       6.5072      0.00000
     41       6.5640      0.00000
     42       7.0459      0.00000
     43       7.3628      0.00000
     44       8.3510      0.00000
     45       8.5394      0.00000
     46       8.6652      0.00000
     47       8.7646      0.00000
     48       9.0209      0.00000
     49       9.4953      0.00000
     50      10.1828      0.00000
     51      10.4778      0.00000
     52      11.1115      0.00000
     53      11.4275      0.00000
     54      12.0896      0.00000
     55      12.2453      0.00000
     56      12.6431      0.00000
     57      13.4322      0.00000
     58      13.7679      0.00000
     59      14.2770      0.00000
     60      14.6998      0.00000

 k-point     6 :       0.4000    0.4000    0.0000
  band No.  band energies     occupation 
      1     -11.4250      2.00000
      2     -11.4185      2.00000
      3     -11.4185      2.00000
      4     -11.4026      2.00000
      5     -11.3370      2.00000
      6     -11.3354      2.00000
      7     -11.3318      2.00000
      8     -11.3318      2.00000
      9     -11.3290      2.00000
     10     -11.3268      2.00000
     11     -11.3268      2.00000
     12     -11.3242      2.00000
     13     -11.2888      2.00000
     14     -11.2888      2.00000
     15     -11.2869      2.00000
     16     -11.2860      2.00000
     17     -11.2828      2.00000
     18     -11.2818      2.00000
     19     -11.2804      2.00000
     20     -11.2804      2.00000
     21      -8.0025      2.00000
     22      -7.4804      2.00000
     23      -7.4804      2.00000
     24      -7.1270      2.00000
     25      -2.7210      2.00000
     26      -2.2345      2.00000
     27      -2.2345      2.00000
     28      -1.3927      2.00000
     29      -0.2943      2.00000
     30       0.2109      2.00000
     31       0.2109      2.00000
     32       0.8348      2.00000
     33       1.7664      2.00000
     34       1.8252      2.00000
     35       1.8252      2.00000
     36       2.6080      2.00000
     37       5.6938      0.00000
     38       5.8419      0.00000
     39       6.4112      0.00000
     40       6.4112      0.00000
     41       7.6347      0.00000
     42       7.6348      0.00000
     43       8.0779      0.00000
     44       8.1876      0.00000
     45       8.3892      0.00000
     46       8.3893      0.00000
     47       8.7815      0.00000
     48       9.0449      0.00000
     49       9.6772      0.00000
     50       9.8658      0.00000
     51      10.1322      0.00000
     52      10.1411      0.00000
     53      11.2846      0.00000
     54      11.6019      0.00000
     55      12.0034      0.00000
     56      12.0374      0.00000
     57      12.3111      0.00000
     58      13.6361      0.00000
     59      14.0397      0.00000
     60      15.7005      0.00000

 k-point     7 :       0.2000    0.2000    0.2000
  band No.  band energies     occupation 
      1     -11.4334      2.00000
      2     -11.4334      2.00000
      3     -11.4334      2.00000
      4     -11.3765      2.00000
      5     -11.3450      2.00000
      6     -11.3450      2.00000
      7     -11.3220      2.00000
      8     -11.3220      2.00000
      9     -11.3220      2.00000
     10     -11.3181      2.00000
     11     -11.3181      2.00000
     12     -11.3181      2.00000
     13     -11.2961      2.00000
     14     -11.2961      2.00000
     15     -11.2961      2.00000
     16     -11.2836      2.00000
     17     -11.2836      2.00000
     18     -11.2763      2.00000
     19     -11.2763      2.00000
     20     -11.2763      2.00000
     21      -8.6334      2.00000
     22      -7.0557      2.00000
     23      -7.0557      2.00000
     24      -7.0557      2.00000
     25      -2.8202      2.00000
     26      -2.8202      2.00000
     27      -2.8202      2.00000
     28       0.0582      2.00000
     29       0.1943      2.00000
     30       0.1943      2.00000
     31       0.1943      2.00000
     32       1.2181      2.00000
     33       1.2181      2.00000
     34       1.2181      2.00000
     35       2.8721      2.00000
     36       2.8721      2.00000
     37       4.6838      0.00000
     38       5.2637      0.00000
     39       5.2637      0.00000
     40       5.2637      0.00000
     41       7.1018      0.00000
     42       7.1018      0.00000
     43       7.1018      0.00000
     44       7.6770      0.00000
     45       7.6770      0.00000
     46       8.2365      0.00000
     47      10.0454      0.00000
     48      10.0454      0.00000
     49      10.0539      0.00000
     50      10.8641      0.00000
     51      10.8994      0.00000
     52      10.9975      0.00000
     53      12.1073      0.00000
     54      12.2033      0.00000
     55      12.2521      0.00000
     56      13.5200      0.00000
     57      13.6932      0.00000
     58      14.6673      0.00000
     59      15.2223      0.00000
     60      16.5119      0.00000

 k-point     8 :       0.4000    0.2000    0.2000
  band No.  band energies     occupation 
      1     -11.4289      2.00000
      2     -11.4289      2.00000
      3     -11.4173      2.00000
      4     -11.3954      2.00000
      5     -11.3397      2.00000
      6     -11.3377      2.00000
      7     -11.3303      2.00000
      8     -11.3282      2.00000
      9     -11.3282      2.00000
     10     -11.3275      2.00000
     11     -11.3205      2.00000
     12     -11.3205      2.00000
     13     -11.2917      2.00000
     14     -11.2904      2.00000
     15     -11.2904      2.00000
     16     -11.2868      2.00000
     17     -11.2805      2.00000
     18     -11.2795      2.00000
     19     -11.2795      2.00000
     20     -11.2776      2.00000
     21      -8.2438      2.00000
     22      -7.6660      2.00000
     23      -7.0116      2.00000
     24      -7.0116      2.00000
     25      -2.9331      2.00000
     26      -2.9331      2.00000
     27      -2.0311      2.00000
     28      -1.0411      2.00000
     29       0.0027      2.00000
     30       0.0027      2.00000
     31       1.0265      2.00000
     32       1.2502      2.00000
     33       1.2502      2.00000
     34       1.6272      2.00000
     35       2.1581      2.00000
     36       2.2348      2.00000
     37       5.3174      0.00000
     38       5.6064      0.00000
     39       6.0860      0.00000
     40       6.0860      0.00000
     41       7.2095      0.00000
     42       7.2498      0.00000
     43       7.9370      0.00000
     44       7.9370      0.00000
     45       8.5385      0.00000
     46       8.9368      0.00000
     47       9.0295      0.00000
     48       9.1714      0.00000
     49       9.1720      0.00000
     50       9.6358      0.00000
     51      10.6828      0.00000
     52      10.6947      0.00000
     53      11.5604      0.00000
     54      11.9093      0.00000
     55      11.9747      0.00000
     56      12.8881      0.00000
     57      13.1496      0.00000
     58      13.4484      0.00000
     59      14.7710      0.00000
     60      15.1364      0.00000

 k-point     9 :       0.4000    0.4000    0.2000
  band No.  band energies     occupation 
      1     -11.4234      2.00000
      2     -11.4186      2.00000
      3     -11.4186      2.00000
      4     -11.4054      2.00000
      5     -11.3372      2.00000
      6     -11.3361      2.00000
      7     -11.3329      2.00000
      8     -11.3329      2.00000
      9     -11.3308      2.00000
     10     -11.3291      2.00000
     11     -11.3291      2.00000
     12     -11.3271      2.00000
     13     -11.2867      2.00000
     14     -11.2867      2.00000
     15     -11.2855      2.00000
     16     -11.2843      2.00000
     17     -11.2814      2.00000
     18     -11.2813      2.00000
     19     -11.2799      2.00000
     20     -11.2799      2.00000
     21      -7.9107      2.00000
     22      -7.4462      2.00000
     23      -7.4462      2.00000
     24      -7.1900      2.00000
     25      -2.9058      2.00000
     26      -2.5703      2.00000
     27      -2.5703      2.00000
     28      -1.9024      2.00000
     29       0.2924      2.00000
     30       0.7403      2.00000
     31       0.7403      2.00000
     32       1.5211      2.00000
     33       1.8516      2.00000
     34       1.8898      2.00000
     35       1.8898      2.00000
     36       2.5400      2.00000
     37       5.0995      0.00000
     38       5.6296      0.00000
     39       5.8116      0.00000
     40       5.8116      0.00000
     41       7.4645      0.00000
     42       7.4645      0.00000
     43       7.9691      0.00000
     44       8.0086      0.00000
     45       8.0140      0.00000
     46       8.9554      0.00000
     47       8.9554      0.00000
     48       9.0940      0.00000
     49       9.8537      0.00000
     50       9.9366      0.00000
     51       9.9385      0.00000
     52      10.7700      0.00000
     53      12.0448      0.00000
     54      12.2186      0.00000
     55      12.5293      0.00000
     56      12.7776      0.00000
     57      12.9987      0.00000
     58      13.6676      0.00000
     59      13.9744      0.00000
     60      14.4732      0.00000

 k-point    10 :       0.4000    0.4000    0.4000
  band No.  band energies     occupation 
      1     -11.4189      2.00000
      2     -11.4189      2.00000
      3     -11.4189      2.00000
      4     -11.4120      2.00000
      5     -11.3364      2.00000
      6     -11.3364      2.00000
      7     -11.3343      2.00000
      8     -11.3343      2.00000
      9     -11.3343      2.00000
     10     -11.3327      2.00000
     11     -11.3327      2.00000
     12     -11.3327      2.00000
     13     -11.2828      2.00000
     14     -11.2828      2.00000
     15     -11.2828      2.00000
     16     -11.2811      2.00000
     17     -11.2811      2.00000
     18     -11.2799      2.00000
     19     -11.2799      2.00000
     20     -11.2799      2.00000
     21      -7.6710      2.00000
     22      -7.3881      2.00000
     23      -7.3881      2.00000
     24      -7.3881      2.00000
     25      -2.9796      2.00000
     26      -2.9796      2.00000
     27      -2.9796      2.00000
     28      -2.6116      2.00000
     29       1.5008      2.00000
     30       1.5008      2.00000
     31       1.5008      2.00000
     32       2.0747      2.00000
     33       2.0747      2.00000
     34       2.0747      2.00000
     35       2.3423      2.00000
     36       2.3423      2.00000
     37       4.2115      0.00000
     38       4.9518      0.00000
     39       4.9518      0.00000
     40       4.9518      0.00000
     41       7.6395      0.00000
     42       7.6395      0.00000
     43       7.6395      0.00000
     44       7.9363      0.00000
     45       7.9363      0.00000
     46       8.3210      0.00000
     47       8.3210      0.00000
     48       8.3210      0.00000
     49      10.8228      0.00000
     50      11.0085      0.00000
     51      11.0119      0.00000
     52      11.0497      0.00000
     53      12.3261      0.00000
     54      12.7005      0.00000
     55      12.7258      0.00000
     56      12.9423      0.00000
     57      13.8447      0.00000
     58      14.2063      0.00000
     59      15.0186      0.00000
     60      15.9677      0.00000


--------------------------------------------------------------------------------------------------------


 soft charge-density along one line, spin component           1
         0         1         2         3         4         5         6         7         8         9
 total charge-density along one line
 
 pseudopotential strength for first ion, spin component:           1
-14.443  -0.000   0.000   0.000  -0.000   2.276   0.000  -0.000
 -0.000 -14.443   0.000  -0.000  -0.000   0.000   2.276  -0.000
  0.000   0.000 -14.443  -0.000   0.000  -0.000  -0.000   2.276
  0.000  -0.000  -0.000 -14.443  -0.000  -0.000   0.000   0.000
 -0.000  -0.000   0.000  -0.000 -14.443   0.000   0.000   0.000
  2.276   0.000  -0.000  -0.000   0.000   3.874  -0.000   0.000
  0.000   2.276  -0.000   0.000   0.000  -0.000   3.874   0.000
 -0.000  -0.000   2.276   0.000   0.000   0.000   0.000   3.872
 -0.000   0.000   0.000   2.276   0.000   0.000  -0.000  -0.000
  0.000   0.000   0.000   0.000   2.276  -0.000  -0.000  -0.000
  0.000  -0.000   0.000  -0.000  -0.000  -0.000  -0.000  -0.000
 -0.000  -0.000  -0.000   0.000   0.000   0.000   0.000  -0.000
  0.000   0.000   0.000  -0.000  -0.000   0.000   0.000   0.000
 -0.000  -0.000   0.000   0.000   0.000   0.002  -0.000   0.000
 -0.000  -0.000  -0.000   0.000  -0.000  -0.000   0.002  -0.000
  0.000  -0.000   0.000  -0.002   0.000  -0.000  -0.000  -0.000
 -0.002  -0.000  -0.000   0.000   0.000   0.001   0.000  -0.000
  0.000  -0.002  -0.000  -0.000   0.000   0.000   0.001   0.000
 total augmentation occupancy for first ion, spin component:           1
  2.006   0.000   0.000   0.000  -0.000   0.018   0.000   0.000   0.000  -0.000  -0.000  -0.000  -0.000   0.017  -0.000   0.000
  0.000   2.006   0.000  -0.000  -0.000   0.000   0.018   0.000  -0.000  -0.000  -0.000   0.000  -0.000   0.000   0.017  -0.000
  0.000   0.000   2.003   0.000  -0.000   0.000   0.000   0.009   0.000  -0.000  -0.000   0.000   0.000   0.000   0.000   0.000
  0.000  -0.000   0.000   2.006   0.000   0.000  -0.000   0.000   0.018   0.000   0.000   0.000   0.017   0.000  -0.000   0.001
 -0.000  -0.000   0.000   0.000   2.003  -0.000  -0.000  -0.000   0.000   0.009   0.000  -0.000  -0.000  -0.000  -0.000   0.000
  0.018   0.000   0.000   0.000  -0.000   0.038   0.000   0.000   0.000  -0.000  -0.000  -0.000   0.000   0.138   0.000   0.000
  0.000   0.018   0.000  -0.000  -0.000   0.000   0.038   0.000  -0.000  -0.000  -0.000   0.000  -0.000   0.000   0.138   0.000
  0.000   0.000   0.009   0.000  -0.000   0.000   0.000   0.011   0.000  -0.000   0.000  -0.000   0.000   0.000   0.000   0.000
  0.000  -0.000   0.000   0.018   0.000   0.000  -0.000   0.000   0.038   0.000  -0.000   0.000   0.138   0.000  -0.000   0.002
 -0.000  -0.000  -0.000   0.000   0.009  -0.000  -0.000  -0.000   0.000   0.011   0.000  -0.000  -0.000  -0.000   0.000   0.000
 -0.000  -0.000  -0.000  -0.000   0.000  -0.000   0.000   0.000   0.000  -0.000   1.487   0.023  -0.000   0.000   0.000  -0.000
 -0.000   0.000   0.000  -0.000  -0.000   0.000  -0.000   0.000  -0.000   0.000   0.023   0.001  -0.000   0.000   0.000   0.000
 -0.000   0.000   0.000   0.017  -0.000   0.000   0.000   0.000   0.138   0.000  -0.000  -0.000   0.889   0.000  -0.000   0.013
  0.017   0.000   0.000   0.000  -0.000   0.138   0.000   0.000   0.000  -0.000   0.000   0.000   0.000   0.889   0.000   0.000
 -0.000   0.017   0.000  -0.000   0.000  -0.000   0.138   0.000  -0.000  -0.000   0.000  -0.000  -0.000   0.000   0.889  -0.000
  0.000   0.000   0.000   0.001  -0.000   0.000   0.000   0.000   0.002   0.000  -0.000  -0.000   0.013   0.000  -0.000   0.000
  0.001   0.000   0.000   0.000  -0.000   0.002   0.000   0.000   0.000  -0.000  -0.000   0.000   0.000   0.013   0.000   0.000
 -0.000   0.001   0.000  -0.000   0.000   0.000   0.002   0.000  -0.000  -0.000  -0.000  -0.000  -0.000   0.000   0.013  -0.000


------------------------ aborting loop because EDIFF is reached ----------------------------------------





 total charge

# of ion       s       p       d       tot
------------------------------------------
    1        0.884   0.753   9.986  11.623
    2        0.884   0.753   9.986  11.623
    3        0.884   0.753   9.986  11.623
    4        0.884   0.753   9.986  11.623
    5        1.217   1.553   0.028   2.798
    6        1.217   1.553   0.028   2.798
    7        1.217   1.553   0.028   2.798
    8        1.217   1.553   0.028   2.798
--------------------------------------------------
tot          8.406   9.224  40.053  57.684
 
    CHARGE:  cpu time      0.0242: real time      0.0242
    FORLOC:  cpu time      0.0008: real time      0.0009
    FORNL :  cpu time      0.0296: real time      0.0297
    STRESS:  cpu time      0.0847: real time      0.0854
    FORCOR:  cpu time      0.0095: real time      0.0096
    FORHAR:  cpu time      0.0036: real time      0.0038
    MIXING:  cpu time      0.0004: real time      0.0004
    OFIELD:  cpu time      0.0009: real time      0.0009

  FORCE on cell =-STRESS in cart. coord.  units (eV):
  Direction    XX          YY          ZZ          XY          YZ          ZX
  --------------------------------------------------------------------------------------
  Alpha Z   229.21542   229.21542   229.21542
  Ewald   -1658.99707 -1658.99707 -1658.99707    -0.00000    -0.00000     0.00000
  Hartree   977.74041   977.74041   977.74041    -0.00000    -0.00000    -0.00000
  E(xc)    -383.98578  -383.98578  -383.98578     0.00000     0.00000    -0.00000
  Local    -273.12058  -273.12058  -273.12058     0.00000     0.00000    -0.00000
  n-local   183.21438   186.41635   182.64968    -2.43494    -1.61253    -1.25574
  augment   480.32460   480.32460   480.32460    -0.00000    -0.00000     0.00000
  Kinetic   435.20317   446.23865   443.14403    -4.93022    -4.49220    -3.05211
  Fock        0.00000     0.00000     0.00000     0.00000     0.00000     0.00000
  -------------------------------------------------------------------------------------
  Total      -3.20090    -3.20090    -3.20090     0.00000     0.00000     0.00000
  in kB     -26.97357   -26.97357   -26.97357     0.00000     0.00000     0.00000
  external pressure =      -26.97 kB  Pullay stress =        0.00 kB


 VOLUME and BASIS-vectors are now :
 -----------------------------------------------------------------------------
  energy-cutoff  :      680.00
  volume of cell :      190.13
      direct lattice vectors                 reciprocal lattice vectors
[...]
   52.150554    0.914425    0.914425    0.914425    0.000000   -0.000000   -0.000000
   52.179721    0.914523    0.914523    0.914523    0.000000   -0.000000   -0.000000
   52.208888    0.914621    0.914621    0.914621    0.000000   -0.000000   -0.000000
   52.238055    0.914718    0.914718    0.914718    0.000000   -0.000000   -0.000000
   52.267222    0.914816    0.914816    0.914816    0.000000   -0.000000   -0.000000
   52.296389    0.914913    0.914913    0.914913    0.000000   -0.000000   -0.000000
   52.325556    0.915011    0.915011    0.915011    0.000000   -0.000000   -0.000000
   52.354723    0.915108    0.915108    0.915108    0.000000   -0.000000   -0.000000
   52.383890    0.915205    0.915205    0.915205    0.000000   -0.000000   -0.000000
   52.413057    0.915301    0.915301    0.915301    0.000000   -0.000000   -0.000000
   52.442224    0.915398    0.915398    0.915398    0.000000   -0.000000   -0.000000
   52.471391    0.915494    0.915494    0.915494    0.000000   -0.000000   -0.000000
   52.500558    0.915590    0.915590    0.915590    0.000000   -0.000000   -0.000000
   52.529725    0.915687    0.915687    0.915687    0.000000   -0.000000   -0.000000
   52.558892    0.915782    0.915782    0.915782    0.000000   -0.000000   -0.000000
   52.588059    0.915878    0.915878    0.915878    0.000000   -0.000000   -0.000000
   52.617226    0.915974    0.915974    0.915974    0.000000   -0.000000   -0.000000
   52.646393    0.916069    0.916069    0.916069    0.000000   -0.000000   -0.000000
   52.675560    0.916164    0.916164    0.916164    0.000000   -0.000000   -0.000000
   52.704727    0.916260    0.916260    0.916260    0.000000   -0.000000   -0.000000
   52.733894    0.916354    0.916354    0.916354    0.000000   -0.000000   -0.000000
   52.763061    0.916449    0.916449    0.916449    0.000000   -0.000000   -0.000000
   52.792228    0.916544    0.916544    0.916544    0.000000   -0.000000   -0.000000
   52.821395    0.916638    0.916638    0.916638    0.000000   -0.000000   -0.000000
   52.850562    0.916733    0.916733    0.916733    0.000000   -0.000000   -0.000000
   52.879729    0.916827    0.916827    0.916827    0.000000   -0.000000   -0.000000
   52.908896    0.916921    0.916921    0.916921    0.000000   -0.000000   -0.000000
   52.938063    0.917014    0.917014    0.917014    0.000000   -0.000000   -0.000000
   52.967230    0.917108    0.917108    0.917108    0.000000   -0.000000   -0.000000
   52.996397    0.917201    0.917201    0.917201    0.000000   -0.000000   -0.000000
   53.025564    0.917295    0.917295    0.917295    0.000000   -0.000000   -0.000000
   53.054731    0.917388    0.917388    0.917388    0.000000   -0.000000   -0.000000
   53.083898    0.917481    0.917481    0.917481    0.000000   -0.000000   -0.000000
   53.113065    0.917574    0.917574    0.917574    0.000000   -0.000000   -0.000000
   53.142232    0.917666    0.917666    0.917666    0.000000   -0.000000   -0.000000
   53.171399    0.917759    0.917759    0.917759    0.000000   -0.000000   -0.000000
   53.200566    0.917851    0.917851    0.917851    0.000000   -0.000000   -0.000000
   53.229732    0.917944    0.917944    0.917944    0.000000   -0.000000   -0.000000
   53.258899    0.918036    0.918036    0.918036    0.000000   -0.000000   -0.000000
   53.288066    0.918127    0.918127    0.918127    0.000000   -0.000000   -0.000000
   53.317233    0.918219    0.918219    0.918219    0.000000   -0.000000   -0.000000
   53.346400    0.918311    0.918311    0.918311    0.000000   -0.000000   -0.000000
   53.375567    0.918402    0.918402    0.918402    0.000000   -0.000000   -0.000000
   53.404734    0.918493    0.918493    0.918493    0.000000   -0.000000   -0.000000
   53.433901    0.918585    0.918585    0.918585    0.000000   -0.000000   -0.000000
   53.463068    0.918675    0.918675    0.918675    0.000000   -0.000000   -0.000000
   53.492235    0.918766    0.918766    0.918766    0.000000   -0.000000   -0.000000
   53.521402    0.918857    0.918857    0.918857    0.000000   -0.000000   -0.000000
   53.550569    0.918947    0.918947    0.918947    0.000000   -0.000000   -0.000000
   53.579736    0.919038    0.919038    0.919038    0.000000   -0.000000   -0.000000
   53.608903    0.919128    0.919128    0.919128    0.000000   -0.000000   -0.000000
   53.638070    0.919218    0.919218    0.919218    0.000000   -0.000000   -0.000000
   53.667237    0.919308    0.919308    0.919308    0.000000   -0.000000   -0.000000
   53.696404    0.919398    0.919398    0.919398    0.000000   -0.000000   -0.000000
   53.725571    0.919487    0.919487    0.919487    0.000000   -0.000000   -0.000000
   53.754738    0.919577    0.919577    0.919577    0.000000   -0.000000   -0.000000
   53.783905    0.919666    0.919666    0.919666    0.000000   -0.000000   -0.000000
   53.813072    0.919755    0.919755    0.919755    0.000000   -0.000000   -0.000000
   53.842239    0.919844    0.919844    0.919844    0.000000   -0.000000   -0.000000
   53.871406    0.919933    0.919933    0.919933    0.000000   -0.000000   -0.000000
   53.900573    0.920022    0.920022    0.920022    0.000000   -0.000000   -0.000000
   53.929740    0.920110    0.920110    0.920110    0.000000   -0.000000   -0.000000
   53.958907    0.920198    0.920198    0.920198    0.000000   -0.000000   -0.000000
   53.988074    0.920287    0.920287    0.920287    0.000000   -0.000000   -0.000000
   54.017241    0.920375    0.920375    0.920375    0.000000   -0.000000   -0.000000
   54.046408    0.920463    0.920463    0.920463    0.000000   -0.000000   -0.000000
   54.075575    0.920551    0.920551    0.920551    0.000000   -0.000000   -0.000000
   54.104742    0.920638    0.920638    0.920638    0.000000   -0.000000   -0.000000
   54.133909    0.920726    0.920726    0.920726    0.000000   -0.000000   -0.000000
   54.163076    0.920813    0.920813    0.920813    0.000000   -0.000000   -0.000000
   54.192243    0.920900    0.920900    0.920900    0.000000   -0.000000   -0.000000
   54.221410    0.920987    0.920987    0.920987    0.000000   -0.000000   -0.000000
   54.250577    0.921074    0.921074    0.921074    0.000000   -0.000000   -0.000000
   54.279744    0.921161    0.921161    0.921161    0.000000   -0.000000   -0.000000
   54.308911    0.921248    0.921248    0.921248    0.000000   -0.000000   -0.000000
   54.338078    0.921334    0.921334    0.921334    0.000000   -0.000000   -0.000000
   54.367245    0.921420    0.921420    0.921420    0.000000   -0.000000   -0.000000
   54.396412    0.921507    0.921507    0.921507    0.000000   -0.000000   -0.000000
   54.425579    0.921593    0.921593    0.921593    0.000000   -0.000000   -0.000000
   54.454746    0.921679    0.921679    0.921679    0.000000   -0.000000   -0.000000
   54.483912    0.921764    0.921764    0.921764    0.000000   -0.000000   -0.000000
   54.513079    0.921850    0.921850    0.921850    0.000000   -0.000000   -0.000000
   54.542246    0.921936    0.921936    0.921936    0.000000   -0.000000   -0.000000
   54.571413    0.922021    0.922021    0.922021    0.000000   -0.000000   -0.000000
   54.600580    0.922106    0.922106    0.922106    0.000000   -0.000000   -0.000000
   54.629747    0.922191    0.922191    0.922191    0.000000   -0.000000   -0.000000
   54.658914    0.922276    0.922276    0.922276    0.000000   -0.000000   -0.000000
   54.688081    0.922361    0.922361    0.922361    0.000000   -0.000000   -0.000000
   54.717248    0.922446    0.922446    0.922446    0.000000   -0.000000   -0.000000
   54.746415    0.922530    0.922530    0.922530    0.000000   -0.000000   -0.000000
   54.775582    0.922614    0.922614    0.922614    0.000000   -0.000000   -0.000000
   54.804749    0.922699    0.922699    0.922699    0.000000   -0.000000   -0.000000
   54.833916    0.922783    0.922783    0.922783    0.000000   -0.000000   -0.000000
   54.863083    0.922867    0.922867    0.922867    0.000000   -0.000000   -0.000000
   54.892250    0.922950    0.922950    0.922950    0.000000   -0.000000   -0.000000
   54.921417    0.923034    0.923034    0.923034    0.000000   -0.000000   -0.000000
   54.950584    0.923118    0.923118    0.923118    0.000000   -0.000000   -0.000000
   54.979751    0.923201    0.923201    0.923201    0.000000   -0.000000   -0.000000
   55.008918    0.923284    0.923284    0.923284    0.000000   -0.000000   -0.000000
   55.038085    0.923367    0.923367    0.923367    0.000000   -0.000000   -0.000000
   55.067252    0.923450    0.923450    0.923450    0.000000   -0.000000   -0.000000
   55.096419    0.923533    0.923533    0.923533    0.000000   -0.000000   -0.000000
   55.125586    0.923616    0.923616    0.923616    0.000000   -0.000000   -0.000000
   55.154753    0.923699    0.923699    0.923699    0.000000   -0.000000   -0.000000
   55.183920    0.923781    0.923781    0.923781    0.000000   -0.000000   -0.000000
   55.213087    0.923863    0.923863    0.923863    0.000000   -0.000000   -0.000000
   55.242254    0.923945    0.923945    0.923945    0.000000   -0.000000   -0.000000
   55.271421    0.924028    0.924028    0.924028    0.000000   -0.000000   -0.000000
   55.300588    0.924109    0.924109    0.924109    0.000000   -0.000000   -0.000000
   55.329755    0.924191    0.924191    0.924191    0.000000   -0.000000   -0.000000
   55.358922    0.924273    0.924273    0.924273    0.000000   -0.000000   -0.000000
   55.388089    0.924354    0.924354    0.924354    0.000000   -0.000000   -0.000000
   55.417256    0.924436    0.924436    0.924436    0.000000   -0.000000   -0.000000
   55.446423    0.924517    0.924517    0.924517    0.000000   -0.000000   -0.000000
   55.475590    0.924598    0.924598    0.924598    0.000000   -0.000000   -0.000000
   55.504757    0.924679    0.924679    0.924679    0.000000   -0.000000   -0.000000
   55.533924    0.924760    0.924760    0.924760    0.000000   -0.000000   -0.000000
   55.563091    0.924841    0.924841    0.924841    0.000000   -0.000000   -0.000000
   55.592258    0.924921    0.924921    0.924921    0.000000   -0.000000   -0.000000
   55.621425    0.925002    0.925002    0.925002    0.000000   -0.000000   -0.000000
   55.650592    0.925082    0.925082    0.925082    0.000000   -0.000000   -0.000000
   55.679759    0.925162    0.925162    0.925162    0.000000   -0.000000   -0.000000
   55.708926    0.925242    0.925242    0.925242    0.000000   -0.000000   -0.000000
   55.738092    0.925322    0.925322    0.925322    0.000000   -0.000000   -0.000000
   55.767259    0.925402    0.925402    0.925402    0.000000   -0.000000   -0.000000
   55.796426    0.925482    0.925482    0.925482    0.000000   -0.000000   -0.000000
   55.825593    0.925561    0.925561    0.925561    0.000000   -0.000000   -0.000000
   55.854760    0.925641    0.925641    0.925641    0.000000   -0.000000   -0.000000
   55.883927    0.925720    0.925720    0.925720    0.000000   -0.000000   -0.000000
   55.913094    0.925799    0.925799    0.925799    0.000000   -0.000000   -0.000000
   55.942261    0.925878    0.925878    0.925878    0.000000   -0.000000   -0.000000
   55.971428    0.925957    0.925957    0.925957    0.000000   -0.000000   -0.000000
   56.000595    0.926036    0.926036    0.926036    0.000000   -0.000000   -0.000000
   56.029762    0.926114    0.926114    0.926114    0.000000   -0.000000   -0.000000
   56.058929    0.926193    0.926193    0.926193    0.000000   -0.000000   -0.000000
   56.088096    0.926271    0.926271    0.926271    0.000000   -0.000000   -0.000000
   56.117263    0.926350    0.926350    0.926350    0.000000   -0.000000   -0.000000
   56.146430    0.926428    0.926428    0.926428    0.000000   -0.000000   -0.000000
   56.175597    0.926506    0.926506    0.926506    0.000000   -0.000000   -0.000000
   56.204764    0.926584    0.926584    0.926584    0.000000   -0.000000   -0.000000
   56.233931    0.926661    0.926661    0.926661    0.000000   -0.000000   -0.000000
   56.263098    0.926739    0.926739    0.926739    0.000000   -0.000000   -0.000000
   56.292265    0.926817    0.926817    0.926817    0.000000   -0.000000   -0.000000
   56.321432    0.926894    0.926894    0.926894    0.000000   -0.000000   -0.000000
   56.350599    0.926971    0.926971    0.926971    0.000000   -0.000000   -0.000000
   56.379766    0.927048    0.927048    0.927048    0.000000   -0.000000   -0.000000
   56.408933    0.927125    0.927125    0.927125    0.000000   -0.000000   -0.000000
   56.438100    0.927202    0.927202    0.927202    0.000000   -0.000000   -0.000000
   56.467267    0.927279    0.927279    0.927279    0.000000   -0.000000   -0.000000
   56.496434    0.927356    0.927356    0.927356    0.000000   -0.000000   -0.000000
   56.525601    0.927432    0.927432    0.927432    0.000000   -0.000000   -0.000000
   56.554768    0.927509    0.927509    0.927509    0.000000   -0.000000   -0.000000
   56.583935    0.927585    0.927585    0.927585    0.000000   -0.000000   -0.000000
   56.613102    0.927661    0.927661    0.927661    0.000000   -0.000000   -0.000000
   56.642269    0.927737    0.927737    0.927737    0.000000   -0.000000   -0.000000
   56.671436    0.927813    0.927813    0.927813    0.000000   -0.000000   -0.000000
   56.700603    0.927889    0.927889    0.927889    0.000000   -0.000000   -0.000000
   56.729770    0.927965    0.927965    0.927965    0.000000   -0.000000   -0.000000
   56.758937    0.928040    0.928040    0.928040    0.000000   -0.000000   -0.000000
   56.788104    0.928116    0.928116    0.928116    0.000000   -0.000000   -0.000000
   56.817271    0.928191    0.928191    0.928191    0.000000   -0.000000   -0.000000
   56.846438    0.928266    0.928266    0.928266    0.000000   -0.000000   -0.000000
   56.875605    0.928341    0.928341    0.928341    0.000000   -0.000000   -0.000000
   56.904772    0.928416    0.928416    0.928416    0.000000   -0.000000   -0.000000
   56.933939    0.928491    0.928491    0.928491    0.000000   -0.000000   -0.000000
   56.963106    0.928566    0.928566    0.928566    0.000000   -0.000000   -0.000000
   56.992272    0.928641    0.928641    0.928641    0.000000   -0.000000   -0.000000
   57.021439    0.928715    0.928715    0.928715    0.000000   -0.000000   -0.000000
   57.050606    0.928789    0.928789    0.928789    0.000000   -0.000000   -0.000000
   57.079773    0.928864    0.928864    0.928864    0.000000   -0.000000   -0.000000
   57.108940    0.928938    0.928938    0.928938    0.000000   -0.000000   -0.000000
   57.138107    0.929012    0.929012    0.929012    0.000000   -0.000000   -0.000000
   57.167274    0.929086    0.929086    0.929086    0.000000   -0.000000   -0.000000
   57.196441    0.929160    0.929160    0.929160    0.000000   -0.000000   -0.000000
   57.225608    0.929233    0.929233    0.929233    0.000000   -0.000000   -0.000000
   57.254775    0.929307    0.929307    0.929307    0.000000   -0.000000   -0.000000
   57.283942    0.929380    0.929380    0.929380    0.000000   -0.000000   -0.000000
   57.313109    0.929454    0.929454    0.929454    0.000000   -0.000000   -0.000000
   57.342276    0.929527    0.929527    0.929527    0.000000   -0.000000   -0.000000
   57.371443    0.929600    0.929600    0.929600    0.000000   -0.000000   -0.000000
   57.400610    0.929673    0.929673    0.929673    0.000000   -0.000000   -0.000000
   57.429777    0.929746    0.929746    0.929746    0.000000   -0.000000   -0.000000
   57.458944    0.929819    0.929819    0.929819    0.000000   -0.000000   -0.000000
   57.488111    0.929891    0.929891    0.929891    0.000000   -0.000000   -0.000000
   57.517278    0.929964    0.929964    0.929964    0.000000   -0.000000   -0.000000
   57.546445    0.930036    0.930036    0.930036    0.000000   -0.000000   -0.000000
   57.575612    0.930108    0.930108    0.930108    0.000000   -0.000000   -0.000000
   57.604779    0.930181    0.930181    0.930181    0.000000   -0.000000   -0.000000
   57.633946    0.930253    0.930253    0.930253    0.000000   -0.000000   -0.000000
   57.663113    0.930325    0.930325    0.930325    0.000000   -0.000000   -0.000000
   57.692280    0.930397    0.930397    0.930397    0.000000   -0.000000   -0.000000
   57.721447    0.930468    0.930468    0.930468    0.000000   -0.000000   -0.000000
   57.750614    0.930540    0.930540    0.930540    0.000000   -0.000000   -0.000000
   57.779781    0.930611    0.930611    0.930611    0.000000   -0.000000   -0.000000
   57.808948    0.930683    0.930683    0.930683    0.000000   -0.000000   -0.000000
   57.838115    0.930754    0.930754    0.930754    0.000000   -0.000000   -0.000000
   57.867282    0.930825    0.930825    0.930825    0.000000   -0.000000   -0.000000
   57.896449    0.930896    0.930896    0.930896    0.000000   -0.000000   -0.000000
   57.925616    0.930967    0.930967    0.930967    0.000000   -0.000000   -0.000000
   57.954783    0.931038    0.931038    0.931038    0.000000   -0.000000   -0.000000
   57.983950    0.931109    0.931109    0.931109    0.000000   -0.000000   -0.000000
   58.013117    0.931180    0.931180    0.931180    0.000000   -0.000000   -0.000000
   58.042284    0.931250    0.931250    0.931250    0.000000   -0.000000   -0.000000
   58.071451    0.931321    0.931321    0.931321    0.000000   -0.000000   -0.000000
   58.100618    0.931391    0.931391    0.931391    0.000000   -0.000000   -0.000000
   58.129785    0.931461    0.931461    0.931461    0.000000   -0.000000   -0.000000
   58.158952    0.931531    0.931531    0.931531    0.000000   -0.000000   -0.000000
   58.188119    0.931601    0.931601    0.931601    0.000000   -0.000000   -0.000000
   58.217286    0.931671    0.931671    0.931671    0.000000   -0.000000   -0.000000
   58.246452    0.931741    0.931741    0.931741    0.000000   -0.000000   -0.000000
   58.275619    0.931810    0.931810    0.931810    0.000000   -0.000000   -0.000000
   58.304786    0.931880    0.931880    0.931880    0.000000   -0.000000   -0.000000
 
 The outermost node in the dielectric function lies at epsilon=  28.0


--------------------------------------------------------------------------------------------------------


    OPTICS:  cpu time      4.4023: real time      4.4169
    4ORBIT:  cpu time      0.0000: real time      0.0000



 total charge

# of ion       s       p       d       tot
------------------------------------------
    1        0.884   0.753   9.986  11.623
    2        0.884   0.753   9.986  11.623
    3        0.884   0.753   9.986  11.623
    4        0.884   0.753   9.986  11.623
    5        1.217   1.553   0.028   2.798
    6        1.217   1.553   0.028   2.798
    7        1.217   1.553   0.028   2.798
    8        1.217   1.553   0.028   2.798
--------------------------------------------------
tot          8.406   9.224  40.053  57.684
 
 BZINTS: Fermi energy:    3.342750;   72.000000 electrons
         Band energy:-0.510682E+03;  BLOECHL correction:    0.000000

 total amount of memory used by VASP MPI-rank0    34769. kBytes
=======================================================================

   base      :      30000. kBytes
   nonl-proj :       2310. kBytes
   fftplans  :        739. kBytes
   grid      :       1072. kBytes
   one-center:         15. kBytes
   wavefun   :        633. kBytes
 
  
  
 General timing and accounting informations for this job:
 ========================================================
  
                  Total CPU time used (sec):       16.543
                            User time (sec):       14.852
                          System time (sec):        1.692
                         Elapsed time (sec):       17.608
  
                   Maximum memory used (kb):      192396.
                   Average memory used (kb):          N/A
  
                          Minor page faults:        38199
                          Major page faults:            0
                 Voluntary context switches:         1945
