<?xml version="1.0" encoding="ISO-8859-1"?>
<modeling>
 <generator>
  <i name="program" type="string">vasp </i>
  <i name="version" type="string">6.4.2  </i>
  <i name="subversion" type="string">20Jul23 (build Mar 15 2024 16:31:38) complex                          parallel </i>
  <i name="platform" type="string">LinuxIFC </i>
  <i name="date" type="string">2025 03 31 </i>
  <i name="time" type="string">16:09:13 </i>
 </generator>
 <incar>
  <i type="string" name="PREC">Accurate</i>
  <i type="string" name="ALGO">Normal</i>
  <i type="int" name="ISPIN">     2</i>
  <i type="int" name="NELM">   200</i>
  <i name="EDIFF">      0.00001000</i>
  <i type="int" name="NSW">     0</i>
  <i name="ENCUT">    680.00000000</i>
  <i name="ENAUG">   1360.00000000</i>
  <v name="MAGMOM">      0.00000000      0.00000000      0.00000000      0.00000000      0.00000000      0.00000000      0.00000000      0.00000000      0.00000000      0.00000000      0.00000000      0.00000000      0.00000000      0.00000000      0.00000000      0.00000000      0.00000000      0.00000000      0.00000000      0.00000000
</v>
  <i type="logical" name="LREAL"> F  </i>
  <i type="int" name="ISMEAR">    -5</i>
  <i name="SIGMA">      0.20000000</i>
  <i type="int" name="LMAXMIX">     4</i>
  <i type="logical" name="LWAVE"> F  </i>
  <i type="logical" name="LCHARG"> T  </i>
  <i type="logical" name="LVTOT"> T  </i>
  <i type="int" name="LORBIT">    11</i>
  <i type="logical" name="LELF"> F  </i>
  <i type="logical" name="LASPH"> T  </i>
  <i type="logical" name="LAECHG"> T  </i>
  <i name="HFSCREEN">      0.20000000</i>
  <i type="logical" name="LHFCALC"> T  </i>
  <i type="string" name="GGA">Pe</i>
  <i type="string" name="PRECFOCK">Accurate</i>
  <i type="logical" name="LDAU"> F  </i>
  <i type="logical" name="LMIXTAU"> T  </i>
 </incar>
 <primitive_cell>
  <structure name="primitive_cell" >
   <crystal>
    <varray name="basis" >
     <v>       7.33465070       0.00000000      -2.15973506 </v>
     <v>      -0.00000000      12.86622315       0.00000000 </v>
     <v>       0.01897524       0.00000000       6.70643668 </v>
    </varray>
    <i name="volume">    633.40869498 </i>
    <varray name="rec_basis" >
     <v>       0.13622565       0.00000000      -0.00038544 </v>
     <v>       0.00000000       0.07772289       0.00000000 </v>
     <v>       0.04386999      -0.00000000       0.14898635 </v>
    </varray>
   </crystal>
   <varray name="positions" >
    <v>       0.74659001       0.08073502       0.71430885 </v>
    <v>       0.25340999       0.58073502       0.78569115 </v>
    <v>       0.25340999       0.91926498       0.28569115 </v>
    <v>       0.74659001       0.41926498       0.21430885 </v>
    <v>       0.18163134       0.22680859       0.64274406 </v>
    <v>       0.81836866       0.72680859       0.85725594 </v>
    <v>       0.81836866       0.77319141       0.35725594 </v>
    <v>       0.18163134       0.27319141       0.14274406 </v>
    <v>       0.29307215       0.42642141       0.34854784 </v>
    <v>       0.70692785       0.92642141       0.15145216 </v>
    <v>       0.70692785       0.57357859       0.65145216 </v>
    <v>       0.29307215       0.07357859       0.84854784 </v>
    <v>       0.00093241       0.82992296       0.69017123 </v>
    <v>       0.99906759       0.32992296       0.80982877 </v>
    <v>       0.99906759       0.17007704       0.30982877 </v>
    <v>       0.00093241       0.67007704       0.19017123 </v>
    <v>       0.45198480       0.32459604       0.63914229 </v>
    <v>       0.54801520       0.82459604       0.86085771 </v>
    <v>       0.54801520       0.67540396       0.36085771 </v>
    <v>       0.45198480       0.17540396       0.13914229 </v>
   </varray>
  </structure>
  <varray name="primitive_index" >
   <v type="int" >        1 </v>
   <v type="int" >        2 </v>
   <v type="int" >        3 </v>
   <v type="int" >        4 </v>
   <v type="int" >        5 </v>
   <v type="int" >        6 </v>
   <v type="int" >        7 </v>
   <v type="int" >        8 </v>
   <v type="int" >        9 </v>
   <v type="int" >       10 </v>
   <v type="int" >       11 </v>
   <v type="int" >       12 </v>
   <v type="int" >       13 </v>
   <v type="int" >       14 </v>
   <v type="int" >       15 </v>
   <v type="int" >       16 </v>
   <v type="int" >       17 </v>
   <v type="int" >       18 </v>
   <v type="int" >       19 </v>
   <v type="int" >       20 </v>
  </varray>
 </primitive_cell>
 <kpoints>
  <generation param="Gamma">
   <v type="int" name="divisions">       3        1        3 </v>
   <v name="usershift">      0.00000000       0.00000000       0.00000000 </v>
   <v name="genvec1">      0.33333333       0.00000000       0.00000000 </v>
   <v name="genvec2">      0.00000000       1.00000000       0.00000000 </v>
   <v name="genvec3">      0.00000000      -0.00000000       0.33333333 </v>
   <v name="shift">      0.00000000       0.00000000       0.00000000 </v>
  </generation>
  <varray name="kpointlist" >
   <v>       0.00000000       0.00000000       0.00000000 </v>
   <v>       0.33333333       0.00000000       0.00000000 </v>
   <v>      -0.00000000      -0.00000000       0.33333333 </v>
   <v>       0.33333333       0.00000000       0.33333333 </v>
   <v>      -0.33333333      -0.00000000       0.33333333 </v>
  </varray>
  <varray name="weights" >
   <v>       0.11111111 </v>
   <v>       0.22222222 </v>
   <v>       0.22222222 </v>
   <v>       0.22222222 </v>
   <v>       0.22222222 </v>
  </varray>
  <varray name="tetrahedronlist"  type="int" >
   <v type="int" >        2        3        3        4        5 </v>
   <v type="int" >        2        3        4        5        5 </v>
   <v type="int" >        2        3        4        4        5 </v>
   <v type="int" >        4        3        3        3        4 </v>
   <v type="int" >        2        3        3        4        4 </v>
   <v type="int" >        4        4        5        5        5 </v>
   <v type="int" >        2        4        4        5        5 </v>
   <v type="int" >        2        2        3        3        4 </v>
   <v type="int" >        2        2        3        4        4 </v>
   <v type="int" >        2        2        2        3        4 </v>
   <v type="int" >        2        1        2        3        3 </v>
   <v type="int" >        2        1        1        2        3 </v>
   <v type="int" >        2        1        2        2        3 </v>
   <v type="int" >        2        2        4        4        5 </v>
   <v type="int" >        2        2        4        5        5 </v>
   <v type="int" >        2        2        2        4        5 </v>
   <v type="int" >        2        2        2        4        4 </v>
   <v type="int" >        4        2        2        2        4 </v>
   <v type="int" >        2        1        3        5        5 </v>
   <v type="int" >        2        1        3        3        5 </v>
   <v type="int" >        2        1        1        3        5 </v>
   <v type="int" >        2        1        2        5        5 </v>
   <v type="int" >        2        1        2        2        5 </v>
   <v type="int" >        2        1        1        2        5 </v>
  </varray>
  <i name="volumeweight">      0.01851852 </i>
 </kpoints>
 <parameters>
  <separator name="general" >
   <i type="string" name="SYSTEM">unknown system</i>
   <i type="logical" name="LCOMPAT"> F  </i>
  </separator>
  <separator name="electronic" >
   <i type="string" name="PREC">accura</i>
   <i name="ENMAX">    680.00000000</i>
   <i name="ENAUG">   1360.00000000</i>
   <i name="EDIFF">      0.00001000</i>
   <i type="int" name="IALGO">    38</i>
   <i type="int" name="IWAVPR">    10</i>
   <i type="int" name="NBANDS">    96</i>
   <i type="int" name="NBANDSLOW">    -1</i>
   <i type="int" name="NBANDSHIGH">    -1</i>
   <i name="NELECT">    160.00000000</i>
   <i type="int" name="TURBO">     0</i>
   <i type="int" name="IRESTART">     0</i>
   <i type="int" name="NREBOOT">     0</i>
   <i type="int" name="NMIN">     0</i>
   <i name="EREF">      0.00000000</i>
   <separator name="electronic smearing" >
    <i type="int" name="ISMEAR">    -5</i>
    <i name="SIGMA">      0.20000000</i>
    <i name="KSPACING">      0.50000000</i>
    <i type="logical" name="KGAMMA"> T  </i>
    <i type="logical" name="KBLOWUP"> T  </i>
   </separator>
   <separator name="electronic projectors" >
    <i type="logical" name="LREAL"> F  </i>
    <v name="ROPT">      0.00000000      0.00000000      0.00000000</v>
    <i type="int" name="LMAXPAW">  -100</i>
    <i type="int" name="LMAXMIX">     4</i>
    <i type="logical" name="NLSPLINE"> F  </i>
   </separator>
   <separator name="electronic startup" >
    <i type="int" name="ISTART">     0</i>
    <i type="int" name="ICHARG">     2</i>
    <i type="int" name="INIWAV">     1</i>
   </separator>
   <separator name="electronic spin" >
    <i type="int" name="ISPIN">     2</i>
    <i type="logical" name="LNONCOLLINEAR"> F  </i>
    <v name="MAGMOM">      0.00000000      0.00000000      0.00000000      0.00000000      0.00000000      0.00000000      0.00000000      0.00000000      0.00000000      0.00000000      0.00000000      0.00000000      0.00000000      0.00000000      0.00000000      0.00000000      0.00000000      0.00000000      0.00000000      0.00000000
</v>
    <i name="NUPDOWN">     -1.00000000</i>
    <i type="logical" name="LSORBIT"> F  </i>
    <v name="SAXIS">      0.00000000      0.00000000      1.00000000</v>
    <i type="logical" name="LSPIRAL"> F  </i>
    <v name="QSPIRAL">      0.00000000      0.00000000      0.00000000</v>
    <i type="logical" name="LZEROZ"> F  </i>
   </separator>
   <separator name="electronic exchange-correlation" >
    <i type="logical" name="LASPH"> T  </i>
    <i type="logical" name="LMETAGGA"> F  </i>
   </separator>
   <separator name="electronic convergence" >
    <i type="int" name="NELM">   200</i>
    <i type="int" name="NELMDL">    -5</i>
    <i type="int" name="NELMIN">     2</i>
    <i name="ENINI">    680.00000000</i>
    <separator name="electronic convergence detail" >
     <i type="logical" name="LDIAG"> T  </i>
     <i type="logical" name="LSUBROT"> F  </i>
     <i name="WEIMIN">      0.00000000</i>
     <i name="EBREAK">      0.00000003</i>
     <i name="DEPER">      0.30000000</i>
     <i type="int" name="NRMM">     4</i>
     <i name="TIME">      0.40000000</i>
    </separator>
   </separator>
   <separator name="electronic mixer" >
    <i name="AMIX">      0.40000000</i>
    <i name="BMIX">      1.00000000</i>
    <i name="AMIN">      0.10000000</i>
    <i name="AMIX_MAG">      1.60000000</i>
    <i name="BMIX_MAG">      1.00000000</i>
    <separator name="electronic mixer details" >
     <i type="int" name="IMIX">     1</i>
     <i type="logical" name="MIXFIRST"> F  </i>
     <i type="int" name="MAXMIX">   -45</i>
     <i name="WC">    100.00000000</i>
     <i type="int" name="INIMIX">     1</i>
     <i type="int" name="MIXPRE">     1</i>
     <i type="int" name="MREMOVE">     5</i>
    </separator>
   </separator>
   <separator name="electronic dipolcorrection" >
    <i type="logical" name="LDIPOL"> F  </i>
    <i type="logical" name="LMONO"> F  </i>
    <i type="int" name="IDIPOL">     0</i>
    <i name="EPSILON">      1.00000000</i>
    <v name="DIPOL">   -100.00000000   -100.00000000   -100.00000000</v>
    <i name="EFIELD">      0.00000000</i>
   </separator>
  </separator>
  <separator name="grids" >
   <i type="int" name="NGX">    70</i>
   <i type="int" name="NGY">   112</i>
   <i type="int" name="NGZ">    60</i>
   <i type="int" name="NGXF">   140</i>
   <i type="int" name="NGYF">   224</i>
   <i type="int" name="NGZF">   120</i>
   <i type="logical" name="ADDGRID"> F  </i>
  </separator>
  <separator name="ionic" >
   <i type="int" name="NSW">     0</i>
   <i type="int" name="IBRION">    -1</i>
   <i type="int" name="MDALGO">     0</i>
   <i type="int" name="ISIF">     0</i>
   <i name="PSTRESS">      0.00000000</i>
   <i name="EDIFFG">      0.00010000</i>
   <i type="int" name="NFREE">     0</i>
   <i name="POTIM">      0.50000000</i>
   <i name="SMASS">     -3.00000000</i>
   <i name="SCALEE">      1.00000000</i>
  </separator>
  <separator name="ionic md" >
   <i name="TEBEG">      0.00010000</i>
   <i name="TEEND">      0.00010000</i>
   <i type="int" name="NBLOCK">     1</i>
   <i type="int" name="KBLOCK">     1</i>
   <i type="int" name="NPACO">   256</i>
   <i name="APACO">     10.00000000</i>
  </separator>
  <separator name="symmetry" >
   <i type="int" name="ISYM">     3</i>
   <i name="SYMPREC">      0.00001000</i>
  </separator>
  <separator name="dos" >
   <i type="int" name="LORBIT">    11</i>
   <v name="RWIGS">     -1.00000000     -1.00000000     -1.00000000</v>
   <i type="int" name="NEDOS">   301</i>
   <i name="EMIN">     10.00000000</i>
   <i name="EMAX">    -10.00000000</i>
   <i name="EFERMI">      0.00000000</i>
  </separator>
  <separator name="writing" >
   <i type="int" name="NWRITE">     2</i>
   <i type="logical" name="LWAVE"> F  </i>
   <i type="logical" name="LDOWNSAMPLE"> F  </i>
   <i type="logical" name="LCHARG"> T  </i>
   <i type="logical" name="LPARD"> F  </i>
   <i type="logical" name="LVTOT"> T  </i>
   <i type="logical" name="LVHAR"> F  </i>
   <i type="logical" name="LELF"> F  </i>
   <i type="logical" name="LOPTICS"> F  </i>
   <v name="STM">      0.00000000      0.00000000      0.00000000      0.00000000      0.00000000      0.00000000      0.00000000</v>
  </separator>
  <separator name="performance" >
   <i type="int" name="NPAR">     6</i>
   <i type="int" name="NSIM">     4</i>
   <i type="int" name="NBLK">    -1</i>
   <i type="logical" name="LPLANE"> T  </i>
   <i type="logical" name="LSCALAPACK"> T  </i>
   <i type="logical" name="LSCAAWARE"> F  </i>
   <i type="logical" name="LSCALU"> F  </i>
   <i type="logical" name="LASYNC"> F  </i>
   <i type="logical" name="LORBITALREAL"> F  </i>
  </separator>
  <separator name="miscellaneous" >
   <i type="int" name="IDIOT">     3</i>
   <i type="int" name="PHON_NSTRUCT">    -1</i>
   <i type="logical" name="LMUSIC"> F  </i>
   <v name="POMASS">    132.90000000     69.72300000     78.96000000</v>
   <v name="DARWINR">      0.00000000      0.00000000      0.00000000</v>
   <v name="DARWINV">      1.00000000      1.00000000      1.00000000</v>
   <i type="logical" name="LCORR"> T  </i>
  </separator>
  <i type="logical" name="GGA_COMPAT"> T  </i>
  <i type="logical" name="LBERRY"> F  </i>
  <i type="int" name="ICORELEVEL">     0</i>
  <i type="logical" name="LDAU"> F  </i>
  <i type="int" name="I_CONSTRAINED_M">     0</i>
  <separator name="electronic exchange-correlation" >
   <i type="string" name="GGA">PE</i>
   <i type="int" name="VOSKOWN">     0</i>
   <i type="logical" name="LHFCALC"> T  </i>
   <i type="string" name="PRECFOCK">accur.</i>
   <i type="logical" name="LSYMGRAD"> F  </i>
   <i type="logical" name="LHFONE"> F  </i>
   <i type="logical" name="LRHFCALC"> F  </i>
   <i type="logical" name="LTHOMAS"> F  </i>
   <i type="logical" name="LMODELHF"> F  </i>
   <i type="logical" name="LFOCKACE"> T  </i>
   <i name="ENCUT4O">     -1.00000000</i>
   <i type="int" name="EXXOEP">     0</i>
   <i type="int" name="FOURORBIT">     0</i>
   <i name="AEXX">      0.25000000</i>
   <i name="HFALPHA">     -1.00000000</i>
   <i name="MCALPHA">      0.00000000</i>
   <i name="ALDAX">      0.75000000</i>
   <i name="AGGAX">      0.75000000</i>
   <i name="ALDAC">      1.00000000</i>
   <i name="AGGAC">      1.00000000</i>
   <i type="int" name="NKREDX">     1</i>
   <i type="int" name="NKREDY">     1</i>
   <i type="int" name="NKREDZ">     1</i>
   <i type="logical" name="SHIFTRED"> F  </i>
   <i type="logical" name="ODDONLY"> F  </i>
   <i type="logical" name="EVENONLY"> F  </i>
   <i type="int" name="LMAXFOCK">     4</i>
   <i type="int" name="NMAXFOCKAE">     1</i>
   <i type="logical" name="LFOCKAEDFT"> F  </i>
   <i name="HFSCREEN">      0.20000000</i>
   <i name="HFSCREENC">      0.20000000</i>
   <i type="int" name="NBANDSGWLOW">     1</i>
  </separator>
  <separator name="vdW DFT" >
   <i type="logical" name="LUSE_VDW"> F  </i>
   <i type="int" name="IVDW_NL">     1</i>
   <i type="logical" name="LSPIN_VDW"> F  </i>
   <i name="Zab_VDW">     -0.84910000</i>
   <i name="PARAM1">      0.12340000</i>
   <i name="PARAM2">      1.00000000</i>
   <i name="PARAM3">      0.00000000</i>
  </separator>
  <separator name="model GW" >
   <i type="int" name="MODEL_GW">     0</i>
   <i name="MODEL_EPS0">     19.00226085</i>
   <i name="MODEL_ALPHA">      1.00000000</i>
  </separator>
  <separator name="linear response parameters" >
   <i type="logical" name="LEPSILON"> F  </i>
   <i type="logical" name="LRPA"> F  </i>
   <i type="logical" name="LNABLA"> F  </i>
   <i type="logical" name="LVEL"> F  </i>
   <i name="CSHIFT">      0.10000000</i>
   <i name="OMEGAMAX">     -1.00000000</i>
   <i name="DEG_THRESHOLD">      0.00200000</i>
   <i name="RTIME">     -0.10000000</i>
   <i name="WPLASMAI">      0.00000000</i>
   <v name="DFIELD">      0.00000000      0.00000000      0.00000000</v>
   <v name="WPLASMA">      0.00000000      0.00000000      0.00000000      0.00000000      0.00000000      0.00000000      0.00000000      0.00000000      0.00000000</v>
  </separator>
  <separator name="orbital magnetization" >
   <i type="logical" name="NUCIND"> F  </i>
   <v name="MAGPOS">      0.00000000      0.00000000      0.00000000</v>
   <i type="logical" name="LNICSALL"> T  </i>
   <i type="logical" name="ORBITALMAG"> F  </i>
   <i type="logical" name="LMAGBLOCH"> F  </i>
   <i type="logical" name="LCHIMAG"> F  </i>
   <i type="logical" name="LGAUGE"> T  </i>
   <i type="int" name="MAGATOM">     0</i>
   <v name="MAGDIPOL">      0.00000000      0.00000000      0.00000000</v>
   <v name="AVECCONST">      0.00000000      0.00000000      0.00000000</v>
  </separator>
  <separator name="response functions" >
   <i type="logical" name="LALL_IN_ONE"> F  </i>
   <i type="int" name="IALL_IN_ONE">    -1</i>
   <i type="int" name="NBANDS_WAVE">    -1</i>
   <i type="logical" name="LFINITE_TEMPERATURE"> F  </i>
   <i type="logical" name="LADDER"> F  </i>
   <i type="logical" name="LRPAFORCE"> F  </i>
   <i type="logical" name="LFXC"> F  </i>
   <i type="logical" name="LHARTREE"> T  </i>
   <i type="int" name="IBSE">     0</i>
   <v type="int" name="KPOINT">    -1     0     0     0</v>
   <i type="logical" name="LTCTC"> F  </i>
   <i type="logical" name="LTCTE"> F  </i>
   <i type="logical" name="LTETE"> F  </i>
   <i type="logical" name="LTRIPLET"> F  </i>
   <i type="logical" name="LFXCEPS"> F  </i>
   <i type="logical" name="LFXHEG"> F  </i>
   <i type="int" name="NATURALO">     2</i>
   <i type="logical" name="LHOLEGF"> F  </i>
   <i type="logical" name="L2ORDER"> F  </i>
   <i type="logical" name="LDMP1"> F  </i>
   <i type="logical" name="LMP2LT"> F  </i>
   <i type="logical" name="LSMP2LT"> F  </i>
   <i type="logical" name="LGWLF"> F  </i>
   <i name="ENCUTGW">     -1.60000002</i>
   <i name="ENCUTGWSOFT">     -1.60000002</i>
   <i name="ENCUTLF">     -1.00000000</i>
   <i type="logical" name="LESF_SPLINES"> F  </i>
   <i type="int" name="LMAXMP2">    -1</i>
   <i name="SCISSOR">      0.00000000</i>
   <i type="int" name="NOMEGA">     0</i>
   <i type="int" name="NOMEGAR">     0</i>
   <i type="int" name="NBANDSGW">    -1</i>
   <i type="int" name="NBANDSO">    -1</i>
   <i type="int" name="NBANDSV">    -1</i>
   <i type="int" name="NELMGW">     1</i>
   <i type="int" name="NELMHF">     1</i>
   <i type="int" name="DIM">     3</i>
   <i type="int" name="IESPILON">     4</i>
   <i type="int" name="ANTIRES">     0</i>
   <i name="OMEGAMAX">    -30.00000000</i>
   <i name="OMEGAMIN">    -30.00000000</i>
   <i name="OMEGATL">   -200.00000000</i>
   <i type="int" name="OMEGAGRID">     0</i>
   <i name="CSHIFT">     -0.10000000</i>
   <i type="logical" name="LSELFENERGY"> F  </i>
   <i type="logical" name="LSPECTRAL"> F  </i>
   <i type="logical" name="LSPECTRALGW"> F  </i>
   <i type="logical" name="LSINGLES"> F  </i>
   <i type="logical" name="LFERMIGW"> F  </i>
   <i type="logical" name="ODDONLYGW"> F  </i>
   <i type="logical" name="EVENONLYGW"> F  </i>
   <i type="int" name="NKREDLFX">     1</i>
   <i type="int" name="NKREDLFY">     1</i>
   <i type="int" name="NKREDLFZ">     1</i>
   <i type="int" name="MAXMEM">  2800</i>
   <i type="int" name="TELESCOPE">     0</i>
   <i type="int" name="NTAUPAR">    -1</i>
   <i type="int" name="NOMEGAPAR">    -1</i>
   <i name="DAMP_NEWTON">      0.80000001</i>
   <i name="LAMBDA">      1.00000000</i>
  </separator>
  <separator name="External order field" >
   <i name="OFIELD_KAPPA">      0.00000000</i>
   <v name="OFIELD_K">      0.00000000      0.00000000      0.00000000</v>
   <i name="OFIELD_Q6_NEAR">      0.00000000</i>
   <i name="OFIELD_Q6_FAR">      0.00000000</i>
   <i name="OFIELD_A">      0.00000000</i>
  </separator>
  <separator name="optional k-points parameters" >
   <i type="int" name="KPOINTS_OPT_MODE">     1</i>
   <i type="logical" name="LKPOINTS_OPT"> F  </i>
  </separator>
 </parameters>
 <atominfo>
  <atoms>      20 </atoms>
  <types>       3 </types>
  <array name="atoms" >
   <dimension dim="1">ion</dimension>
   <field type="string">element</field>
   <field type="int">atomtype</field>
   <set>
    <rc><c>Cs</c><c>   1</c></rc>
    <rc><c>Cs</c><c>   1</c></rc>
    <rc><c>Cs</c><c>   1</c></rc>
    <rc><c>Cs</c><c>   1</c></rc>
    <rc><c>Ga</c><c>   2</c></rc>
    <rc><c>Ga</c><c>   2</c></rc>
    <rc><c>Ga</c><c>   2</c></rc>
    <rc><c>Ga</c><c>   2</c></rc>
    <rc><c>Se</c><c>   3</c></rc>
    <rc><c>Se</c><c>   3</c></rc>
    <rc><c>Se</c><c>   3</c></rc>
    <rc><c>Se</c><c>   3</c></rc>
    <rc><c>Se</c><c>   3</c></rc>
    <rc><c>Se</c><c>   3</c></rc>
    <rc><c>Se</c><c>   3</c></rc>
    <rc><c>Se</c><c>   3</c></rc>
    <rc><c>Se</c><c>   3</c></rc>
    <rc><c>Se</c><c>   3</c></rc>
    <rc><c>Se</c><c>   3</c></rc>
    <rc><c>Se</c><c>   3</c></rc>
   </set>
  </array>
  <array name="atomtypes" >
   <dimension dim="1">type</dimension>
   <field type="int">atomspertype</field>
   <field type="string">element</field>
   <field>mass</field>
   <field>valence</field>
   <field type="string">pseudopotential</field>
   <set>
    <rc><c>   4</c><c>Cs</c><c>    132.90000000</c><c>      9.00000000</c><c>  PAW_PBE Cs_sv 08Apr2002               </c></rc>
    <rc><c>   4</c><c>Ga</c><c>     69.72300000</c><c>     13.00000000</c><c>  PAW_PBE Ga_d 06Jul2010                </c></rc>
    <rc><c>  12</c><c>Se</c><c>     78.96000000</c><c>      6.00000000</c><c>  PAW_PBE Se 06Sep2000                  </c></rc>
   </set>
  </array>
 </atominfo>
 <structure name="initialpos" >
  <crystal>
   <varray name="basis" >
    <v>       7.33465070       0.00000000      -2.15973506 </v>
    <v>      -0.00000000      12.86622315       0.00000000 </v>
    <v>       0.01897524       0.00000000       6.70643668 </v>
   </varray>
   <i name="volume">    633.40869498 </i>
   <varray name="rec_basis" >
    <v>       0.13622565       0.00000000      -0.00038544 </v>
    <v>       0.00000000       0.07772289       0.00000000 </v>
    <v>       0.04386999      -0.00000000       0.14898635 </v>
   </varray>
  </crystal>
  <varray name="positions" >
   <v>       0.74659001       0.08073502       0.71430885 </v>
   <v>       0.25340999       0.58073502       0.78569115 </v>
   <v>       0.25340999       0.91926498       0.28569115 </v>
   <v>       0.74659001       0.41926498       0.21430885 </v>
   <v>       0.18163134       0.22680859       0.64274406 </v>
   <v>       0.81836866       0.72680859       0.85725594 </v>
   <v>       0.81836866       0.77319141       0.35725594 </v>
   <v>       0.18163134       0.27319141       0.14274406 </v>
   <v>       0.29307215       0.42642141       0.34854784 </v>
   <v>       0.70692785       0.92642141       0.15145216 </v>
   <v>       0.70692785       0.57357859       0.65145216 </v>
   <v>       0.29307215       0.07357859       0.84854784 </v>
   <v>       0.00093241       0.82992296       0.69017123 </v>
   <v>       0.99906759       0.32992296       0.80982877 </v>
   <v>       0.99906759       0.17007704       0.30982877 </v>
   <v>       0.00093241       0.67007704       0.19017123 </v>
   <v>       0.45198480       0.32459604       0.63914229 </v>
   <v>       0.54801520       0.82459604       0.86085771 </v>
   <v>       0.54801520       0.67540396       0.36085771 </v>
   <v>       0.45198480       0.17540396       0.13914229 </v>
  </varray>
 </structure>
 <calculation>
  <scstep>
   <time name="dav">    1.19    1.20</time>
   <time name="total">    1.80    1.81</time>
   <energy>
    <i name="alphaZ">    482.94513547 </i>
    <i name="ewald">  -7601.08312602 </i>
    <i name="hartreedc">  -4823.46666440 </i>
    <i name="XCdc">    210.35855077 </i>
    <i name="pawpsdc">  10635.01128093 </i>
    <i name="pawaedc"> -25009.60868124 </i>
    <i name="eentropy">      0.00000000 </i>
    <i name="bandstr">    590.56094083 </i>
    <i name="atom">  13873.74036856 </i>
    <i name="e_fr_energy"> -11641.54219512 </i>
    <i name="e_wo_entrp"> -11641.54219512 </i>
    <i name="e_0_energy"> -11641.54219512 </i>
   </energy>
  </scstep>
  <scstep>
   <time name="dav">    1.30    1.30</time>
   <time name="total">    1.30    1.31</time>
   <energy>
    <i name="e_fr_energy"> -13267.01233840 </i>
    <i name="e_wo_entrp"> -13267.01233840 </i>
    <i name="e_0_energy"> -13267.01233840 </i>
   </energy>
  </scstep>
  <scstep>
   <time name="dav">    1.25    1.27</time>
   <time name="total">    1.25    1.27</time>
   <energy>
    <i name="e_fr_energy"> -13603.79158580 </i>
    <i name="e_wo_entrp"> -13603.79158580 </i>
    <i name="e_0_energy"> -13603.79158580 </i>
   </energy>
  </scstep>
  <scstep>
   <time name="dav">    1.34    1.37</time>
   <time name="total">    1.35    1.37</time>
   <energy>
    <i name="e_fr_energy"> -13630.59529544 </i>
    <i name="e_wo_entrp"> -13630.59529544 </i>
    <i name="e_0_energy"> -13630.59529544 </i>
   </energy>
  </scstep>
  <scstep>
   <time name="dav">  205.71  206.37</time>
   <time name="total">  207.20  207.89</time>
   <energy>
    <i name="e_fr_energy">    -90.54993826 </i>
    <i name="e_wo_entrp">    -90.54993826 </i>
    <i name="e_0_energy">    -90.54993826 </i>
   </energy>
  </scstep>
  <scstep>
   <time name="dav">  206.14  206.69</time>
   <time name="total">  207.64  208.21</time>
   <energy>
    <i name="e_fr_energy">    -88.96310300 </i>
    <i name="e_wo_entrp">    -88.96310300 </i>
    <i name="e_0_energy">    -88.96310300 </i>
   </energy>
  </scstep>
  <scstep>
   <time name="dav">  206.42  206.98</time>
   <time name="total">  207.87  208.48</time>
   <energy>
    <i name="e_fr_energy">    -88.70307153 </i>
    <i name="e_wo_entrp">    -88.70307153 </i>
    <i name="e_0_energy">    -88.70307153 </i>
   </energy>
  </scstep>
  <scstep>
   <time name="dav">  206.82  207.36</time>
   <time name="total">  208.33  208.89</time>
   <energy>
    <i name="e_fr_energy">    -88.64747285 </i>
    <i name="e_wo_entrp">    -88.64747285 </i>
    <i name="e_0_energy">    -88.64747285 </i>
   </energy>
  </scstep>
  <scstep>
   <time name="dav">  207.61  208.14</time>
   <time name="total">  209.17  209.72</time>
   <energy>
    <i name="e_fr_energy">    -88.61413204 </i>
    <i name="e_wo_entrp">    -88.61413204 </i>
    <i name="e_0_energy">    -88.61413204 </i>
   </energy>
  </scstep>
  <scstep>
   <time name="dav">  206.51  207.06</time>
   <time name="total">  208.01  208.58</time>
   <energy>
    <i name="e_fr_energy">    -88.60461314 </i>
    <i name="e_wo_entrp">    -88.60461314 </i>
    <i name="e_0_energy">    -88.60461314 </i>
   </energy>
  </scstep>
  <scstep>
   <time name="dav">  206.84  207.39</time>
   <time name="total">  208.33  208.89</time>
   <energy>
    <i name="e_fr_energy">    -88.60263234 </i>
    <i name="e_wo_entrp">    -88.60263234 </i>
    <i name="e_0_energy">    -88.60263234 </i>
   </energy>
  </scstep>
  <scstep>
   <time name="dav">  207.53  208.09</time>
   <time name="total">  208.97  209.56</time>
   <energy>
    <i name="e_fr_energy">    -88.60233322 </i>
    <i name="e_wo_entrp">    -88.60233322 </i>
    <i name="e_0_energy">    -88.60233322 </i>
   </energy>
  </scstep>
  <scstep>
   <time name="dav">  208.33  208.89</time>
   <time name="total">  209.79  210.44</time>
   <energy>
    <i name="e_fr_energy">    -88.60240911 </i>
    <i name="e_wo_entrp">    -88.60240911 </i>
    <i name="e_0_energy">    -88.60240911 </i>
   </energy>
  </scstep>
  <scstep>
   <time name="dav">  207.05  207.59</time>
   <time name="total">  208.59  209.15</time>
   <energy>
    <i name="e_fr_energy">    -88.60255384 </i>
    <i name="e_wo_entrp">    -88.60255384 </i>
    <i name="e_0_energy">    -88.60255384 </i>
   </energy>
  </scstep>
  <scstep>
   <time name="dav">  207.46  208.00</time>
   <time name="total">  208.96  209.52</time>
   <energy>
    <i name="e_fr_energy">    -88.60267010 </i>
    <i name="e_wo_entrp">    -88.60267010 </i>
    <i name="e_0_energy">    -88.60267010 </i>
   </energy>
  </scstep>
  <scstep>
   <time name="dav">  207.90  208.45</time>
   <time name="total">  209.41  209.97</time>
   <energy>
    <i name="e_fr_energy">    -88.60273818 </i>
    <i name="e_wo_entrp">    -88.60273818 </i>
    <i name="e_0_energy">    -88.60273818 </i>
   </energy>
  </scstep>
  <scstep>
   <time name="dav">  208.38  208.92</time>
   <time name="total">  209.85  210.41</time>
   <energy>
    <i name="e_fr_energy">    -88.60277714 </i>
    <i name="e_wo_entrp">    -88.60277714 </i>
    <i name="e_0_energy">    -88.60277714 </i>
   </energy>
  </scstep>
  <scstep>
   <time name="dav">  207.71  208.23</time>
   <time name="total">  209.19  209.73</time>
   <energy>
    <i name="e_fr_energy">    -88.60279862 </i>
    <i name="e_wo_entrp">    -88.60279862 </i>
    <i name="e_0_energy">    -88.60279862 </i>
   </energy>
  </scstep>
  <scstep>
   <time name="dav">  207.99  208.55</time>
   <time name="total">  209.49  210.15</time>
   <energy>
    <i name="e_fr_energy">    -88.60281018 </i>
    <i name="e_wo_entrp">    -88.60281018 </i>
    <i name="e_0_energy">    -88.60281018 </i>
   </energy>
  </scstep>
  <scstep>
   <time name="dav">  207.76  208.29</time>
   <time name="total">  209.15  209.69</time>
   <energy>
    <i name="alphaZ">    482.94513547 </i>
    <i name="ewald">  -7601.08312602 </i>
    <i name="hartreedc">  -4829.24021241 </i>
    <i name="XCdc">    154.71309993 </i>
    <i name="pawpsdc">  14547.99940894 </i>
    <i name="pawaedc"> -15687.38141846 </i>
    <i name="eentropy">      0.00000000 </i>
    <i name="bandstr">  -1355.03956788 </i>
    <i name="atom">  13873.74036856 </i>
    <i name="e_fr_energy">    -88.60281639 </i>
    <i name="e_wo_entrp">    -88.60281639 </i>
    <i name="e_0_energy">    -88.60281639 </i>
   </energy>
  </scstep>
  <structure>
   <crystal>
    <varray name="basis" >
     <v>       7.33465070       0.00000000      -2.15973506 </v>
     <v>      -0.00000000      12.86622315       0.00000000 </v>
     <v>       0.01897524       0.00000000       6.70643668 </v>
    </varray>
    <i name="volume">    633.40869498 </i>
    <varray name="rec_basis" >
     <v>       0.13622565       0.00000000      -0.00038544 </v>
     <v>       0.00000000       0.07772289       0.00000000 </v>
     <v>       0.04386999      -0.00000000       0.14898635 </v>
    </varray>
   </crystal>
   <varray name="positions" >
    <v>       0.74659001       0.08073502       0.71430885 </v>
    <v>       0.25340999       0.58073502       0.78569115 </v>
    <v>       0.25340999       0.91926498       0.28569115 </v>
    <v>       0.74659001       0.41926498       0.21430885 </v>
    <v>       0.18163134       0.22680859       0.64274406 </v>
    <v>       0.81836866       0.72680859       0.85725594 </v>
    <v>       0.81836866       0.77319141       0.35725594 </v>
    <v>       0.18163134       0.27319141       0.14274406 </v>
    <v>       0.29307215       0.42642141       0.34854784 </v>
    <v>       0.70692785       0.92642141       0.15145216 </v>
    <v>       0.70692785       0.57357859       0.65145216 </v>
    <v>       0.29307215       0.07357859       0.84854784 </v>
    <v>       0.00093241       0.82992296       0.69017123 </v>
    <v>       0.99906759       0.32992296       0.80982877 </v>
    <v>       0.99906759       0.17007704       0.30982877 </v>
    <v>       0.00093241       0.67007704       0.19017123 </v>
    <v>       0.45198480       0.32459604       0.63914229 </v>
    <v>       0.54801520       0.82459604       0.86085771 </v>
    <v>       0.54801520       0.67540396       0.36085771 </v>
    <v>       0.45198480       0.17540396       0.13914229 </v>
   </varray>
  </structure>
  <varray name="forces" >
   <v>      -0.01027945      -0.00417518      -0.01785537 </v>
   <v>       0.01027945      -0.00417518       0.01785537 </v>
   <v>       0.01027945       0.00417518       0.01785537 </v>
   <v>      -0.01027945       0.00417518      -0.01785537 </v>
   <v>      -0.01710807       0.01866920       0.00238875 </v>
   <v>       0.01710807       0.01866920      -0.00238875 </v>
   <v>       0.01710807      -0.01866920      -0.00238875 </v>
   <v>      -0.01710807      -0.01866920       0.00238875 </v>
   <v>       0.08428542      -0.23119984       0.13732657 </v>
   <v>      -0.08428542      -0.23119984      -0.13732657 </v>
   <v>      -0.08428542       0.23119984      -0.13732657 </v>
   <v>       0.08428542       0.23119984       0.13732657 </v>
   <v>      -0.12359136      -0.09230615      -0.01761941 </v>
   <v>       0.12359136      -0.09230615       0.01761941 </v>
   <v>       0.12359136       0.09230615       0.01761941 </v>
   <v>      -0.12359136       0.09230615      -0.01761941 </v>
   <v>      -0.20913543       0.08236285      -0.13486858 </v>
   <v>       0.20913543       0.08236285       0.13486858 </v>
   <v>       0.20913543      -0.08236285       0.13486858 </v>
   <v>      -0.20913543      -0.08236285      -0.13486858 </v>
  </varray>
  <energy>
   <i name="e_fr_energy">    -88.60281639 </i>
   <i name="e_wo_entrp">    -88.60281639 </i>
   <i name="e_0_energy">    -88.60281639 </i>
  </energy>
  <time name="totalsc"> 3540.28 3550.27</time>
  <eigenvalues>
   <array>
    <dimension dim="1">band</dimension>
    <dimension dim="2">kpoint</dimension>
    <dimension dim="3">spin</dimension>
    <field>eigene</field>
    <field>occ</field>
    <set>
     <set comment="spin 1">
      <set comment="kpoint 1">
       <r>  -21.4027    1.0000 </r>
       <r>  -21.3988    1.0000 </r>
       <r>  -21.3835    1.0000 </r>
       <r>  -21.3806    1.0000 </r>
       <r>  -15.7765    1.0000 </r>
       <r>  -15.7755    1.0000 </r>
       <r>  -15.7751    1.0000 </r>
       <r>  -15.7708    1.0000 </r>
       <r>  -15.7473    1.0000 </r>
       <r>  -15.7464    1.0000 </r>
       <r>  -15.7024    1.0000 </r>
       <r>  -15.7022    1.0000 </r>
       <r>  -15.6546    1.0000 </r>
       <r>  -15.6545    1.0000 </r>
       <r>  -15.6464    1.0000 </r>
       <r>  -15.6463    1.0000 </r>
       <r>  -15.6117    1.0000 </r>
       <r>  -15.6117    1.0000 </r>
       <r>  -15.5826    1.0000 </r>
       <r>  -15.5824    1.0000 </r>
       <r>  -15.5745    1.0000 </r>
       <r>  -15.5745    1.0000 </r>
       <r>  -15.5695    1.0000 </r>
       <r>  -15.5695    1.0000 </r>
       <r>  -14.1329    1.0000 </r>
       <r>  -13.9897    1.0000 </r>
       <r>  -13.6022    1.0000 </r>
       <r>  -13.4072    1.0000 </r>
       <r>  -12.1190    1.0000 </r>
       <r>  -12.1121    1.0000 </r>
       <r>  -11.5061    1.0000 </r>
       <r>  -11.4847    1.0000 </r>
       <r>  -11.0125    1.0000 </r>
       <r>  -10.9183    1.0000 </r>
       <r>  -10.6986    1.0000 </r>
       <r>  -10.6082    1.0000 </r>
       <r>   -7.4426    1.0000 </r>
       <r>   -7.3888    1.0000 </r>
       <r>   -7.3550    1.0000 </r>
       <r>   -7.3506    1.0000 </r>
       <r>   -7.3300    1.0000 </r>
       <r>   -7.2999    1.0000 </r>
       <r>   -7.2553    1.0000 </r>
       <r>   -7.2329    1.0000 </r>
       <r>   -7.1917    1.0000 </r>
       <r>   -7.1797    1.0000 </r>
       <r>   -7.1748    1.0000 </r>
       <r>   -7.1453    1.0000 </r>
       <r>   -5.2713    1.0000 </r>
       <r>   -4.9343    1.0000 </r>
       <r>   -4.8388    1.0000 </r>
       <r>   -4.7837    1.0000 </r>
       <r>   -3.1738    1.0000 </r>
       <r>   -3.0050    1.0000 </r>
       <r>   -2.9147    1.0000 </r>
       <r>   -2.9122    1.0000 </r>
       <r>   -2.7572    1.0000 </r>
       <r>   -2.3018    1.0000 </r>
       <r>   -1.8218    1.0000 </r>
       <r>   -1.6507    1.0000 </r>
       <r>   -1.5493    1.0000 </r>
       <r>   -1.4251    1.0000 </r>
       <r>   -1.4094    1.0000 </r>
       <r>   -1.0875    1.0000 </r>
       <r>   -1.0605    1.0000 </r>
       <r>   -1.0167    1.0000 </r>
       <r>   -0.6454    1.0000 </r>
       <r>   -0.5970    1.0000 </r>
       <r>   -0.5918    1.0000 </r>
       <r>   -0.5368    1.0000 </r>
       <r>   -0.3731    1.0000 </r>
       <r>   -0.0976    1.0000 </r>
       <r>    0.2105    1.0000 </r>
       <r>    0.2991    1.0000 </r>
       <r>    0.4074    1.0000 </r>
       <r>    0.6377    1.0000 </r>
       <r>    0.8327    1.0000 </r>
       <r>    0.8715    1.0000 </r>
       <r>    1.0255    1.0000 </r>
       <r>    1.1593    1.0000 </r>
       <r>    4.1999    0.0000 </r>
       <r>    4.2384    0.0000 </r>
       <r>    4.2870    0.0000 </r>
       <r>    4.4314    0.0000 </r>
       <r>    4.6251    0.0000 </r>
       <r>    4.9733    0.0000 </r>
       <r>    5.6001    0.0000 </r>
       <r>    5.6839    0.0000 </r>
       <r>    6.0608    0.0000 </r>
       <r>    6.0665    0.0000 </r>
       <r>    6.7145    0.0000 </r>
       <r>    6.7553    0.0000 </r>
       <r>    6.7612    0.0000 </r>
       <r>    6.9013    0.0000 </r>
       <r>    7.0479    0.0000 </r>
       <r>    7.1816    0.0000 </r>
      </set>
      <set comment="kpoint 2">
       <r>  -21.3991    1.0000 </r>
       <r>  -21.3956    1.0000 </r>
       <r>  -21.3868    1.0000 </r>
       <r>  -21.3837    1.0000 </r>
       <r>  -15.7782    1.0000 </r>
       <r>  -15.7748    1.0000 </r>
       <r>  -15.7735    1.0000 </r>
       <r>  -15.7710    1.0000 </r>
       <r>  -15.7488    1.0000 </r>
       <r>  -15.7460    1.0000 </r>
       <r>  -15.7025    1.0000 </r>
       <r>  -15.7021    1.0000 </r>
       <r>  -15.6547    1.0000 </r>
       <r>  -15.6545    1.0000 </r>
       <r>  -15.6464    1.0000 </r>
       <r>  -15.6463    1.0000 </r>
       <r>  -15.6117    1.0000 </r>
       <r>  -15.6117    1.0000 </r>
       <r>  -15.5825    1.0000 </r>
       <r>  -15.5824    1.0000 </r>
       <r>  -15.5745    1.0000 </r>
       <r>  -15.5745    1.0000 </r>
       <r>  -15.5695    1.0000 </r>
       <r>  -15.5695    1.0000 </r>
       <r>  -14.1192    1.0000 </r>
       <r>  -13.9928    1.0000 </r>
       <r>  -13.6064    1.0000 </r>
       <r>  -13.4082    1.0000 </r>
       <r>  -12.1622    1.0000 </r>
       <r>  -12.1226    1.0000 </r>
       <r>  -11.5260    1.0000 </r>
       <r>  -11.4764    1.0000 </r>
       <r>  -11.0069    1.0000 </r>
       <r>  -10.9253    1.0000 </r>
       <r>  -10.6800    1.0000 </r>
       <r>  -10.6054    1.0000 </r>
       <r>   -7.4033    1.0000 </r>
       <r>   -7.3650    1.0000 </r>
       <r>   -7.3605    1.0000 </r>
       <r>   -7.3159    1.0000 </r>
       <r>   -7.2837    1.0000 </r>
       <r>   -7.2732    1.0000 </r>
       <r>   -7.2398    1.0000 </r>
       <r>   -7.2222    1.0000 </r>
       <r>   -7.2109    1.0000 </r>
       <r>   -7.2005    1.0000 </r>
       <r>   -7.1605    1.0000 </r>
       <r>   -7.1496    1.0000 </r>
       <r>   -5.0956    1.0000 </r>
       <r>   -4.9099    1.0000 </r>
       <r>   -4.8342    1.0000 </r>
       <r>   -4.8061    1.0000 </r>
       <r>   -3.3608    1.0000 </r>
       <r>   -3.0412    1.0000 </r>
       <r>   -2.9417    1.0000 </r>
       <r>   -2.8290    1.0000 </r>
       <r>   -2.6718    1.0000 </r>
       <r>   -2.4292    1.0000 </r>
       <r>   -1.8700    1.0000 </r>
       <r>   -1.5921    1.0000 </r>
       <r>   -1.5869    1.0000 </r>
       <r>   -1.5596    1.0000 </r>
       <r>   -1.3068    1.0000 </r>
       <r>   -1.1128    1.0000 </r>
       <r>   -1.0056    1.0000 </r>
       <r>   -0.9741    1.0000 </r>
       <r>   -0.6620    1.0000 </r>
       <r>   -0.6263    1.0000 </r>
       <r>   -0.4940    1.0000 </r>
       <r>   -0.4640    1.0000 </r>
       <r>   -0.4425    1.0000 </r>
       <r>   -0.1224    1.0000 </r>
       <r>    0.1184    1.0000 </r>
       <r>    0.2778    1.0000 </r>
       <r>    0.3987    1.0000 </r>
       <r>    0.4502    1.0000 </r>
       <r>    0.6056    1.0000 </r>
       <r>    0.6670    1.0000 </r>
       <r>    0.8877    1.0000 </r>
       <r>    0.9397    1.0000 </r>
       <r>    4.1225    0.0000 </r>
       <r>    4.1418    0.0000 </r>
       <r>    4.3420    0.0000 </r>
       <r>    4.3466    0.0000 </r>
       <r>    4.8885    0.0000 </r>
       <r>    5.2890    0.0000 </r>
       <r>    5.6338    0.0000 </r>
       <r>    5.7449    0.0000 </r>
       <r>    6.1341    0.0000 </r>
       <r>    6.5156    0.0000 </r>
       <r>    6.5850    0.0000 </r>
       <r>    6.7609    0.0000 </r>
       <r>    6.9832    0.0000 </r>
       <r>    7.0179    0.0000 </r>
       <r>    7.1397    0.0000 </r>
       <r>    7.2600    0.0000 </r>
      </set>
      <set comment="kpoint 3">
       <r>  -21.3982    1.0000 </r>
       <r>  -21.3961    1.0000 </r>
       <r>  -21.3856    1.0000 </r>
       <r>  -21.3843    1.0000 </r>
       <r>  -15.7735    1.0000 </r>
       <r>  -15.7721    1.0000 </r>
       <r>  -15.7712    1.0000 </r>
       <r>  -15.7684    1.0000 </r>
       <r>  -15.7368    1.0000 </r>
       <r>  -15.7353    1.0000 </r>
       <r>  -15.7155    1.0000 </r>
       <r>  -15.7145    1.0000 </r>
       <r>  -15.6563    1.0000 </r>
       <r>  -15.6561    1.0000 </r>
       <r>  -15.6451    1.0000 </r>
       <r>  -15.6449    1.0000 </r>
       <r>  -15.6088    1.0000 </r>
       <r>  -15.6088    1.0000 </r>
       <r>  -15.5848    1.0000 </r>
       <r>  -15.5847    1.0000 </r>
       <r>  -15.5805    1.0000 </r>
       <r>  -15.5804    1.0000 </r>
       <r>  -15.5740    1.0000 </r>
       <r>  -15.5740    1.0000 </r>
       <r>  -13.9927    1.0000 </r>
       <r>  -13.8362    1.0000 </r>
       <r>  -13.7221    1.0000 </r>
       <r>  -13.5408    1.0000 </r>
       <r>  -12.0786    1.0000 </r>
       <r>  -12.0113    1.0000 </r>
       <r>  -11.8376    1.0000 </r>
       <r>  -11.7498    1.0000 </r>
       <r>  -10.7942    1.0000 </r>
       <r>  -10.7570    1.0000 </r>
       <r>  -10.7145    1.0000 </r>
       <r>  -10.6342    1.0000 </r>
       <r>   -7.4242    1.0000 </r>
       <r>   -7.3919    1.0000 </r>
       <r>   -7.3341    1.0000 </r>
       <r>   -7.3187    1.0000 </r>
       <r>   -7.3051    1.0000 </r>
       <r>   -7.2924    1.0000 </r>
       <r>   -7.2592    1.0000 </r>
       <r>   -7.2552    1.0000 </r>
       <r>   -7.2408    1.0000 </r>
       <r>   -7.2154    1.0000 </r>
       <r>   -7.1462    1.0000 </r>
       <r>   -7.1439    1.0000 </r>
       <r>   -5.1524    1.0000 </r>
       <r>   -4.9891    1.0000 </r>
       <r>   -4.7914    1.0000 </r>
       <r>   -4.7852    1.0000 </r>
       <r>   -3.0435    1.0000 </r>
       <r>   -2.9474    1.0000 </r>
       <r>   -2.7205    1.0000 </r>
       <r>   -2.5878    1.0000 </r>
       <r>   -2.4689    1.0000 </r>
       <r>   -2.1525    1.0000 </r>
       <r>   -2.0814    1.0000 </r>
       <r>   -2.0426    1.0000 </r>
       <r>   -1.9112    1.0000 </r>
       <r>   -1.7848    1.0000 </r>
       <r>   -1.6106    1.0000 </r>
       <r>   -1.0980    1.0000 </r>
       <r>   -0.9304    1.0000 </r>
       <r>   -0.6825    1.0000 </r>
       <r>   -0.6467    1.0000 </r>
       <r>   -0.4933    1.0000 </r>
       <r>   -0.4692    1.0000 </r>
       <r>   -0.2181    1.0000 </r>
       <r>   -0.1806    1.0000 </r>
       <r>   -0.1132    1.0000 </r>
       <r>    0.1766    1.0000 </r>
       <r>    0.2721    1.0000 </r>
       <r>    0.4930    1.0000 </r>
       <r>    0.5591    1.0000 </r>
       <r>    0.6981    1.0000 </r>
       <r>    0.7631    1.0000 </r>
       <r>    0.9642    1.0000 </r>
       <r>    1.0601    1.0000 </r>
       <r>    3.9747    0.0000 </r>
       <r>    4.1718    0.0000 </r>
       <r>    4.3263    0.0000 </r>
       <r>    4.3407    0.0000 </r>
       <r>    4.9681    0.0000 </r>
       <r>    5.0919    0.0000 </r>
       <r>    5.4098    0.0000 </r>
       <r>    5.4508    0.0000 </r>
       <r>    6.0611    0.0000 </r>
       <r>    6.1844    0.0000 </r>
       <r>    6.3517    0.0000 </r>
       <r>    6.3848    0.0000 </r>
       <r>    6.7372    0.0000 </r>
       <r>    6.7870    0.0000 </r>
       <r>    6.8766    0.0000 </r>
       <r>    7.0756    0.0000 </r>
      </set>
      <set comment="kpoint 4">
       <r>  -21.3968    1.0000 </r>
       <r>  -21.3954    1.0000 </r>
       <r>  -21.3867    1.0000 </r>
       <r>  -21.3848    1.0000 </r>
       <r>  -15.7749    1.0000 </r>
       <r>  -15.7709    1.0000 </r>
       <r>  -15.7704    1.0000 </r>
       <r>  -15.7688    1.0000 </r>
       <r>  -15.7380    1.0000 </r>
       <r>  -15.7352    1.0000 </r>
       <r>  -15.7153    1.0000 </r>
       <r>  -15.7146    1.0000 </r>
       <r>  -15.6564    1.0000 </r>
       <r>  -15.6561    1.0000 </r>
       <r>  -15.6450    1.0000 </r>
       <r>  -15.6449    1.0000 </r>
       <r>  -15.6089    1.0000 </r>
       <r>  -15.6088    1.0000 </r>
       <r>  -15.5848    1.0000 </r>
       <r>  -15.5848    1.0000 </r>
       <r>  -15.5805    1.0000 </r>
       <r>  -15.5804    1.0000 </r>
       <r>  -15.5740    1.0000 </r>
       <r>  -15.5740    1.0000 </r>
       <r>  -13.9783    1.0000 </r>
       <r>  -13.8406    1.0000 </r>
       <r>  -13.7342    1.0000 </r>
       <r>  -13.5382    1.0000 </r>
       <r>  -12.1024    1.0000 </r>
       <r>  -12.0263    1.0000 </r>
       <r>  -11.8090    1.0000 </r>
       <r>  -11.7354    1.0000 </r>
       <r>  -10.8761    1.0000 </r>
       <r>  -10.7387    1.0000 </r>
       <r>  -10.7257    1.0000 </r>
       <r>  -10.6330    1.0000 </r>
       <r>   -7.3748    1.0000 </r>
       <r>   -7.3569    1.0000 </r>
       <r>   -7.3237    1.0000 </r>
       <r>   -7.2997    1.0000 </r>
       <r>   -7.2885    1.0000 </r>
       <r>   -7.2618    1.0000 </r>
       <r>   -7.2435    1.0000 </r>
       <r>   -7.2380    1.0000 </r>
       <r>   -7.2035    1.0000 </r>
       <r>   -7.1969    1.0000 </r>
       <r>   -7.1666    1.0000 </r>
       <r>   -7.1642    1.0000 </r>
       <r>   -5.0769    1.0000 </r>
       <r>   -5.0280    1.0000 </r>
       <r>   -4.7765    1.0000 </r>
       <r>   -4.7608    1.0000 </r>
       <r>   -3.0450    1.0000 </r>
       <r>   -2.8040    1.0000 </r>
       <r>   -2.7799    1.0000 </r>
       <r>   -2.5959    1.0000 </r>
       <r>   -2.4684    1.0000 </r>
       <r>   -2.2185    1.0000 </r>
       <r>   -2.1332    1.0000 </r>
       <r>   -2.0055    1.0000 </r>
       <r>   -1.9289    1.0000 </r>
       <r>   -1.7441    1.0000 </r>
       <r>   -1.6237    1.0000 </r>
       <r>   -0.8634    1.0000 </r>
       <r>   -0.8319    1.0000 </r>
       <r>   -0.8054    1.0000 </r>
       <r>   -0.6600    1.0000 </r>
       <r>   -0.6122    1.0000 </r>
       <r>   -0.5946    1.0000 </r>
       <r>   -0.3115    1.0000 </r>
       <r>   -0.2148    1.0000 </r>
       <r>   -0.0435    1.0000 </r>
       <r>    0.1014    1.0000 </r>
       <r>    0.1042    1.0000 </r>
       <r>    0.3492    1.0000 </r>
       <r>    0.4577    1.0000 </r>
       <r>    0.5933    1.0000 </r>
       <r>    0.7409    1.0000 </r>
       <r>    0.7434    1.0000 </r>
       <r>    0.8053    1.0000 </r>
       <r>    4.1058    0.0000 </r>
       <r>    4.1747    0.0000 </r>
       <r>    4.3058    0.0000 </r>
       <r>    4.3116    0.0000 </r>
       <r>    4.9004    0.0000 </r>
       <r>    5.2182    0.0000 </r>
       <r>    5.5837    0.0000 </r>
       <r>    5.6046    0.0000 </r>
       <r>    6.1042    0.0000 </r>
       <r>    6.2773    0.0000 </r>
       <r>    6.6422    0.0000 </r>
       <r>    6.6672    0.0000 </r>
       <r>    6.6720    0.0000 </r>
       <r>    6.8607    0.0000 </r>
       <r>    6.9937    0.0000 </r>
       <r>    7.0652    0.0000 </r>
      </set>
      <set comment="kpoint 5">
       <r>  -21.4000    1.0000 </r>
       <r>  -21.3980    1.0000 </r>
       <r>  -21.3835    1.0000 </r>
       <r>  -21.3821    1.0000 </r>
       <r>  -15.7734    1.0000 </r>
       <r>  -15.7722    1.0000 </r>
       <r>  -15.7712    1.0000 </r>
       <r>  -15.7684    1.0000 </r>
       <r>  -15.7369    1.0000 </r>
       <r>  -15.7354    1.0000 </r>
       <r>  -15.7160    1.0000 </r>
       <r>  -15.7145    1.0000 </r>
       <r>  -15.6562    1.0000 </r>
       <r>  -15.6561    1.0000 </r>
       <r>  -15.6452    1.0000 </r>
       <r>  -15.6449    1.0000 </r>
       <r>  -15.6089    1.0000 </r>
       <r>  -15.6088    1.0000 </r>
       <r>  -15.5848    1.0000 </r>
       <r>  -15.5848    1.0000 </r>
       <r>  -15.5805    1.0000 </r>
       <r>  -15.5804    1.0000 </r>
       <r>  -15.5740    1.0000 </r>
       <r>  -15.5740    1.0000 </r>
       <r>  -13.9973    1.0000 </r>
       <r>  -13.8351    1.0000 </r>
       <r>  -13.7260    1.0000 </r>
       <r>  -13.5405    1.0000 </r>
       <r>  -12.0490    1.0000 </r>
       <r>  -12.0111    1.0000 </r>
       <r>  -11.8023    1.0000 </r>
       <r>  -11.7349    1.0000 </r>
       <r>  -10.9099    1.0000 </r>
       <r>  -10.7885    1.0000 </r>
       <r>  -10.7425    1.0000 </r>
       <r>  -10.6358    1.0000 </r>
       <r>   -7.3837    1.0000 </r>
       <r>   -7.3597    1.0000 </r>
       <r>   -7.3315    1.0000 </r>
       <r>   -7.3081    1.0000 </r>
       <r>   -7.2697    1.0000 </r>
       <r>   -7.2609    1.0000 </r>
       <r>   -7.2440    1.0000 </r>
       <r>   -7.2367    1.0000 </r>
       <r>   -7.2159    1.0000 </r>
       <r>   -7.1861    1.0000 </r>
       <r>   -7.1609    1.0000 </r>
       <r>   -7.1442    1.0000 </r>
       <r>   -5.0834    1.0000 </r>
       <r>   -4.9124    1.0000 </r>
       <r>   -4.8058    1.0000 </r>
       <r>   -4.7907    1.0000 </r>
       <r>   -2.9525    1.0000 </r>
       <r>   -2.8687    1.0000 </r>
       <r>   -2.8184    1.0000 </r>
       <r>   -2.5879    1.0000 </r>
       <r>   -2.4992    1.0000 </r>
       <r>   -2.1356    1.0000 </r>
       <r>   -2.0949    1.0000 </r>
       <r>   -1.9698    1.0000 </r>
       <r>   -1.9151    1.0000 </r>
       <r>   -1.6724    1.0000 </r>
       <r>   -1.3273    1.0000 </r>
       <r>   -1.3222    1.0000 </r>
       <r>   -1.0545    1.0000 </r>
       <r>   -0.8917    1.0000 </r>
       <r>   -0.7966    1.0000 </r>
       <r>   -0.5568    1.0000 </r>
       <r>   -0.4449    1.0000 </r>
       <r>   -0.2805    1.0000 </r>
       <r>   -0.1632    1.0000 </r>
       <r>   -0.1555    1.0000 </r>
       <r>    0.1411    1.0000 </r>
       <r>    0.2401    1.0000 </r>
       <r>    0.2986    1.0000 </r>
       <r>    0.3296    1.0000 </r>
       <r>    0.6039    1.0000 </r>
       <r>    0.7144    1.0000 </r>
       <r>    0.7560    1.0000 </r>
       <r>    0.9951    1.0000 </r>
       <r>    4.1862    0.0000 </r>
       <r>    4.2628    0.0000 </r>
       <r>    4.3280    0.0000 </r>
       <r>    4.3693    0.0000 </r>
       <r>    5.0522    0.0000 </r>
       <r>    5.1551    0.0000 </r>
       <r>    5.3662    0.0000 </r>
       <r>    5.6387    0.0000 </r>
       <r>    6.1461    0.0000 </r>
       <r>    6.2744    0.0000 </r>
       <r>    6.4096    0.0000 </r>
       <r>    6.5636    0.0000 </r>
       <r>    6.8151    0.0000 </r>
       <r>    6.8573    0.0000 </r>
       <r>    6.9410    0.0000 </r>
       <r>    7.0171    0.0000 </r>
      </set>
     </set>
     <set comment="spin 2">
      <set comment="kpoint 1">
       <r>  -21.4027    1.0000 </r>
       <r>  -21.3988    1.0000 </r>
       <r>  -21.3835    1.0000 </r>
       <r>  -21.3806    1.0000 </r>
       <r>  -15.7765    1.0000 </r>
       <r>  -15.7755    1.0000 </r>
       <r>  -15.7751    1.0000 </r>
       <r>  -15.7708    1.0000 </r>
       <r>  -15.7473    1.0000 </r>
       <r>  -15.7464    1.0000 </r>
       <r>  -15.7024    1.0000 </r>
       <r>  -15.7022    1.0000 </r>
       <r>  -15.6546    1.0000 </r>
       <r>  -15.6545    1.0000 </r>
       <r>  -15.6464    1.0000 </r>
       <r>  -15.6463    1.0000 </r>
       <r>  -15.6117    1.0000 </r>
       <r>  -15.6117    1.0000 </r>
       <r>  -15.5826    1.0000 </r>
       <r>  -15.5824    1.0000 </r>
       <r>  -15.5745    1.0000 </r>
       <r>  -15.5745    1.0000 </r>
       <r>  -15.5695    1.0000 </r>
       <r>  -15.5695    1.0000 </r>
       <r>  -14.1329    1.0000 </r>
       <r>  -13.9897    1.0000 </r>
       <r>  -13.6022    1.0000 </r>
       <r>  -13.4072    1.0000 </r>
       <r>  -12.1190    1.0000 </r>
       <r>  -12.1121    1.0000 </r>
       <r>  -11.5061    1.0000 </r>
       <r>  -11.4847    1.0000 </r>
       <r>  -11.0125    1.0000 </r>
       <r>  -10.9183    1.0000 </r>
       <r>  -10.6986    1.0000 </r>
       <r>  -10.6082    1.0000 </r>
       <r>   -7.4426    1.0000 </r>
       <r>   -7.3888    1.0000 </r>
       <r>   -7.3550    1.0000 </r>
       <r>   -7.3506    1.0000 </r>
       <r>   -7.3300    1.0000 </r>
       <r>   -7.2999    1.0000 </r>
       <r>   -7.2553    1.0000 </r>
       <r>   -7.2329    1.0000 </r>
       <r>   -7.1917    1.0000 </r>
       <r>   -7.1797    1.0000 </r>
       <r>   -7.1748    1.0000 </r>
       <r>   -7.1453    1.0000 </r>
       <r>   -5.2713    1.0000 </r>
       <r>   -4.9343    1.0000 </r>
       <r>   -4.8388    1.0000 </r>
       <r>   -4.7837    1.0000 </r>
       <r>   -3.1738    1.0000 </r>
       <r>   -3.0050    1.0000 </r>
       <r>   -2.9147    1.0000 </r>
       <r>   -2.9122    1.0000 </r>
       <r>   -2.7572    1.0000 </r>
       <r>   -2.3018    1.0000 </r>
       <r>   -1.8218    1.0000 </r>
       <r>   -1.6507    1.0000 </r>
       <r>   -1.5493    1.0000 </r>
       <r>   -1.4251    1.0000 </r>
       <r>   -1.4094    1.0000 </r>
       <r>   -1.0875    1.0000 </r>
       <r>   -1.0605    1.0000 </r>
       <r>   -1.0167    1.0000 </r>
       <r>   -0.6454    1.0000 </r>
       <r>   -0.5970    1.0000 </r>
       <r>   -0.5918    1.0000 </r>
       <r>   -0.5368    1.0000 </r>
       <r>   -0.3731    1.0000 </r>
       <r>   -0.0976    1.0000 </r>
       <r>    0.2105    1.0000 </r>
       <r>    0.2991    1.0000 </r>
       <r>    0.4074    1.0000 </r>
       <r>    0.6377    1.0000 </r>
       <r>    0.8327    1.0000 </r>
       <r>    0.8715    1.0000 </r>
       <r>    1.0255    1.0000 </r>
       <r>    1.1593    1.0000 </r>
       <r>    4.1999    0.0000 </r>
       <r>    4.2384    0.0000 </r>
       <r>    4.2870    0.0000 </r>
       <r>    4.4314    0.0000 </r>
       <r>    4.6251    0.0000 </r>
       <r>    4.9733    0.0000 </r>
       <r>    5.6001    0.0000 </r>
       <r>    5.6839    0.0000 </r>
       <r>    6.0608    0.0000 </r>
       <r>    6.0665    0.0000 </r>
       <r>    6.7145    0.0000 </r>
       <r>    6.7553    0.0000 </r>
       <r>    6.7612    0.0000 </r>
       <r>    6.9013    0.0000 </r>
       <r>    7.0478    0.0000 </r>
       <r>    7.1811    0.0000 </r>
      </set>
      <set comment="kpoint 2">
       <r>  -21.3991    1.0000 </r>
       <r>  -21.3956    1.0000 </r>
       <r>  -21.3868    1.0000 </r>
       <r>  -21.3837    1.0000 </r>
       <r>  -15.7782    1.0000 </r>
       <r>  -15.7748    1.0000 </r>
       <r>  -15.7735    1.0000 </r>
       <r>  -15.7710    1.0000 </r>
       <r>  -15.7488    1.0000 </r>
       <r>  -15.7460    1.0000 </r>
       <r>  -15.7025    1.0000 </r>
       <r>  -15.7021    1.0000 </r>
       <r>  -15.6547    1.0000 </r>
       <r>  -15.6545    1.0000 </r>
       <r>  -15.6464    1.0000 </r>
       <r>  -15.6463    1.0000 </r>
       <r>  -15.6117    1.0000 </r>
       <r>  -15.6117    1.0000 </r>
       <r>  -15.5825    1.0000 </r>
       <r>  -15.5824    1.0000 </r>
       <r>  -15.5745    1.0000 </r>
       <r>  -15.5745    1.0000 </r>
       <r>  -15.5695    1.0000 </r>
       <r>  -15.5695    1.0000 </r>
       <r>  -14.1192    1.0000 </r>
       <r>  -13.9928    1.0000 </r>
       <r>  -13.6064    1.0000 </r>
       <r>  -13.4082    1.0000 </r>
       <r>  -12.1622    1.0000 </r>
       <r>  -12.1226    1.0000 </r>
       <r>  -11.5260    1.0000 </r>
       <r>  -11.4764    1.0000 </r>
       <r>  -11.0069    1.0000 </r>
       <r>  -10.9253    1.0000 </r>
       <r>  -10.6800    1.0000 </r>
       <r>  -10.6054    1.0000 </r>
       <r>   -7.4033    1.0000 </r>
       <r>   -7.3650    1.0000 </r>
       <r>   -7.3605    1.0000 </r>
       <r>   -7.3159    1.0000 </r>
       <r>   -7.2837    1.0000 </r>
       <r>   -7.2732    1.0000 </r>
       <r>   -7.2398    1.0000 </r>
       <r>   -7.2222    1.0000 </r>
       <r>   -7.2109    1.0000 </r>
       <r>   -7.2005    1.0000 </r>
       <r>   -7.1605    1.0000 </r>
       <r>   -7.1496    1.0000 </r>
       <r>   -5.0956    1.0000 </r>
       <r>   -4.9099    1.0000 </r>
       <r>   -4.8342    1.0000 </r>
       <r>   -4.8061    1.0000 </r>
       <r>   -3.3608    1.0000 </r>
       <r>   -3.0412    1.0000 </r>
       <r>   -2.9417    1.0000 </r>
       <r>   -2.8290    1.0000 </r>
       <r>   -2.6718    1.0000 </r>
       <r>   -2.4292    1.0000 </r>
       <r>   -1.8700    1.0000 </r>
       <r>   -1.5921    1.0000 </r>
       <r>   -1.5869    1.0000 </r>
       <r>   -1.5596    1.0000 </r>
       <r>   -1.3068    1.0000 </r>
       <r>   -1.1128    1.0000 </r>
       <r>   -1.0056    1.0000 </r>
       <r>   -0.9741    1.0000 </r>
       <r>   -0.6620    1.0000 </r>
       <r>   -0.6263    1.0000 </r>
       <r>   -0.4940    1.0000 </r>
       <r>   -0.4640    1.0000 </r>
       <r>   -0.4425    1.0000 </r>
       <r>   -0.1224    1.0000 </r>
       <r>    0.1184    1.0000 </r>
       <r>    0.2778    1.0000 </r>
       <r>    0.3987    1.0000 </r>
       <r>    0.4502    1.0000 </r>
       <r>    0.6056    1.0000 </r>
       <r>    0.6670    1.0000 </r>
       <r>    0.8877    1.0000 </r>
       <r>    0.9397    1.0000 </r>
       <r>    4.1225    0.0000 </r>
       <r>    4.1418    0.0000 </r>
       <r>    4.3420    0.0000 </r>
       <r>    4.3466    0.0000 </r>
       <r>    4.8885    0.0000 </r>
       <r>    5.2890    0.0000 </r>
       <r>    5.6338    0.0000 </r>
       <r>    5.7449    0.0000 </r>
       <r>    6.1341    0.0000 </r>
       <r>    6.5156    0.0000 </r>
       <r>    6.5850    0.0000 </r>
       <r>    6.7609    0.0000 </r>
       <r>    6.9832    0.0000 </r>
       <r>    7.0179    0.0000 </r>
       <r>    7.1396    0.0000 </r>
       <r>    7.2725    0.0000 </r>
      </set>
      <set comment="kpoint 3">
       <r>  -21.3982    1.0000 </r>
       <r>  -21.3961    1.0000 </r>
       <r>  -21.3856    1.0000 </r>
       <r>  -21.3843    1.0000 </r>
       <r>  -15.7735    1.0000 </r>
       <r>  -15.7721    1.0000 </r>
       <r>  -15.7712    1.0000 </r>
       <r>  -15.7684    1.0000 </r>
       <r>  -15.7368    1.0000 </r>
       <r>  -15.7353    1.0000 </r>
       <r>  -15.7155    1.0000 </r>
       <r>  -15.7145    1.0000 </r>
       <r>  -15.6563    1.0000 </r>
       <r>  -15.6561    1.0000 </r>
       <r>  -15.6451    1.0000 </r>
       <r>  -15.6449    1.0000 </r>
       <r>  -15.6088    1.0000 </r>
       <r>  -15.6088    1.0000 </r>
       <r>  -15.5848    1.0000 </r>
       <r>  -15.5847    1.0000 </r>
       <r>  -15.5805    1.0000 </r>
       <r>  -15.5804    1.0000 </r>
       <r>  -15.5740    1.0000 </r>
       <r>  -15.5740    1.0000 </r>
       <r>  -13.9927    1.0000 </r>
       <r>  -13.8362    1.0000 </r>
       <r>  -13.7221    1.0000 </r>
       <r>  -13.5408    1.0000 </r>
       <r>  -12.0786    1.0000 </r>
       <r>  -12.0113    1.0000 </r>
       <r>  -11.8376    1.0000 </r>
       <r>  -11.7498    1.0000 </r>
       <r>  -10.7942    1.0000 </r>
       <r>  -10.7570    1.0000 </r>
       <r>  -10.7145    1.0000 </r>
       <r>  -10.6342    1.0000 </r>
       <r>   -7.4242    1.0000 </r>
       <r>   -7.3919    1.0000 </r>
       <r>   -7.3341    1.0000 </r>
       <r>   -7.3187    1.0000 </r>
       <r>   -7.3051    1.0000 </r>
       <r>   -7.2924    1.0000 </r>
       <r>   -7.2592    1.0000 </r>
       <r>   -7.2552    1.0000 </r>
       <r>   -7.2408    1.0000 </r>
       <r>   -7.2154    1.0000 </r>
       <r>   -7.1462    1.0000 </r>
       <r>   -7.1439    1.0000 </r>
       <r>   -5.1524    1.0000 </r>
       <r>   -4.9891    1.0000 </r>
       <r>   -4.7914    1.0000 </r>
       <r>   -4.7852    1.0000 </r>
       <r>   -3.0435    1.0000 </r>
       <r>   -2.9474    1.0000 </r>
       <r>   -2.7205    1.0000 </r>
       <r>   -2.5878    1.0000 </r>
       <r>   -2.4689    1.0000 </r>
       <r>   -2.1525    1.0000 </r>
       <r>   -2.0814    1.0000 </r>
       <r>   -2.0426    1.0000 </r>
       <r>   -1.9112    1.0000 </r>
       <r>   -1.7848    1.0000 </r>
       <r>   -1.6106    1.0000 </r>
       <r>   -1.0980    1.0000 </r>
       <r>   -0.9304    1.0000 </r>
       <r>   -0.6825    1.0000 </r>
       <r>   -0.6467    1.0000 </r>
       <r>   -0.4933    1.0000 </r>
       <r>   -0.4692    1.0000 </r>
       <r>   -0.2181    1.0000 </r>
       <r>   -0.1806    1.0000 </r>
       <r>   -0.1132    1.0000 </r>
       <r>    0.1766    1.0000 </r>
       <r>    0.2721    1.0000 </r>
       <r>    0.4930    1.0000 </r>
       <r>    0.5591    1.0000 </r>
       <r>    0.6981    1.0000 </r>
       <r>    0.7631    1.0000 </r>
       <r>    0.9642    1.0000 </r>
       <r>    1.0601    1.0000 </r>
       <r>    3.9747    0.0000 </r>
       <r>    4.1718    0.0000 </r>
       <r>    4.3263    0.0000 </r>
       <r>    4.3407    0.0000 </r>
       <r>    4.9681    0.0000 </r>
       <r>    5.0919    0.0000 </r>
       <r>    5.4098    0.0000 </r>
       <r>    5.4508    0.0000 </r>
       <r>    6.0611    0.0000 </r>
       <r>    6.1844    0.0000 </r>
       <r>    6.3517    0.0000 </r>
       <r>    6.3848    0.0000 </r>
       <r>    6.7373    0.0000 </r>
       <r>    6.7871    0.0000 </r>
       <r>    6.8760    0.0000 </r>
       <r>    7.0456    0.0000 </r>
      </set>
      <set comment="kpoint 4">
       <r>  -21.3968    1.0000 </r>
       <r>  -21.3954    1.0000 </r>
       <r>  -21.3866    1.0000 </r>
       <r>  -21.3848    1.0000 </r>
       <r>  -15.7749    1.0000 </r>
       <r>  -15.7709    1.0000 </r>
       <r>  -15.7704    1.0000 </r>
       <r>  -15.7688    1.0000 </r>
       <r>  -15.7380    1.0000 </r>
       <r>  -15.7352    1.0000 </r>
       <r>  -15.7153    1.0000 </r>
       <r>  -15.7146    1.0000 </r>
       <r>  -15.6564    1.0000 </r>
       <r>  -15.6561    1.0000 </r>
       <r>  -15.6450    1.0000 </r>
       <r>  -15.6449    1.0000 </r>
       <r>  -15.6089    1.0000 </r>
       <r>  -15.6088    1.0000 </r>
       <r>  -15.5848    1.0000 </r>
       <r>  -15.5848    1.0000 </r>
       <r>  -15.5805    1.0000 </r>
       <r>  -15.5804    1.0000 </r>
       <r>  -15.5740    1.0000 </r>
       <r>  -15.5740    1.0000 </r>
       <r>  -13.9783    1.0000 </r>
       <r>  -13.8406    1.0000 </r>
       <r>  -13.7342    1.0000 </r>
       <r>  -13.5382    1.0000 </r>
       <r>  -12.1024    1.0000 </r>
       <r>  -12.0263    1.0000 </r>
       <r>  -11.8090    1.0000 </r>
       <r>  -11.7354    1.0000 </r>
       <r>  -10.8761    1.0000 </r>
       <r>  -10.7387    1.0000 </r>
       <r>  -10.7257    1.0000 </r>
       <r>  -10.6330    1.0000 </r>
       <r>   -7.3748    1.0000 </r>
       <r>   -7.3569    1.0000 </r>
       <r>   -7.3237    1.0000 </r>
       <r>   -7.2997    1.0000 </r>
       <r>   -7.2885    1.0000 </r>
       <r>   -7.2618    1.0000 </r>
       <r>   -7.2435    1.0000 </r>
       <r>   -7.2380    1.0000 </r>
       <r>   -7.2035    1.0000 </r>
       <r>   -7.1969    1.0000 </r>
       <r>   -7.1666    1.0000 </r>
       <r>   -7.1642    1.0000 </r>
       <r>   -5.0769    1.0000 </r>
       <r>   -5.0280    1.0000 </r>
       <r>   -4.7765    1.0000 </r>
       <r>   -4.7608    1.0000 </r>
       <r>   -3.0450    1.0000 </r>
       <r>   -2.8040    1.0000 </r>
       <r>   -2.7799    1.0000 </r>
       <r>   -2.5959    1.0000 </r>
       <r>   -2.4684    1.0000 </r>
       <r>   -2.2185    1.0000 </r>
       <r>   -2.1332    1.0000 </r>
       <r>   -2.0055    1.0000 </r>
       <r>   -1.9289    1.0000 </r>
       <r>   -1.7441    1.0000 </r>
       <r>   -1.6237    1.0000 </r>
       <r>   -0.8634    1.0000 </r>
       <r>   -0.8319    1.0000 </r>
       <r>   -0.8054    1.0000 </r>
       <r>   -0.6600    1.0000 </r>
       <r>   -0.6122    1.0000 </r>
       <r>   -0.5946    1.0000 </r>
       <r>   -0.3115    1.0000 </r>
       <r>   -0.2148    1.0000 </r>
       <r>   -0.0435    1.0000 </r>
       <r>    0.1014    1.0000 </r>
       <r>    0.1042    1.0000 </r>
       <r>    0.3492    1.0000 </r>
       <r>    0.4577    1.0000 </r>
       <r>    0.5933    1.0000 </r>
       <r>    0.7409    1.0000 </r>
       <r>    0.7434    1.0000 </r>
       <r>    0.8053    1.0000 </r>
       <r>    4.1058    0.0000 </r>
       <r>    4.1747    0.0000 </r>
       <r>    4.3058    0.0000 </r>
       <r>    4.3116    0.0000 </r>
       <r>    4.9004    0.0000 </r>
       <r>    5.2182    0.0000 </r>
       <r>    5.5837    0.0000 </r>
       <r>    5.6046    0.0000 </r>
       <r>    6.1042    0.0000 </r>
       <r>    6.2773    0.0000 </r>
       <r>    6.6422    0.0000 </r>
       <r>    6.6672    0.0000 </r>
       <r>    6.6720    0.0000 </r>
       <r>    6.8607    0.0000 </r>
       <r>    6.9937    0.0000 </r>
       <r>    7.0653    0.0000 </r>
      </set>
      <set comment="kpoint 5">
       <r>  -21.4000    1.0000 </r>
       <r>  -21.3980    1.0000 </r>
       <r>  -21.3835    1.0000 </r>
       <r>  -21.3821    1.0000 </r>
       <r>  -15.7734    1.0000 </r>
       <r>  -15.7722    1.0000 </r>
       <r>  -15.7712    1.0000 </r>
       <r>  -15.7684    1.0000 </r>
       <r>  -15.7369    1.0000 </r>
       <r>  -15.7354    1.0000 </r>
       <r>  -15.7160    1.0000 </r>
       <r>  -15.7145    1.0000 </r>
       <r>  -15.6562    1.0000 </r>
       <r>  -15.6561    1.0000 </r>
       <r>  -15.6452    1.0000 </r>
       <r>  -15.6449    1.0000 </r>
       <r>  -15.6089    1.0000 </r>
       <r>  -15.6088    1.0000 </r>
       <r>  -15.5848    1.0000 </r>
       <r>  -15.5848    1.0000 </r>
       <r>  -15.5805    1.0000 </r>
       <r>  -15.5804    1.0000 </r>
       <r>  -15.5740    1.0000 </r>
       <r>  -15.5740    1.0000 </r>
       <r>  -13.9973    1.0000 </r>
       <r>  -13.8351    1.0000 </r>
       <r>  -13.7260    1.0000 </r>
       <r>  -13.5405    1.0000 </r>
       <r>  -12.0490    1.0000 </r>
       <r>  -12.0111    1.0000 </r>
       <r>  -11.8023    1.0000 </r>
       <r>  -11.7349    1.0000 </r>
       <r>  -10.9099    1.0000 </r>
       <r>  -10.7885    1.0000 </r>
       <r>  -10.7425    1.0000 </r>
       <r>  -10.6358    1.0000 </r>
       <r>   -7.3837    1.0000 </r>
       <r>   -7.3597    1.0000 </r>
       <r>   -7.3315    1.0000 </r>
       <r>   -7.3081    1.0000 </r>
       <r>   -7.2697    1.0000 </r>
       <r>   -7.2609    1.0000 </r>
       <r>   -7.2440    1.0000 </r>
       <r>   -7.2367    1.0000 </r>
       <r>   -7.2159    1.0000 </r>
       <r>   -7.1861    1.0000 </r>
       <r>   -7.1609    1.0000 </r>
       <r>   -7.1442    1.0000 </r>
       <r>   -5.0834    1.0000 </r>
       <r>   -4.9124    1.0000 </r>
       <r>   -4.8058    1.0000 </r>
       <r>   -4.7907    1.0000 </r>
       <r>   -2.9525    1.0000 </r>
       <r>   -2.8687    1.0000 </r>
       <r>   -2.8184    1.0000 </r>
       <r>   -2.5879    1.0000 </r>
       <r>   -2.4992    1.0000 </r>
       <r>   -2.1356    1.0000 </r>
       <r>   -2.0949    1.0000 </r>
       <r>   -1.9698    1.0000 </r>
       <r>   -1.9151    1.0000 </r>
       <r>   -1.6724    1.0000 </r>
       <r>   -1.3273    1.0000 </r>
       <r>   -1.3222    1.0000 </r>
       <r>   -1.0545    1.0000 </r>
       <r>   -0.8917    1.0000 </r>
       <r>   -0.7966    1.0000 </r>
       <r>   -0.5568    1.0000 </r>
       <r>   -0.4449    1.0000 </r>
       <r>   -0.2805    1.0000 </r>
       <r>   -0.1632    1.0000 </r>
       <r>   -0.1555    1.0000 </r>
       <r>    0.1411    1.0000 </r>
       <r>    0.2401    1.0000 </r>
       <r>    0.2986    1.0000 </r>
       <r>    0.3296    1.0000 </r>
       <r>    0.6039    1.0000 </r>
       <r>    0.7144    1.0000 </r>
       <r>    0.7560    1.0000 </r>
       <r>    0.9951    1.0000 </r>
       <r>    4.1862    0.0000 </r>
       <r>    4.2628    0.0000 </r>
       <r>    4.3280    0.0000 </r>
       <r>    4.3693    0.0000 </r>
       <r>    5.0522    0.0000 </r>
       <r>    5.1551    0.0000 </r>
       <r>    5.3662    0.0000 </r>
       <r>    5.6387    0.0000 </r>
       <r>    6.1461    0.0000 </r>
       <r>    6.2744    0.0000 </r>
       <r>    6.4096    0.0000 </r>
       <r>    6.5636    0.0000 </r>
       <r>    6.8171    0.0000 </r>
       <r>    6.8554    0.0000 </r>
       <r>    6.9502    0.0000 </r>
       <r>    6.9874    0.0000 </r>
      </set>
     </set>
    </set>
   </array>
  </eigenvalues>
  <separator name="orbital magnetization" >
   <v name="MAGDIPOLOUT">      0.00000000      0.00000000      0.00000000</v>
  </separator>
  <dos>
   <i name="efermi">      1.23985520 </i>
   <total>
    <array>
     <dimension dim="1">gridpoints</dimension>
     <dimension dim="2">spin</dimension>
     <field>energy</field>
     <field>total</field>
     <field>integrated</field>
     <set>
      <set comment="spin 1">
       <r>   -23.4027     0.0000     0.0000 </r>
       <r>   -23.2938     0.0000     0.0000 </r>
       <r>   -23.1849     0.0000     0.0000 </r>
       <r>   -23.0760     0.0000     0.0000 </r>
       <r>   -22.9671     0.0000     0.0000 </r>
       <r>   -22.8581     0.0000     0.0000 </r>
       <r>   -22.7492     0.0000     0.0000 </r>
       <r>   -22.6403     0.0000     0.0000 </r>
       <r>   -22.5314     0.0000     0.0000 </r>
       <r>   -22.4225     0.0000     0.0000 </r>
       <r>   -22.3136     0.0000     0.0000 </r>
       <r>   -22.2046     0.0000     0.0000 </r>
       <r>   -22.0957     0.0000     0.0000 </r>
       <r>   -21.9868     0.0000     0.0000 </r>
       <r>   -21.8779     0.0000     0.0000 </r>
       <r>   -21.7690     0.0000     0.0000 </r>
       <r>   -21.6600     0.0000     0.0000 </r>
       <r>   -21.5511     0.0000     0.0000 </r>
       <r>   -21.4422     0.0000     0.0000 </r>
       <r>   -21.3333    36.7250     4.0000 </r>
       <r>   -21.2244     0.0000     4.0000 </r>
       <r>   -21.1155     0.0000     4.0000 </r>
       <r>   -21.0065     0.0000     4.0000 </r>
       <r>   -20.8976     0.0000     4.0000 </r>
       <r>   -20.7887     0.0000     4.0000 </r>
       <r>   -20.6798     0.0000     4.0000 </r>
       <r>   -20.5709     0.0000     4.0000 </r>
       <r>   -20.4620     0.0000     4.0000 </r>
       <r>   -20.3530     0.0000     4.0000 </r>
       <r>   -20.2441     0.0000     4.0000 </r>
       <r>   -20.1352     0.0000     4.0000 </r>
       <r>   -20.0263     0.0000     4.0000 </r>
       <r>   -19.9174     0.0000     4.0000 </r>
       <r>   -19.8084     0.0000     4.0000 </r>
       <r>   -19.6995     0.0000     4.0000 </r>
       <r>   -19.5906     0.0000     4.0000 </r>
       <r>   -19.4817     0.0000     4.0000 </r>
       <r>   -19.3728     0.0000     4.0000 </r>
       <r>   -19.2639     0.0000     4.0000 </r>
       <r>   -19.1549     0.0000     4.0000 </r>
       <r>   -19.0460     0.0000     4.0000 </r>
       <r>   -18.9371     0.0000     4.0000 </r>
       <r>   -18.8282     0.0000     4.0000 </r>
       <r>   -18.7193     0.0000     4.0000 </r>
       <r>   -18.6104     0.0000     4.0000 </r>
       <r>   -18.5014     0.0000     4.0000 </r>
       <r>   -18.3925     0.0000     4.0000 </r>
       <r>   -18.2836     0.0000     4.0000 </r>
       <r>   -18.1747     0.0000     4.0000 </r>
       <r>   -18.0658     0.0000     4.0000 </r>
       <r>   -17.9569     0.0000     4.0000 </r>
       <r>   -17.8479     0.0000     4.0000 </r>
       <r>   -17.7390     0.0000     4.0000 </r>
       <r>   -17.6301     0.0000     4.0000 </r>
       <r>   -17.5212     0.0000     4.0000 </r>
       <r>   -17.4123     0.0000     4.0000 </r>
       <r>   -17.3033     0.0000     4.0000 </r>
       <r>   -17.1944     0.0000     4.0000 </r>
       <r>   -17.0855     0.0000     4.0000 </r>
       <r>   -16.9766     0.0000     4.0000 </r>
       <r>   -16.8677     0.0000     4.0000 </r>
       <r>   -16.7588     0.0000     4.0000 </r>
       <r>   -16.6498     0.0000     4.0000 </r>
       <r>   -16.5409     0.0000     4.0000 </r>
       <r>   -16.4320     0.0000     4.0000 </r>
       <r>   -16.3231     0.0000     4.0000 </r>
       <r>   -16.2142     0.0000     4.0000 </r>
       <r>   -16.1053     0.0000     4.0000 </r>
       <r>   -15.9963     0.0000     4.0000 </r>
       <r>   -15.8874     0.0000     4.0000 </r>
       <r>   -15.7785     0.0000     4.0000 </r>
       <r>   -15.6696    73.4501    12.0000 </r>
       <r>   -15.5607   110.1751    24.0000 </r>
       <r>   -15.4517     0.0000    24.0000 </r>
       <r>   -15.3428     0.0000    24.0000 </r>
       <r>   -15.2339     0.0000    24.0000 </r>
       <r>   -15.1250     0.0000    24.0000 </r>
       <r>   -15.0161     0.0000    24.0000 </r>
       <r>   -14.9072     0.0000    24.0000 </r>
       <r>   -14.7982     0.0000    24.0000 </r>
       <r>   -14.6893     0.0000    24.0000 </r>
       <r>   -14.5804     0.0000    24.0000 </r>
       <r>   -14.4715     0.0000    24.0000 </r>
       <r>   -14.3626     0.0000    24.0000 </r>
       <r>   -14.2537     0.0000    24.0000 </r>
       <r>   -14.1447     0.0000    24.0000 </r>
       <r>   -14.0358     4.9563    24.4365 </r>
       <r>   -13.9269     7.3770    25.2800 </r>
       <r>   -13.8180     3.0604    26.0000 </r>
       <r>   -13.7091     8.4998    26.4332 </r>
       <r>   -13.6002     0.0000    27.0000 </r>
       <r>   -13.4912     8.1131    27.5788 </r>
       <r>   -13.3823     0.0000    28.0000 </r>
       <r>   -13.2734     0.0000    28.0000 </r>
       <r>   -13.1645     0.0000    28.0000 </r>
       <r>   -13.0556     0.0000    28.0000 </r>
       <r>   -12.9466     0.0000    28.0000 </r>
       <r>   -12.8377     0.0000    28.0000 </r>
       <r>   -12.7288     0.0000    28.0000 </r>
       <r>   -12.6199     0.0000    28.0000 </r>
       <r>   -12.5110     0.0000    28.0000 </r>
       <r>   -12.4021     0.0000    28.0000 </r>
       <r>   -12.2931     0.0000    28.0000 </r>
       <r>   -12.1842     0.0000    28.0000 </r>
       <r>   -12.0753    20.8655    29.0938 </r>
       <r>   -11.9664     3.0604    30.0000 </r>
       <r>   -11.8575     0.0000    30.0000 </r>
       <r>   -11.7486    20.8359    30.5041 </r>
       <r>   -11.6396     5.8246    31.3195 </r>
       <r>   -11.5307     4.8070    31.8429 </r>
       <r>   -11.4218     0.0000    32.0000 </r>
       <r>   -11.3129     0.0000    32.0000 </r>
       <r>   -11.2040     0.0000    32.0000 </r>
       <r>   -11.0951     0.0000    32.0000 </r>
       <r>   -10.9861     4.8427    32.1106 </r>
       <r>   -10.8772     8.4744    32.9083 </r>
       <r>   -10.7683     9.1214    33.7270 </r>
       <r>   -10.6594    10.2014    35.0000 </r>
       <r>   -10.5505     9.1813    36.0000 </r>
       <r>   -10.4415     0.0000    36.0000 </r>
       <r>   -10.3326     0.0000    36.0000 </r>
       <r>   -10.2237     0.0000    36.0000 </r>
       <r>   -10.1148     0.0000    36.0000 </r>
       <r>   -10.0059     0.0000    36.0000 </r>
       <r>    -9.8970     0.0000    36.0000 </r>
       <r>    -9.7880     0.0000    36.0000 </r>
       <r>    -9.6791     0.0000    36.0000 </r>
       <r>    -9.5702     0.0000    36.0000 </r>
       <r>    -9.4613     0.0000    36.0000 </r>
       <r>    -9.3524     0.0000    36.0000 </r>
       <r>    -9.2435     0.0000    36.0000 </r>
       <r>    -9.1345     0.0000    36.0000 </r>
       <r>    -9.0256     0.0000    36.0000 </r>
       <r>    -8.9167     0.0000    36.0000 </r>
       <r>    -8.8078     0.0000    36.0000 </r>
       <r>    -8.6989     0.0000    36.0000 </r>
       <r>    -8.5899     0.0000    36.0000 </r>
       <r>    -8.4810     0.0000    36.0000 </r>
       <r>    -8.3721     0.0000    36.0000 </r>
       <r>    -8.2632     0.0000    36.0000 </r>
       <r>    -8.1543     0.0000    36.0000 </r>
       <r>    -8.0454     0.0000    36.0000 </r>
       <r>    -7.9364     0.0000    36.0000 </r>
       <r>    -7.8275     0.0000    36.0000 </r>
       <r>    -7.7186     0.0000    36.0000 </r>
       <r>    -7.6097     0.0000    36.0000 </r>
       <r>    -7.5008     0.0000    36.0000 </r>
       <r>    -7.3919    27.0397    36.6660 </r>
       <r>    -7.2829    74.1219    41.0361 </r>
       <r>    -7.1740    41.4651    46.0006 </r>
       <r>    -7.0651    15.3021    48.0000 </r>
       <r>    -6.9562     0.0000    48.0000 </r>
       <r>    -6.8473     0.0000    48.0000 </r>
       <r>    -6.7384     0.0000    48.0000 </r>
       <r>    -6.6294     0.0000    48.0000 </r>
       <r>    -6.5205     0.0000    48.0000 </r>
       <r>    -6.4116     0.0000    48.0000 </r>
       <r>    -6.3027     0.0000    48.0000 </r>
       <r>    -6.1938     0.0000    48.0000 </r>
       <r>    -6.0848     0.0000    48.0000 </r>
       <r>    -5.9759     0.0000    48.0000 </r>
       <r>    -5.8670     0.0000    48.0000 </r>
       <r>    -5.7581     0.0000    48.0000 </r>
       <r>    -5.6492     0.0000    48.0000 </r>
       <r>    -5.5403     0.0000    48.0000 </r>
       <r>    -5.4313     0.0000    48.0000 </r>
       <r>    -5.3224     0.0000    48.0000 </r>
       <r>    -5.2135     1.5782    48.0456 </r>
       <r>    -5.1046     7.2860    48.5152 </r>
       <r>    -4.9957    12.5626    49.1534 </r>
       <r>    -4.8868     3.0604    50.0000 </r>
       <r>    -4.7778    33.0553    51.7945 </r>
       <r>    -4.6689     0.0000    52.0000 </r>
       <r>    -4.5600     0.0000    52.0000 </r>
       <r>    -4.4511     0.0000    52.0000 </r>
       <r>    -4.3422     0.0000    52.0000 </r>
       <r>    -4.2332     0.0000    52.0000 </r>
       <r>    -4.1243     0.0000    52.0000 </r>
       <r>    -4.0154     0.0000    52.0000 </r>
       <r>    -3.9065     0.0000    52.0000 </r>
       <r>    -3.7976     0.0000    52.0000 </r>
       <r>    -3.6887     0.0000    52.0000 </r>
       <r>    -3.5797     0.0000    52.0000 </r>
       <r>    -3.4708     0.0000    52.0000 </r>
       <r>    -3.3619     0.0000    52.0000 </r>
       <r>    -3.2530     1.6059    52.1245 </r>
       <r>    -3.1441     2.3156    52.3460 </r>
       <r>    -3.0352     6.6737    52.7413 </r>
       <r>    -2.9262     8.4995    53.5325 </r>
       <r>    -2.8173    13.7359    54.5832 </r>
       <r>    -2.7084     4.6270    55.3938 </r>
       <r>    -2.5995     5.5754    55.9419 </r>
       <r>    -2.4906    12.8422    56.6894 </r>
       <r>    -2.3817     2.7708    57.0667 </r>
       <r>    -2.2727     2.9611    57.3386 </r>
       <r>    -2.1638     8.5955    57.8194 </r>
       <r>    -2.0549     5.7270    58.4632 </r>
       <r>    -1.9460     7.4197    59.1877 </r>
[...]
        <r>  0.0005  0.0001  0.0004  0.0000  0.0001  0.0008  0.0004  0.0067  0.0008 </r>
        <r>  0.0398  0.0011  0.0044  0.0042  0.0009  0.0006  0.0005  0.0001  0.0004 </r>
        <r>  0.0398  0.0011  0.0044  0.0042  0.0009  0.0006  0.0005  0.0001  0.0004 </r>
        <r>  0.0398  0.0011  0.0044  0.0042  0.0009  0.0006  0.0005  0.0001  0.0004 </r>
        <r>  0.0398  0.0011  0.0044  0.0042  0.0009  0.0006  0.0005  0.0001  0.0004 </r>
        <r>  0.0000  0.0048  0.0049  0.0025  0.0004  0.0004  0.0002  0.0008  0.0001 </r>
        <r>  0.0000  0.0048  0.0049  0.0025  0.0004  0.0004  0.0002  0.0008  0.0001 </r>
        <r>  0.0000  0.0048  0.0049  0.0025  0.0004  0.0004  0.0002  0.0008  0.0001 </r>
        <r>  0.0000  0.0048  0.0049  0.0025  0.0004  0.0004  0.0002  0.0008  0.0001 </r>
        <r>  0.0083  0.0036  0.0076  0.0063  0.0003  0.0023  0.0018  0.0006  0.0001 </r>
        <r>  0.0083  0.0036  0.0076  0.0063  0.0003  0.0023  0.0018  0.0006  0.0001 </r>
        <r>  0.0083  0.0036  0.0076  0.0063  0.0003  0.0023  0.0018  0.0006  0.0001 </r>
        <r>  0.0083  0.0036  0.0076  0.0063  0.0003  0.0023  0.0018  0.0006  0.0001 </r>
        <r>  0.0003  0.0031  0.0005  0.0050  0.0001  0.0004  0.0005  0.0001  0.0005 </r>
        <r>  0.0003  0.0031  0.0005  0.0050  0.0001  0.0004  0.0005  0.0001  0.0005 </r>
        <r>  0.0003  0.0031  0.0005  0.0050  0.0001  0.0004  0.0005  0.0001  0.0005 </r>
        <r>  0.0003  0.0031  0.0005  0.0050  0.0001  0.0004  0.0005  0.0001  0.0005 </r>
       </set>
       <set comment="band 88">
        <r>  0.0013  0.0002  0.0001  0.0007  0.0003  0.0019  0.0005  0.0003  0.0001 </r>
        <r>  0.0013  0.0002  0.0001  0.0007  0.0003  0.0019  0.0005  0.0003  0.0001 </r>
        <r>  0.0013  0.0002  0.0001  0.0007  0.0003  0.0019  0.0005  0.0003  0.0001 </r>
        <r>  0.0013  0.0002  0.0001  0.0007  0.0003  0.0019  0.0005  0.0003  0.0001 </r>
        <r>  0.0606  0.0008  0.0040  0.0012  0.0004  0.0004  0.0001  0.0001  0.0002 </r>
        <r>  0.0606  0.0008  0.0040  0.0012  0.0004  0.0004  0.0001  0.0001  0.0002 </r>
        <r>  0.0606  0.0008  0.0040  0.0012  0.0004  0.0004  0.0001  0.0001  0.0002 </r>
        <r>  0.0606  0.0008  0.0040  0.0012  0.0004  0.0004  0.0001  0.0001  0.0002 </r>
        <r>  0.0010  0.0055  0.0052  0.0023  0.0003  0.0004  0.0000  0.0001  0.0004 </r>
        <r>  0.0010  0.0055  0.0052  0.0023  0.0003  0.0004  0.0000  0.0001  0.0004 </r>
        <r>  0.0010  0.0055  0.0052  0.0023  0.0003  0.0004  0.0000  0.0001  0.0004 </r>
        <r>  0.0010  0.0055  0.0052  0.0023  0.0003  0.0004  0.0000  0.0001  0.0004 </r>
        <r>  0.0004  0.0005  0.0209  0.0047  0.0002  0.0021  0.0007  0.0037  0.0000 </r>
        <r>  0.0004  0.0005  0.0209  0.0047  0.0002  0.0021  0.0007  0.0037  0.0000 </r>
        <r>  0.0004  0.0005  0.0209  0.0047  0.0002  0.0021  0.0007  0.0037  0.0000 </r>
        <r>  0.0004  0.0005  0.0209  0.0047  0.0002  0.0021  0.0007  0.0037  0.0000 </r>
        <r>  0.0009  0.0064  0.0008  0.0124  0.0005  0.0002  0.0000  0.0002  0.0009 </r>
        <r>  0.0009  0.0064  0.0008  0.0124  0.0005  0.0002  0.0000  0.0002  0.0009 </r>
        <r>  0.0009  0.0064  0.0008  0.0124  0.0005  0.0002  0.0000  0.0002  0.0009 </r>
        <r>  0.0009  0.0064  0.0008  0.0124  0.0005  0.0002  0.0000  0.0002  0.0009 </r>
       </set>
       <set comment="band 89">
        <r>  0.0022  0.0004  0.0004  0.0005  0.0011  0.0014  0.0000  0.0026  0.0006 </r>
        <r>  0.0022  0.0004  0.0004  0.0005  0.0011  0.0014  0.0000  0.0026  0.0006 </r>
        <r>  0.0022  0.0004  0.0004  0.0005  0.0011  0.0014  0.0000  0.0026  0.0006 </r>
        <r>  0.0022  0.0004  0.0004  0.0005  0.0011  0.0014  0.0000  0.0026  0.0006 </r>
        <r>  0.0003  0.0090  0.0155  0.0129  0.0016  0.0004  0.0024  0.0001  0.0005 </r>
        <r>  0.0003  0.0090  0.0155  0.0129  0.0016  0.0004  0.0024  0.0001  0.0005 </r>
        <r>  0.0003  0.0090  0.0155  0.0129  0.0016  0.0004  0.0024  0.0001  0.0005 </r>
        <r>  0.0003  0.0090  0.0155  0.0129  0.0016  0.0004  0.0024  0.0001  0.0005 </r>
        <r>  0.0041  0.0005  0.0039  0.0015  0.0009  0.0005  0.0008  0.0015  0.0001 </r>
        <r>  0.0041  0.0005  0.0039  0.0015  0.0009  0.0005  0.0008  0.0015  0.0001 </r>
        <r>  0.0041  0.0005  0.0039  0.0015  0.0009  0.0005  0.0008  0.0015  0.0001 </r>
        <r>  0.0041  0.0005  0.0039  0.0015  0.0009  0.0005  0.0008  0.0015  0.0001 </r>
        <r>  0.0000  0.0002  0.0002  0.0007  0.0002  0.0022  0.0037  0.0004  0.0002 </r>
        <r>  0.0000  0.0002  0.0002  0.0007  0.0002  0.0022  0.0037  0.0004  0.0002 </r>
        <r>  0.0000  0.0002  0.0002  0.0007  0.0002  0.0022  0.0037  0.0004  0.0002 </r>
        <r>  0.0000  0.0002  0.0002  0.0007  0.0002  0.0022  0.0037  0.0004  0.0002 </r>
        <r>  0.0040  0.0004  0.0020  0.0026  0.0005  0.0002  0.0011  0.0000  0.0012 </r>
        <r>  0.0040  0.0004  0.0020  0.0026  0.0005  0.0002  0.0011  0.0000  0.0012 </r>
        <r>  0.0040  0.0004  0.0020  0.0026  0.0005  0.0002  0.0011  0.0000  0.0012 </r>
        <r>  0.0040  0.0004  0.0020  0.0026  0.0005  0.0002  0.0011  0.0000  0.0012 </r>
       </set>
       <set comment="band 90">
        <r>  0.0009  0.0003  0.0005  0.0006  0.0003  0.0068  0.0010  0.0013  0.0020 </r>
        <r>  0.0009  0.0003  0.0005  0.0006  0.0003  0.0068  0.0010  0.0013  0.0020 </r>
        <r>  0.0009  0.0003  0.0005  0.0006  0.0003  0.0068  0.0010  0.0013  0.0020 </r>
        <r>  0.0009  0.0003  0.0005  0.0006  0.0003  0.0068  0.0010  0.0013  0.0020 </r>
        <r>  0.0021  0.0091  0.0124  0.0039  0.0010  0.0002  0.0002  0.0016  0.0003 </r>
        <r>  0.0021  0.0091  0.0124  0.0039  0.0010  0.0002  0.0002  0.0016  0.0003 </r>
        <r>  0.0021  0.0091  0.0124  0.0039  0.0010  0.0002  0.0002  0.0016  0.0003 </r>
        <r>  0.0021  0.0091  0.0124  0.0039  0.0010  0.0002  0.0002  0.0016  0.0003 </r>
        <r>  0.0037  0.0028  0.0011  0.0000  0.0017  0.0002  0.0019  0.0005  0.0002 </r>
        <r>  0.0037  0.0028  0.0011  0.0000  0.0017  0.0002  0.0019  0.0005  0.0002 </r>
        <r>  0.0037  0.0028  0.0011  0.0000  0.0017  0.0002  0.0019  0.0005  0.0002 </r>
        <r>  0.0037  0.0028  0.0011  0.0000  0.0017  0.0002  0.0019  0.0005  0.0002 </r>
        <r>  0.0043  0.0025  0.0001  0.0046  0.0002  0.0003  0.0011  0.0009  0.0003 </r>
        <r>  0.0043  0.0025  0.0001  0.0046  0.0002  0.0003  0.0011  0.0009  0.0003 </r>
        <r>  0.0043  0.0025  0.0001  0.0046  0.0002  0.0003  0.0011  0.0009  0.0003 </r>
        <r>  0.0043  0.0025  0.0001  0.0046  0.0002  0.0003  0.0011  0.0009  0.0003 </r>
        <r>  0.0005  0.0043  0.0002  0.0003  0.0018  0.0002  0.0020  0.0003  0.0006 </r>
        <r>  0.0005  0.0043  0.0002  0.0003  0.0018  0.0002  0.0020  0.0003  0.0006 </r>
        <r>  0.0005  0.0043  0.0002  0.0003  0.0018  0.0002  0.0020  0.0003  0.0006 </r>
        <r>  0.0005  0.0043  0.0002  0.0003  0.0018  0.0002  0.0020  0.0003  0.0006 </r>
       </set>
       <set comment="band 91">
        <r>  0.0009  0.0003  0.0008  0.0009  0.0046  0.0029  0.0008  0.0032  0.0030 </r>
        <r>  0.0009  0.0003  0.0008  0.0009  0.0046  0.0029  0.0008  0.0032  0.0030 </r>
        <r>  0.0009  0.0003  0.0008  0.0009  0.0046  0.0029  0.0008  0.0032  0.0030 </r>
        <r>  0.0009  0.0003  0.0008  0.0009  0.0046  0.0029  0.0008  0.0032  0.0030 </r>
        <r>  0.0014  0.0217  0.0028  0.0039  0.0016  0.0003  0.0003  0.0002  0.0005 </r>
        <r>  0.0014  0.0217  0.0028  0.0039  0.0016  0.0003  0.0003  0.0002  0.0005 </r>
        <r>  0.0014  0.0217  0.0028  0.0039  0.0016  0.0003  0.0003  0.0002  0.0005 </r>
        <r>  0.0014  0.0217  0.0028  0.0039  0.0016  0.0003  0.0003  0.0002  0.0005 </r>
        <r>  0.0031  0.0010  0.0006  0.0009  0.0021  0.0002  0.0005  0.0003  0.0004 </r>
        <r>  0.0031  0.0010  0.0006  0.0009  0.0021  0.0002  0.0005  0.0003  0.0004 </r>
        <r>  0.0031  0.0010  0.0006  0.0009  0.0021  0.0002  0.0005  0.0003  0.0004 </r>
        <r>  0.0031  0.0010  0.0006  0.0009  0.0021  0.0002  0.0005  0.0003  0.0004 </r>
        <r>  0.0005  0.0045  0.0020  0.0021  0.0003  0.0007  0.0024  0.0005  0.0012 </r>
        <r>  0.0005  0.0045  0.0020  0.0021  0.0003  0.0007  0.0024  0.0005  0.0012 </r>
        <r>  0.0005  0.0045  0.0020  0.0021  0.0003  0.0007  0.0024  0.0005  0.0012 </r>
        <r>  0.0005  0.0045  0.0020  0.0021  0.0003  0.0007  0.0024  0.0005  0.0012 </r>
        <r>  0.0030  0.0001  0.0003  0.0038  0.0011  0.0001  0.0003  0.0012  0.0003 </r>
        <r>  0.0030  0.0001  0.0003  0.0038  0.0011  0.0001  0.0003  0.0012  0.0003 </r>
        <r>  0.0030  0.0001  0.0003  0.0038  0.0011  0.0001  0.0003  0.0012  0.0003 </r>
        <r>  0.0030  0.0001  0.0003  0.0038  0.0011  0.0001  0.0003  0.0012  0.0003 </r>
       </set>
       <set comment="band 92">
        <r>  0.0006  0.0006  0.0005  0.0001  0.0015  0.0047  0.0003  0.0002  0.0024 </r>
        <r>  0.0006  0.0006  0.0005  0.0001  0.0015  0.0047  0.0003  0.0002  0.0024 </r>
        <r>  0.0006  0.0006  0.0005  0.0001  0.0015  0.0047  0.0003  0.0002  0.0024 </r>
        <r>  0.0006  0.0006  0.0005  0.0001  0.0015  0.0047  0.0003  0.0002  0.0024 </r>
        <r>  0.0079  0.0045  0.0055  0.0148  0.0006  0.0014  0.0004  0.0006  0.0001 </r>
        <r>  0.0079  0.0045  0.0055  0.0148  0.0006  0.0014  0.0004  0.0006  0.0001 </r>
        <r>  0.0079  0.0045  0.0055  0.0147  0.0006  0.0014  0.0004  0.0006  0.0001 </r>
        <r>  0.0079  0.0045  0.0055  0.0147  0.0006  0.0014  0.0004  0.0006  0.0001 </r>
        <r>  0.0019  0.0086  0.0016  0.0002  0.0000  0.0018  0.0018  0.0009  0.0004 </r>
        <r>  0.0019  0.0086  0.0016  0.0002  0.0000  0.0018  0.0018  0.0009  0.0004 </r>
        <r>  0.0019  0.0086  0.0016  0.0002  0.0000  0.0018  0.0018  0.0009  0.0004 </r>
        <r>  0.0019  0.0086  0.0016  0.0002  0.0000  0.0018  0.0018  0.0009  0.0004 </r>
        <r>  0.0022  0.0009  0.0008  0.0049  0.0000  0.0008  0.0009  0.0006  0.0016 </r>
        <r>  0.0022  0.0009  0.0008  0.0049  0.0000  0.0008  0.0009  0.0006  0.0016 </r>
        <r>  0.0022  0.0009  0.0008  0.0049  0.0000  0.0008  0.0009  0.0006  0.0016 </r>
        <r>  0.0022  0.0009  0.0008  0.0049  0.0000  0.0008  0.0009  0.0006  0.0016 </r>
        <r>  0.0036  0.0067  0.0030  0.0008  0.0011  0.0003  0.0016  0.0002  0.0007 </r>
        <r>  0.0036  0.0067  0.0030  0.0008  0.0011  0.0003  0.0016  0.0002  0.0007 </r>
        <r>  0.0036  0.0067  0.0030  0.0008  0.0011  0.0003  0.0016  0.0002  0.0007 </r>
        <r>  0.0036  0.0067  0.0030  0.0008  0.0011  0.0003  0.0016  0.0002  0.0007 </r>
       </set>
       <set comment="band 93">
        <r>  0.0037  0.0005  0.0008  0.0001  0.0007  0.0017  0.0022  0.0055  0.0008 </r>
        <r>  0.0047  0.0005  0.0008  0.0001  0.0003  0.0013  0.0016  0.0075  0.0012 </r>
        <r>  0.0036  0.0005  0.0007  0.0002  0.0006  0.0008  0.0032  0.0065  0.0008 </r>
        <r>  0.0038  0.0005  0.0006  0.0001  0.0005  0.0007  0.0037  0.0077  0.0010 </r>
        <r>  0.0103  0.0100  0.0008  0.0022  0.0001  0.0003  0.0000  0.0001  0.0001 </r>
        <r>  0.0118  0.0100  0.0020  0.0035  0.0001  0.0002  0.0001  0.0003  0.0001 </r>
        <r>  0.0122  0.0126  0.0008  0.0005  0.0001  0.0003  0.0001  0.0001  0.0001 </r>
        <r>  0.0130  0.0097  0.0010  0.0010  0.0001  0.0001  0.0001  0.0001  0.0001 </r>
        <r>  0.0006  0.0083  0.0046  0.0037  0.0002  0.0007  0.0007  0.0002  0.0001 </r>
        <r>  0.0003  0.0076  0.0046  0.0033  0.0001  0.0008  0.0007  0.0002  0.0002 </r>
        <r>  0.0008  0.0077  0.0039  0.0046  0.0002  0.0009  0.0009  0.0002  0.0000 </r>
        <r>  0.0005  0.0065  0.0039  0.0043  0.0001  0.0009  0.0007  0.0002  0.0000 </r>
        <r>  0.0043  0.0047  0.0029  0.0056  0.0005  0.0002  0.0003  0.0019  0.0000 </r>
        <r>  0.0051  0.0040  0.0029  0.0051  0.0002  0.0001  0.0002  0.0017  0.0000 </r>
        <r>  0.0052  0.0040  0.0026  0.0042  0.0004  0.0000  0.0003  0.0014  0.0000 </r>
        <r>  0.0069  0.0039  0.0024  0.0044  0.0004  0.0000  0.0003  0.0015  0.0000 </r>
        <r>  0.0002  0.0016  0.0060  0.0039  0.0014  0.0005  0.0001  0.0025  0.0003 </r>
        <r>  0.0002  0.0022  0.0063  0.0041  0.0016  0.0006  0.0001  0.0027  0.0003 </r>
        <r>  0.0006  0.0022  0.0059  0.0064  0.0017  0.0003  0.0001  0.0018  0.0003 </r>
        <r>  0.0005  0.0026  0.0059  0.0055  0.0016  0.0002  0.0001  0.0020  0.0002 </r>
       </set>
       <set comment="band 94">
        <r>  0.0005  0.0006  0.0009  0.0016  0.0015  0.0032  0.0013  0.0063  0.0052 </r>
        <r>  0.0001  0.0005  0.0005  0.0014  0.0021  0.0043  0.0008  0.0064  0.0048 </r>
        <r>  0.0004  0.0004  0.0004  0.0013  0.0019  0.0041  0.0010  0.0073  0.0055 </r>
        <r>  0.0006  0.0004  0.0008  0.0018  0.0020  0.0040  0.0006  0.0055  0.0049 </r>
        <r>  0.0006  0.0026  0.0094  0.0027  0.0008  0.0006  0.0001  0.0017  0.0002 </r>
        <r>  0.0013  0.0027  0.0059  0.0012  0.0009  0.0007  0.0000  0.0011  0.0002 </r>
        <r>  0.0007  0.0023  0.0075  0.0016  0.0009  0.0006  0.0001  0.0013  0.0003 </r>
        <r>  0.0003  0.0028  0.0090  0.0026  0.0008  0.0007  0.0000  0.0016  0.0002 </r>
        <r>  0.0014  0.0003  0.0016  0.0045  0.0008  0.0000  0.0006  0.0009  0.0005 </r>
        <r>  0.0012  0.0002  0.0005  0.0043  0.0010  0.0000  0.0008  0.0010  0.0004 </r>
        <r>  0.0015  0.0007  0.0008  0.0036  0.0010  0.0000  0.0005  0.0009  0.0004 </r>
        <r>  0.0013  0.0003  0.0008  0.0038  0.0009  0.0000  0.0007  0.0009  0.0006 </r>
        <r>  0.0034  0.0000  0.0001  0.0054  0.0002  0.0012  0.0004  0.0006  0.0009 </r>
        <r>  0.0039  0.0001  0.0002  0.0062  0.0004  0.0017  0.0004  0.0007  0.0008 </r>
        <r>  0.0046  0.0001  0.0001  0.0072  0.0003  0.0017  0.0004  0.0008  0.0008 </r>
        <r>  0.0027  0.0001  0.0000  0.0061  0.0003  0.0012  0.0003  0.0009  0.0009 </r>
        <r>  0.0014  0.0028  0.0020  0.0043  0.0002  0.0009  0.0007  0.0009  0.0005 </r>
        <r>  0.0016  0.0035  0.0018  0.0047  0.0004  0.0003  0.0007  0.0008  0.0005 </r>
        <r>  0.0013  0.0030  0.0025  0.0033  0.0002  0.0004  0.0006  0.0010  0.0007 </r>
        <r>  0.0014  0.0025  0.0026  0.0042  0.0002  0.0008  0.0007  0.0012  0.0005 </r>
       </set>
       <set comment="band 95">
        <r>  0.0015  0.0001  0.0006  0.0003  0.0027  0.0053  0.0040  0.0022  0.0008 </r>
        <r>  0.0005  0.0002  0.0005  0.0005  0.0012  0.0073  0.0003  0.0010  0.0013 </r>
        <r>  0.0007  0.0001  0.0011  0.0002  0.0032  0.0071  0.0029  0.0031  0.0008 </r>
        <r>  0.0002  0.0001  0.0005  0.0002  0.0023  0.0088  0.0006  0.0033  0.0014 </r>
        <r>  0.0013  0.0066  0.0003  0.0207  0.0023  0.0018  0.0008  0.0001  0.0001 </r>
        <r>  0.0010  0.0114  0.0034  0.0098  0.0020  0.0020  0.0002  0.0004  0.0001 </r>
        <r>  0.0004  0.0132  0.0012  0.0126  0.0019  0.0007  0.0007  0.0001  0.0001 </r>
        <r>  0.0004  0.0181  0.0023  0.0153  0.0025  0.0018  0.0002  0.0001  0.0001 </r>
        <r>  0.0008  0.0009  0.0036  0.0065  0.0002  0.0023  0.0011  0.0013  0.0007 </r>
        <r>  0.0003  0.0012  0.0022  0.0057  0.0003  0.0011  0.0004  0.0016  0.0006 </r>
        <r>  0.0009  0.0020  0.0069  0.0059  0.0004  0.0015  0.0012  0.0009  0.0001 </r>
        <r>  0.0013  0.0013  0.0047  0.0058  0.0002  0.0009  0.0004  0.0016  0.0013 </r>
        <r>  0.0024  0.0020  0.0031  0.0009  0.0001  0.0007  0.0039  0.0001  0.0001 </r>
        <r>  0.0016  0.0025  0.0025  0.0010  0.0004  0.0014  0.0031  0.0005  0.0000 </r>
        <r>  0.0015  0.0012  0.0045  0.0002  0.0002  0.0016  0.0037  0.0002  0.0000 </r>
        <r>  0.0007  0.0013  0.0027  0.0003  0.0004  0.0012  0.0022  0.0010  0.0000 </r>
        <r>  0.0018  0.0030  0.0009  0.0031  0.0007  0.0002  0.0011  0.0006  0.0010 </r>
        <r>  0.0015  0.0025  0.0005  0.0009  0.0003  0.0000  0.0010  0.0003  0.0017 </r>
        <r>  0.0019  0.0022  0.0014  0.0037  0.0011  0.0003  0.0012  0.0003  0.0005 </r>
        <r>  0.0024  0.0018  0.0009  0.0039  0.0010  0.0000  0.0007  0.0004  0.0014 </r>
       </set>
       <set comment="band 96">
        <r>  0.0007  0.0001  0.0005  0.0006  0.0010  0.0030  0.0053  0.0016  0.0009 </r>
        <r>  0.0016  0.0001  0.0005  0.0005  0.0013  0.0014  0.0055  0.0028  0.0004 </r>
        <r>  0.0034  0.0001  0.0002  0.0004  0.0019  0.0020  0.0091  0.0011  0.0007 </r>
        <r>  0.0048  0.0001  0.0001  0.0003  0.0021  0.0002  0.0091  0.0029  0.0003 </r>
        <r>  0.0006  0.0204  0.0067  0.0007  0.0004  0.0019  0.0011  0.0005  0.0001 </r>
        <r>  0.0004  0.0159  0.0034  0.0004  0.0002  0.0007  0.0020  0.0003  0.0001 </r>
        <r>  0.0042  0.0085  0.0136  0.0054  0.0001  0.0017  0.0016  0.0018  0.0000 </r>
        <r>  0.0044  0.0053  0.0104  0.0090  0.0001  0.0007  0.0027  0.0017  0.0000 </r>
        <r>  0.0010  0.0023  0.0042  0.0010  0.0001  0.0002  0.0010  0.0008  0.0028 </r>
        <r>  0.0018  0.0021  0.0050  0.0015  0.0001  0.0010  0.0016  0.0003  0.0020 </r>
        <r>  0.0007  0.0004  0.0032  0.0006  0.0000  0.0020  0.0008  0.0006  0.0005 </r>
        <r>  0.0017  0.0002  0.0038  0.0011  0.0000  0.0030  0.0015  0.0002  0.0001 </r>
        <r>  0.0018  0.0003  0.0015  0.0008  0.0019  0.0005  0.0003  0.0020  0.0000 </r>
        <r>  0.0024  0.0003  0.0023  0.0003  0.0016  0.0003  0.0016  0.0016  0.0000 </r>
        <r>  0.0007  0.0026  0.0001  0.0030  0.0038  0.0006  0.0006  0.0013  0.0001 </r>
        <r>  0.0008  0.0022  0.0007  0.0021  0.0033  0.0001  0.0016  0.0009  0.0002 </r>
        <r>  0.0006  0.0000  0.0009  0.0030  0.0008  0.0014  0.0001  0.0007  0.0015 </r>
        <r>  0.0006  0.0004  0.0015  0.0043  0.0012  0.0007  0.0005  0.0004  0.0008 </r>
        <r>  0.0002  0.0023  0.0000  0.0032  0.0004  0.0017  0.0001  0.0006  0.0016 </r>
        <r>  0.0004  0.0027  0.0008  0.0057  0.0009  0.0010  0.0004  0.0004  0.0009 </r>
       </set>
      </set>
     </set>
    </set>
   </array>
  </projected>
 </calculation>
 <structure name="finalpos" >
  <crystal>
   <varray name="basis" >
    <v>       7.33465070       0.00000000      -2.15973506 </v>
    <v>      -0.00000000      12.86622315       0.00000000 </v>
    <v>       0.01897524       0.00000000       6.70643668 </v>
   </varray>
   <i name="volume">    633.40869498 </i>
   <varray name="rec_basis" >
    <v>       0.13622565       0.00000000      -0.00038544 </v>
    <v>       0.00000000       0.07772289       0.00000000 </v>
    <v>       0.04386999      -0.00000000       0.14898635 </v>
   </varray>
  </crystal>
  <varray name="positions" >
   <v>       0.74659001       0.08073502       0.71430885 </v>
   <v>       0.25340999       0.58073502       0.78569115 </v>
   <v>       0.25340999       0.91926498       0.28569115 </v>
   <v>       0.74659001       0.41926498       0.21430885 </v>
   <v>       0.18163134       0.22680859       0.64274406 </v>
   <v>       0.81836866       0.72680859       0.85725594 </v>
   <v>       0.81836866       0.77319141       0.35725594 </v>
   <v>       0.18163134       0.27319141       0.14274406 </v>
   <v>       0.29307215       0.42642141       0.34854784 </v>
   <v>       0.70692785       0.92642141       0.15145216 </v>
   <v>       0.70692785       0.57357859       0.65145216 </v>
   <v>       0.29307215       0.07357859       0.84854784 </v>
   <v>       0.00093241       0.82992296       0.69017123 </v>
   <v>       0.99906759       0.32992296       0.80982877 </v>
   <v>       0.99906759       0.17007704       0.30982877 </v>
   <v>       0.00093241       0.67007704       0.19017123 </v>
   <v>       0.45198480       0.32459604       0.63914229 </v>
   <v>       0.54801520       0.82459604       0.86085771 </v>
   <v>       0.54801520       0.67540396       0.36085771 </v>
   <v>       0.45198480       0.17540396       0.13914229 </v>
  </varray>
 </structure>
</modeling>
