 vasp.6.4.2 20Jul23 (build Mar 15 2024 16:31:38) complex                        
  
 executed on             LinuxIFC date 2025.03.27  15:52:14
 running  120 mpi-ranks, on    3 nodes
 distrk:  each k-point on  120 cores,    1 groups
 distr:  one band on NCORE=  10 cores,   12 groups


--------------------------------------------------------------------------------------------------------


 INCAR:
   ALGO = Normal
   EDIFF = 1e-05
   ENAUG = 1360
   ENCUT = 680
   GGA = Pe
   HFSCREEN = 0.2
   ISMEAR = 0
   ISPIN = 2
   LAECHG = True
   LASPH = True
   LCHARG = True
   LDAU = False
   LELF = False
   LHFCALC = True
   LMAXMIX = 4
   LMIXTAU = True
   LORBIT = 11
   LREAL = False
   LVTOT = True
   LWAVE = True
   MAGMOM = 2*0.6
   NCORE = 10
   NELM = 200
   NSW = 0
   PREC = Accurate
   PRECFOCK = Accurate
   SIGMA = 0.01

 POTCAR:    PAW_PBE In_d 06Sep2000                
 POTCAR:    PAW_PBE P 06Sep2000                   
 WARNING: For LVTOT=.TRUE., VASP.5.x writes the TOTAL local potential to the
     file LOCPOT. If you want only the Hartree contributions, use LVHAR=.TRUE.
     instead. 

 POTCAR:    PAW_PBE In_d 06Sep2000                
   VRHFIN =In: s2p1                                                                                 
   LEXCH  = PE                                                                                      
   EATOM  =  1576.8302 eV,  115.8937 Ry                                                             
                                                                                                    
   TITEL  = PAW_PBE In_d 06Sep2000                                                                  
   LULTRA =        F    use ultrasoft PP ?                                                          
   IUNSCR =        1    unscreen: 0-lin 1-nonlin 2-no                                               
   RPACOR =    2.200    partial core radius                                                         
   POMASS =  114.820; ZVAL   =   13.000    mass and valenz                                          
   RCORE  =    2.500    outmost cutoff radius                                                       
   RWIGS  =    3.170; RWIGS  =    1.677    wigner-seitz radius (au A)                               
   ENMAX  =  239.211; ENMIN  =  179.409 eV                                                          
   ICORE  =        3    local potential                                                             
   LCOR   =        T    correct aug charges                                                         
   LPAW   =        T    paw PP                                                                      
   EAUG   =  449.704                                                                                
   DEXC   =    0.000                                                                                
   RMAX   =    2.552    core radius for proj-oper                                                   
   RAUG   =    1.300    factor for augmentation sphere                                              
   RDEP   =    2.630    radius for radial grids                                                     
   RDEPT  =    2.033    core radius for aug-charge                                                  
                                                                                                    
   Atomic configuration                                                                             
   12 entries                                                                                       
     n  l   j            E        occ.                                                              
     1  0  0.50    -27747.9169   2.0000                                                             
     2  0  0.50     -4154.4438   2.0000                                                             
     2  1  1.50     -3728.4305   6.0000                                                             
     3  0  0.50      -788.3680   2.0000                                                             
     3  1  1.50      -648.9215   6.0000                                                             
     3  2  2.50      -432.5893  10.0000                                                             
     4  0  0.50      -119.6363   2.0000                                                             
     4  1  1.50       -78.1086   6.0000                                                             
     4  2  2.50       -18.6227  10.0000                                                             
     5  0  0.50        -8.2107   2.0000                                                             
     5  1  0.50        -2.5185   1.0000                                                             
     4  3  2.50        -2.7212   0.0000                                                             
   Description                                                                                      
     l       E           TYP  RCUT    TYP  RCUT                                                     
     2    -18.6226981     23  2.500                                                                 
     2     -1.3605826     23  2.500                                                                 
     0     -8.2107305     23  2.500                                                                 
     0     -6.1485975     23  2.500                                                                 
     1     -2.5184867     23  2.500                                                                 
     1      3.2427302     23  2.500                                                                 
     3     -1.3605826      7  2.500                                                                 
  local pseudopotential read in
  partial core-charges read in
  partial kinetic energy density read in
  atomic valenz-charges read in
  non local Contribution for L=           2  read in
    real space projection operators read in
  non local Contribution for L=           2  read in
    real space projection operators read in
  non local Contribution for L=           0  read in
    real space projection operators read in
  non local Contribution for L=           0  read in
    real space projection operators read in
  non local Contribution for L=           1  read in
    real space projection operators read in
  non local Contribution for L=           1  read in
    real space projection operators read in
    PAW grid and wavefunctions read in
 
   number of l-projection  operators is LMAX  =           6
   number of lm-projection operators is LMMAX =          18
 
 POTCAR:    PAW_PBE P 06Sep2000                   
   VRHFIN =P : s2p3                                                                                 
   LEXCH  = PE                                                                                      
   EATOM  =   176.0430 eV,   12.9388 Ry                                                             
                                                                                                    
   TITEL  = PAW_PBE P 06Sep2000                                                                     
   LULTRA =        F    use ultrasoft PP ?                                                          
   IUNSCR =        1    unscreen: 0-lin 1-nonlin 2-no                                               
   RPACOR =    1.500    partial core radius                                                         
   POMASS =   30.974; ZVAL   =    5.000    mass and valenz                                          
   RCORE  =    1.900    outmost cutoff radius                                                       
   RWIGS  =    2.330; RWIGS  =    1.233    wigner-seitz radius (au A)                               
   ENMAX  =  255.040; ENMIN  =  191.280 eV                                                          
   ICORE  =        2    local potential                                                             
   LCOR   =        T    correct aug charges                                                         
   LPAW   =        T    paw PP                                                                      
   EAUG   =  342.924                                                                                
   DEXC   =    0.000                                                                                
   RMAX   =    1.935    core radius for proj-oper                                                   
   RAUG   =    1.300    factor for augmentation sphere                                              
   RDEP   =    1.931    radius for radial grids                                                     
   RDEPT  =    1.794    core radius for aug-charge                                                  
                                                                                                    
   Atomic configuration                                                                             
    6 entries                                                                                       
     n  l   j            E        occ.                                                              
     1  0  0.50     -2084.0982   2.0000                                                             
     2  0  0.50      -173.9859   2.0000                                                             
     2  1  1.50      -124.4865   6.0000                                                             
     3  0  0.50       -13.9692   2.0000                                                             
     3  1  0.50        -5.5067   3.0000                                                             
     3  2  1.50        -5.4423   0.0000                                                             
   Description                                                                                      
     l       E           TYP  RCUT    TYP  RCUT                                                     
     0    -13.9691527     23  1.900                                                                 
     0    -11.7794650     23  1.900                                                                 
     1     -5.5066937     23  1.900                                                                 
     1     -0.2556953     23  1.900                                                                 
     2     -5.4423304     23  1.900                                                                 
  local pseudopotential read in
  partial core-charges read in
  partial kinetic energy density read in
  atomic valenz-charges read in
  non local Contribution for L=           0  read in
    real space projection operators read in
  non local Contribution for L=           0  read in
    real space projection operators read in
  non local Contribution for L=           1  read in
    real space projection operators read in
  non local Contribution for L=           1  read in
    real space projection operators read in
    PAW grid and wavefunctions read in
 
   number of l-projection  operators is LMAX  =           4
   number of lm-projection operators is LMMAX =           8
 
  PAW_PBE In_d 06Sep2000                :
 energy of atom  1       EATOM=-1576.8302
 kinetic energy error for atom=    0.0009 (will be added to EATOM!!)
  PAW_PBE P 06Sep2000                   :
 energy of atom  2       EATOM= -176.0430
 kinetic energy error for atom=    0.0005 (will be added to EATOM!!)
 
 
 POSCAR: In1 P1
  positions in direct lattice
  No initial velocities read in
 exchange correlation table for  LEXCH =        8
   RHO(1)=    0.500       N(1)  =     2000
   RHO(2)=  100.500       N(2)  =     4000
 


--------------------------------------------------------------------------------------------------------


 ion  position               nearest neighbor table
   1  0.000  0.000  0.000-   2 2.56   2 2.56   2 2.56   2 2.56
   2  0.250  0.250  0.250-   1 2.56   1 2.56   1 2.56   1 2.56
 
  LATTYP: Found a face centered cubic cell.
 ALAT       =     5.9039525586
  
  Lattice vectors:
  
 A1 = (   3.6154179970,   0.0000000000,   2.0873625386)
 A2 = (   1.2051389992,   3.4086486374,   2.0873625384)
 A3 = (   0.0000000000,   0.0000000000,   4.1747250700)


Analysis of symmetry for initial positions (statically):
=====================================================================
 Subroutine PRICEL returns:
 Original cell was already a primitive cell.
 

 Routine SETGRP: Setting up the symmetry group for a 
 face centered cubic supercell.


 Subroutine GETGRP returns: Found 24 space group operations
 (whereof 24 operations were pure point group operations)
 out of a pool of 48 trial point group operations.


The static configuration has the point symmetry T_d .


Analysis of symmetry for dynamics (positions and initial velocities):
=====================================================================
 Subroutine PRICEL returns:
 Original cell was already a primitive cell.
 

 Routine SETGRP: Setting up the symmetry group for a 
 face centered cubic supercell.


 Subroutine GETGRP returns: Found 24 space group operations
 (whereof 24 operations were pure point group operations)
 out of a pool of 48 trial point group operations.


The dynamic configuration has the point symmetry T_d .


Analysis of structural, dynamic, and magnetic symmetry:
=====================================================================
 Subroutine PRICEL returns:
 Original cell was already a primitive cell.
 

 Routine SETGRP: Setting up the symmetry group for a 
 face centered cubic supercell.


 Subroutine GETGRP returns: Found 24 space group operations
 (whereof 24 operations were pure point group operations)
 out of a pool of 48 trial point group operations.


The overall configuration has the point symmetry T_d .


 Subroutine INISYM returns: Found 24 space group operations
 (whereof 24 operations are pure point group operations),
 and found     1 'primitive' translations


----------------------------------------------------------------------------------------

                                     Primitive cell                                     

  volume of cell :      51.4480

  direct lattice vectors                    reciprocal lattice vectors
     3.615417997  0.000000000  2.087362539     0.276593191 -0.097790437  0.000000000
     1.205138999  3.408648637  2.087362538     0.000000000  0.293371393  0.000000000
     0.000000000  0.000000000  4.174725070    -0.138296596 -0.097790478  0.239536732

  length of vectors
     4.174725100  4.174724890  4.174725070     0.293371374  0.293371393  0.293371389

  position of ions in fractional coordinates (direct lattice)
     0.000000000  0.000000000  0.000000000
     0.250000000  0.250000000  0.250000000

  ion indices of the primitive-cell ions
   primitive index   ion index
                 1           1
                 2           2

----------------------------------------------------------------------------------------

 
 
 KPOINTS: k-points for static calculation specifie

Read explicit list of k-points.

 Found      1 k-points:

 Following reciprocal coordinates:
            Coordinates               Weight
  0.000000  0.000000  0.000000      1.000000

 Following cartesian coordinates:
            Coordinates               Weight
  0.000000  0.000000  0.000000      1.000000
 
 
 Subroutine IBZKPT_HF returns following result:
 ==============================================
 
 Found      1 k-points in 1st BZ
 the following      1 k-points will be used (e.g. in the exchange kernel)
 Following reciprocal coordinates:   # in IRBZ
  0.000000  0.000000  0.000000    1.00000000   1 t-inv F


--------------------------------------------------------------------------------------------------------




 Dimension of arrays:
   k-points           NKPTS =      1   k-points in BZ     NKDIM =      1   number of bands    NBANDS=     24
   number of dos      NEDOS =    301   number of ions     NIONS =      2
   non local maximal  LDIM  =      6   non local SUM 2l+1 LMDIM =     18
   total plane-waves  NPLWV =  46656
   max r-space proj   IRMAX =      1   max aug-charges    IRDMAX=  39366
   dimension x,y,z NGX =    36 NGY =   36 NGZ =   36
   dimension x,y,z NGXF=    72 NGYF=   72 NGZF=   72
   support grid    NGXF=    72 NGYF=   72 NGZF=   72
   ions per type =               1   1
   NGX,Y,Z   is equivalent  to a cutoff of  14.34, 14.34, 14.34 a.u.
   NGXF,Y,Z  is equivalent  to a cutoff of  28.67, 28.67, 28.67 a.u.

 SYSTEM =  unknown system                          
 POSCAR =  In1 P1                                  

 Startparameter for this run:
   NWRITE =      2    write-flag & timer
   PREC   = accura    normal or accurate (medium, high low for compatibility)
   ISTART =      0    job   : 0-new  1-cont  2-samecut
   ICHARG =      2    charge: 1-file 2-atom 10-const
   ISPIN  =      2    spin polarized calculation?
   LNONCOLLINEAR =      F non collinear calculations
   LSORBIT =      F    spin-orbit coupling
   INIWAV =      1    electr: 0-lowe 1-rand  2-diag
   LASPH  =      T    aspherical Exc in radial PAW
 Electronic Relaxation 1
   ENCUT  =  680.0 eV  49.98 Ry    7.07 a.u.   8.88  8.88  8.88*2*pi/ulx,y,z
   ENINI  =  680.0     initial cutoff
   ENAUG  = 1360.0 eV  augmentation charge cutoff
   NELM   =    200;   NELMIN=  2; NELMDL=  0     # of ELM steps 
   EDIFF  = 0.1E-04   stopping-criterion for ELM
   LREAL  =      F    real-space projection
   NLSPLINE    = F    spline interpolate recip. space projectors
   LCOMPAT=      F    compatible to vasp.4.4
   GGA_COMPAT  = T    GGA compatible to vasp.4.4-vasp.4.6
   LMAXPAW     = -100 max onsite density
   LMAXMIX     =    4 max onsite mixed and CHGCAR
   VOSKOWN=      0    Vosko Wilk Nusair interpolation
   ROPT   =    0.00000   0.00000
 Ionic relaxation
   EDIFFG = 0.1E-03   stopping-criterion for IOM
   NSW    =      0    number of steps for IOM
   NBLOCK =      1;   KBLOCK =      1    inner block; outer block 
   IBRION =     -1    ionic relax: 0-MD 1-quasi-New 2-CG
   NFREE  =      0    steps in history (QN), initial steepest desc. (CG)
   ISIF   =      0    stress and relaxation
   IWAVPR =     10    prediction:  0-non 1-charg 2-wave 3-comb
   ISYM   =      3    0-nonsym 1-usesym 2-fastsym
   LCORR  =      T    Harris-Foulkes like correction to forces

   POTIM  = 0.5000    time-step for ionic-motion
   TEIN   =    0.0    initial temperature
   TEBEG  =    0.0;   TEEND  =   0.0 temperature during run
   SMASS  =  -3.00    Nose mass-parameter (am)
   estimated Nose-frequenzy (Omega)   =  0.10E-29 period in steps = 0.13E+47 mass=  -0.398E-27a.u.
   SCALEE = 1.0000    scale energy and forces
   NPACO  =    256;   APACO  = 10.0  distance and # of slots for P.C.
   PSTRESS=    0.0 pullay stress

  Mass of Ions in am
   POMASS = 114.82 30.97
  Ionic Valenz
   ZVAL   =  13.00  5.00
  Atomic Wigner-Seitz radii
   RWIGS  =  -1.00 -1.00
  virtual crystal weights 
   VCA    =   1.00  1.00
   NELECT =      18.0000    total number of electrons
   NUPDOWN=      -1.0000    fix difference up-down

 DOS related values:
   EMIN   =  10.00;   EMAX   =-10.00  energy-range for DOS
   EFERMI =   0.00;   METHOD = LEGACY      
   ISMEAR =     0;   SIGMA  =   0.01  broadening in eV -4-tet -1-fermi 0-gaus

 Electronic relaxation 2 (details)
   IALGO  =     38    algorithm
   LDIAG  =      T    sub-space diagonalisation (order eigenvalues)
   LSUBROT=      F    optimize rotation matrix (better conditioning)
   TURBO    =      0    0=normal 1=particle mesh
   IRESTART =      0    0=no restart 2=restart with 2 vectors
   NREBOOT  =      0    no. of reboots
   NMIN     =      0    reboot dimension
   EREF     =   0.00    reference energy to select bands
   IMIX   =      1    mixing-type and parameters
     AMIX     =   0.40;   BMIX     =  1.00
     AMIX_MAG =   1.60;   BMIX_MAG =  1.00
     AMIN     =   0.10
     WC   =   100.;   INIMIX=   1;  MIXPRE=   1;  MAXMIX= -45

 Intra band minimization:
   WEIMIN = 0.0000     energy-eigenvalue tresh-hold
   EBREAK =  0.10E-06  absolut break condition
   DEPER  =   0.30     relativ break condition  

   TIME   =   0.40     timestep for ELM

  volume/ion in A,a.u.               =      25.72       173.59
  Fermi-wavevector in a.u.,A,eV,Ry     =   1.153567  2.179925 18.105499  1.330717
  Thomas-Fermi vector in A             =   2.290210
 
 Write flags
   LWAVE        =      T    write WAVECAR
   LDOWNSAMPLE  =      F    k-point downsampling of WAVECAR
   LCHARG       =      T    write CHGCAR
   LVTOT        =      T    write LOCPOT, total local potential
   LVHAR        =      F    write LOCPOT, Hartree potential only
   LELF         =      F    write electronic localiz. function (ELF)
   LORBIT       =     11    0 simple, 1 ext, 2 COOP (PROOUT), +10 PAW based schemes


 Dipole corrections
   LMONO  =      F    monopole corrections only (constant potential shift)
   LDIPOL =      F    correct potential (dipole corrections)
   IDIPOL =      0    1-x, 2-y, 3-z, 4-all directions 
   EPSILON=  1.0000000 bulk dielectric constant

 Exchange correlation treatment:
   GGA     =    PE    GGA type
   LEXCH   =     8    internal setting for exchange type
   LIBXC   =     F    Libxc                    
   VOSKOWN =     0    Vosko Wilk Nusair interpolation
   EXXOEP  =     0    0=HF, 1=EXX-LHF (local Hartree Fock) 2=EXX OEP
   LHFCALC =     T    Hartree Fock is set to
   LSYMGRAD=     F    symmetrize gradient (conserves proper symmetry)
   PRECFOCK=accur.    Normal, Fast or Accurate (Low or Medium for compatibility)
   LRHFCALC=     F    long range Hartree Fock
   LRSCOR  =     F    long range correlation only (use DFT for short range part)
   LTHOMAS =     F    Thomas Fermi screening in HF
   LMODELHF=     F    short range full HF, long range fraction AEXX
   FOCKCORR=     1    mode to apply convergence corrections
   LFOCKACE=     T    use Adeptively-Compressed-Exchange operator
   ENCUT4O =  -1.0   cutoff for four orbital integrals eV
   LMAXFOCK=     4    L truncation for augmentation on plane wave grid
   LMAXFOCKAE=  -1    L truncation for all-electron charge restoration on plane wave grid
   NMAXFOCKAE=   1    number of basis functions for all-electron charge restoration
   LFOCKAEDFT=     F  apply the AE augmentation even for DFT
   NKREDX  =     1    reduce k-point grid by
   NKREDY  =     1    reduce k-point grid by
   NKREDZ  =     1    reduce k-point grid by
   SHIFTRED=     F    shift reduced grid of Gamma
   HFKIDENT=     F    idential grid for each k-point
   ODDONLY =     F    use only odd q-grid points
   EVENONLY=     F    use only even q-grid points
   HFALPHA =   -1.0000 decay constant for conv. correction
   MCALPHA =    0.0000 extent of test-charge in conv. correction in multipole expansion
   AEXX    =    0.2500 exact exchange contribution
   HFSCREEN=    0.2000 screening length (either q_TF or 0.3 A-1)
   HFSCREENC=   0.2000 screening length for correlation (either q_TF or 0.3 A-1)
   HFRCUT  =    0.0000 spherical cutoff for potential kernel
   ALDAX   =    0.7500 LDA exchange part
   AGGAX   =    0.7500 GGA exchange part
   ALDAC   =    1.0000 LDA correlation
   AGGAC   =    1.0000 GGA correlation
   ENCUTFOCK=  -1.0 apply spherical cutoff to Coloumb kernel
   NBANDSGWLOW=     1    first orbital included in HF term
   NBLOCK_FOCK=    64    blocking factor in FOCK_ACC

 Linear response parameters
   LEPSILON=     F    determine dielectric tensor
   LRPA    =     F    only Hartree local field effects (RPA)
   LNABLA  =     F    use nabla operator in PAW spheres
   LVEL    =     F    velocity operator in full k-point grid
   CSHIFT  =0.1000    complex shift for real part using Kramers Kronig
   OMEGAMAX=  -1.0    maximum frequency
   DEG_THRESHOLD= 0.2000000E-02 threshold for treating states as degnerate
   RTIME   =   -0.100 relaxation time in fs
  (WPLASMAI=    0.000 imaginary part of plasma frequency in eV, 0.658/RTIME)
   DFIELD  = 0.0000000 0.0000000 0.0000000 field for delta impulse in time
 
  Optional k-point grid parameters
   LKPOINTS_OPT  =     F    use optional k-point grid
   KPOINTS_OPT_MODE=     1    mode for optional k-point grid
 
 Orbital magnetization related:
   ORBITALMAG=     F  switch on orbital magnetization
   LCHIMAG   =     F  perturbation theory with respect to B field
   DQ        =  0.001000  dq finite difference perturbation B field
   LLRAUG    =     F  two centre corrections for induced B field
   LBONE     =     F  B-component reconstruction in AE one-centre
   LVGVCALC  =     T  calculate vGv susceptibility
   LVGVAPPL  =     F  apply vGv susceptibility instead of pGv for G=0

 Random number generation:
   RANDOM_GENERATOR = DEFAULT
   PCG_SEED         = not used


--------------------------------------------------------------------------------------------------------


 Static calculation
 charge density and potential will be updated during run
 spin polarized calculation
 Variant of blocked Davidson
 Davidson routine will perform the subspace rotation
 perform sub-space diagonalisation
    after iterative eigenvector-optimisation
 Kerker-like  mixing scheme
 using additional bands           15
 reciprocal scheme for non local part
 use partial core corrections
 calculate Harris-corrections to forces 
   (improved forces if not selfconsistent)
 use gradient corrections 
 use of overlap-Matrix (Vanderbilt PP)
 Gauss-broadening in eV      SIGMA  =   0.01


--------------------------------------------------------------------------------------------------------


  energy-cutoff  :      680.00
  volume of cell :       51.45
      direct lattice vectors                 reciprocal lattice vectors
     3.615417997  0.000000000  2.087362539     0.276593191 -0.097790437  0.000000000
     1.205138999  3.408648637  2.087362538     0.000000000  0.293371393  0.000000000
     0.000000000  0.000000000  4.174725070    -0.138296596 -0.097790478  0.239536732

  length of vectors
     4.174725100  4.174724890  4.174725070     0.293371374  0.293371393  0.293371389


 
 k-points in units of 2pi/SCALE and weight: k-points for static calculation specifie
   0.00000000  0.00000000  0.00000000       1.000
 
 k-points in reciprocal lattice and weights: k-points for static calculation specifie
   0.00000000  0.00000000  0.00000000       1.000
 
 position of ions in fractional coordinates (direct lattice) 
   0.00000000  0.00000000  0.00000000
   0.25000000  0.25000000  0.25000000
 
 position of ions in cartesian coordinates  (Angst):
   0.00000000  0.00000000  0.00000000
   1.20513925  0.85216216  2.08736254
 


--------------------------------------------------------------------------------------------------------


 k-point   1 :   0.0000 0.0000 0.0000  plane waves:    2085

 maximum and minimum number of plane-waves per node :       212      207

 maximum number of plane-waves:      2085
 maximum index in each direction: 
   IXMAX=    8   IYMAX=    8   IZMAX=    8
   IXMIN=   -8   IYMIN=   -8   IZMIN=   -8


 parallel 3D FFT for wavefunctions:
    minimum data exchange during FFTs selected (reduces bandwidth)
 parallel 3D FFT for charge:
    minimum data exchange during FFTs selected (reduces bandwidth)

 
 Radii for the augmentation spheres in the non-local exchange
 for species   1 augmentation radius   1.347 (default was   1.077)
       energy cutoff for augmentation   2720.0
 for species   2 augmentation radius   1.198 (default was   0.959)
       energy cutoff for augmentation   2720.0

 real space projection operators:
  total allocation   :       2258.62 KBytes
  max/ min on nodes  :        271.21        166.84

 Maximum index for augmentation-charges in exchange         1142
  SETUP_FOCK is finished

 total amount of memory used by VASP MPI-rank0    32188. kBytes
=======================================================================

   base      :      30000. kBytes
   nonl-proj :         69. kBytes
   fftplans  :        509. kBytes
   grid      :        843. kBytes
   one-center:         31. kBytes
   HF        :         64. kBytes
   nonlr-proj:        657. kBytes
   wavefun   :         15. kBytes
 
     INWAV:  cpu time      0.0000: real time      0.0001
 initial charge density was supplied:
 charge density of overlapping atoms calculated
 number of electron      18.0000000 magnetization       1.2000000
 keeping initial charge density in first step


--------------------------------------------------------------------------------------------------------


 Maximum index for augmentation-charges         1261 (set IRDMAX)


--------------------------------------------------------------------------------------------------------


 First call to EWALD:  gamma=   0.477
 Maximum number of real-space cells 3x 3x 3
 Maximum number of reciprocal cells 3x 3x 3

    FEWALD:  cpu time      0.0024: real time      0.0026


--------------------------------------- Ionic step        1  -------------------------------------------




--------------------------------------- Iteration      1(   1)  ---------------------------------------


    POTLOK:  cpu time      0.0225: real time      0.0711
    SETDIJ:  cpu time      0.4033: real time      0.4051
     EDDAV:  cpu time      0.0538: real time      0.0585
       DOS:  cpu time      0.0048: real time      0.0053
    --------------------------------------------
      LOOP:  cpu time      0.4844: real time      0.5401

 eigenvalue-minimisations  :    96
 total energy-change (2. order) :-0.1021758E+04  (-0.8901964E+03)
 number of electron      18.0000000 magnetization       1.2000000
 augmentation part       18.0000000 magnetization       1.2000000

 Free energy of the ion-electron system (eV)
  ---------------------------------------------------
  alpha Z        PSCENC =        31.71721604
  Ewald energy   TEWEN  =     -1211.83925518
  -Hartree energ DENC   =      -558.38470678
  -exchange      EXHF   =         0.00000000
  -V(xc)+E(xc)   XCENC  =        45.06902050
  PAW double counting   =      1520.64510051    -2615.50197305
  entropy T*S    EENTRO =        -0.00000000
  eigenvalues    EBANDS =        15.89114345
  atomic energy  EATOM  =      1750.64560241
  Solvation  Ediel_sol  =         0.00000000
  ---------------------------------------------------
  free energy    TOTEN  =     -1021.75785209 eV

  energy without entropy =    -1021.75785209  energy(sigma->0) =    -1021.75785209
  exchange ACFDT corr.  =         0.00000000  see jH, gK, PRB 81, 115126


--------------------------------------------------------------------------------------------------------




--------------------------------------- Iteration      1(   2)  ---------------------------------------


     EDDAV:  cpu time      0.0378: real time      0.0386
       DOS:  cpu time      0.0001: real time      0.0001
    --------------------------------------------
      LOOP:  cpu time      0.0379: real time      0.0387

 eigenvalue-minimisations  :   120
 total energy-change (2. order) :-0.1244841E+03  (-0.1162804E+03)
 number of electron      18.0000000 magnetization       1.2000000
 augmentation part       18.0000000 magnetization       1.2000000

 Free energy of the ion-electron system (eV)
  ---------------------------------------------------
  alpha Z        PSCENC =        31.71721604
  Ewald energy   TEWEN  =     -1211.83925518
  -Hartree energ DENC   =      -558.38470678
  -exchange      EXHF   =         0.00000000
  -V(xc)+E(xc)   XCENC  =        45.06902050
  PAW double counting   =      1520.64510051    -2615.50197305
  entropy T*S    EENTRO =        -0.00000000
  eigenvalues    EBANDS =      -108.59295194
  atomic energy  EATOM  =      1750.64560241
  Solvation  Ediel_sol  =         0.00000000
  ---------------------------------------------------
  free energy    TOTEN  =     -1146.24194749 eV

  energy without entropy =    -1146.24194749  energy(sigma->0) =    -1146.24194749
  exchange ACFDT corr.  =         0.00000000  see jH, gK, PRB 81, 115126


--------------------------------------------------------------------------------------------------------




--------------------------------------- Iteration      1(   3)  ---------------------------------------


     EDDAV:  cpu time      0.0226: real time      0.0419
       DOS:  cpu time      0.0001: real time      0.0001
    --------------------------------------------
      LOOP:  cpu time      0.0228: real time      0.0420

 eigenvalue-minimisations  :   144
 total energy-change (2. order) :-0.9546817E+01  (-0.9053615E+01)
 number of electron      18.0000000 magnetization       1.2000000
 augmentation part       18.0000000 magnetization       1.2000000

 Free energy of the ion-electron system (eV)
  ---------------------------------------------------
  alpha Z        PSCENC =        31.71721604
  Ewald energy   TEWEN  =     -1211.83925518
  -Hartree energ DENC   =      -558.38470678
  -exchange      EXHF   =         0.00000000
  -V(xc)+E(xc)   XCENC  =        45.06902050
  PAW double counting   =      1520.64510051    -2615.50197305
  entropy T*S    EENTRO =        -0.00000000
  eigenvalues    EBANDS =      -118.13976884
  atomic energy  EATOM  =      1750.64560241
  Solvation  Ediel_sol  =         0.00000000
  ---------------------------------------------------
  free energy    TOTEN  =     -1155.78876439 eV

  energy without entropy =    -1155.78876439  energy(sigma->0) =    -1155.78876439
  exchange ACFDT corr.  =         0.00000000  see jH, gK, PRB 81, 115126


--------------------------------------------------------------------------------------------------------




--------------------------------------- Iteration      1(   4)  ---------------------------------------


     EDDAV:  cpu time      0.0179: real time      0.0387
       DOS:  cpu time      0.0001: real time      0.0001
    --------------------------------------------
      LOOP:  cpu time      0.0180: real time      0.0389

 eigenvalue-minimisations  :   120
 total energy-change (2. order) :-0.1873827E+00  (-0.1873581E+00)
 number of electron      18.0000000 magnetization       1.2000000
 augmentation part       18.0000000 magnetization       1.2000000

 Free energy of the ion-electron system (eV)
  ---------------------------------------------------
  alpha Z        PSCENC =        31.71721604
  Ewald energy   TEWEN  =     -1211.83925518
  -Hartree energ DENC   =      -558.38470678
  -exchange      EXHF   =         0.00000000
  -V(xc)+E(xc)   XCENC  =        45.06902050
  PAW double counting   =      1520.64510051    -2615.50197305
  entropy T*S    EENTRO =        -0.00000000
  eigenvalues    EBANDS =      -118.32715150
  atomic energy  EATOM  =      1750.64560241
  Solvation  Ediel_sol  =         0.00000000
  ---------------------------------------------------
  free energy    TOTEN  =     -1155.97614704 eV

  energy without entropy =    -1155.97614704  energy(sigma->0) =    -1155.97614704
  exchange ACFDT corr.  =         0.00000000  see jH, gK, PRB 81, 115126


--------------------------------------------------------------------------------------------------------




--------------------------------------- Iteration      1(   5)  ---------------------------------------


    POTLOK:  cpu time      0.0182: real time      0.0385
    SETDIJ:  cpu time      0.9589: real time      0.9613
     EDDAV:  cpu time      0.1658: real time      0.2539
       DOS:  cpu time      0.0003: real time      0.0003
    CHARGE:  cpu time      0.0073: real time      0.0076
    MIXING:  cpu time      0.0006: real time      0.0007
    --------------------------------------------
      LOOP:  cpu time      1.1510: real time      1.2624

 eigenvalue-minimisations  :   120
 total energy-change (2. order) : 0.1155459E+04  (-0.5931889E+00)
 number of electron      17.9999999 magnetization      -0.7200000
 augmentation part        6.8514694 magnetization      -0.7168752

 Free energy of the ion-electron system (eV)
  ---------------------------------------------------
  alpha Z        PSCENC =        31.71721604
  Ewald energy   TEWEN  =     -1211.83925518
  -Hartree energ DENC   =      -558.38470678
  -exchange      EXHF   =        43.45014482
  -V(xc)+E(xc)   XCENC  =        33.88374128
  PAW double counting   =      1531.11564854    -1511.31081630
  entropy T*S    EENTRO =        -0.00000000
  eigenvalues    EBANDS =      -109.79430622
  atomic energy  EATOM  =      1750.64560241
  Solvation  Ediel_sol  =         0.00000000
  ---------------------------------------------------
  free energy    TOTEN  =        -0.51673138 eV

  energy without entropy =       -0.51673138  energy(sigma->0) =       -0.51673138
  exchange ACFDT corr.  =         0.00000000  see jH, gK, PRB 81, 115126


--------------------------------------------------------------------------------------------------------




--------------------------------------- Iteration      1(   6)  ---------------------------------------


    POTLOK:  cpu time      0.0185: real time      0.0380
    SETDIJ:  cpu time      0.9472: real time      0.9496
     EDDAV:  cpu time      0.0557: real time      0.0559
       DOS:  cpu time      0.0001: real time      0.0001
    CHARGE:  cpu time      0.0027: real time      0.0027
    MIXING:  cpu time      0.0001: real time      0.0001
    --------------------------------------------
      LOOP:  cpu time      1.0244: real time      1.0463

 eigenvalue-minimisations  :   144
 total energy-change (2. order) : 0.3534799E+01  (-0.5887623E+00)
 number of electron      17.9999998 magnetization       0.4320000
 augmentation part        6.9253513 magnetization       0.4280162

 Free energy of the ion-electron system (eV)
  ---------------------------------------------------
  alpha Z        PSCENC =        31.71721604
  Ewald energy   TEWEN  =     -1211.83925518
  -Hartree energ DENC   =      -559.39039947
  -exchange      EXHF   =        42.80019470
  -V(xc)+E(xc)   XCENC  =        34.33744901
  PAW double counting   =      1870.11098876    -1847.02250047
  entropy T*S    EENTRO =        -0.00000000
  eigenvalues    EBANDS =      -108.34122819
  atomic energy  EATOM  =      1750.64560241
  Solvation  Ediel_sol  =         0.00000000
  ---------------------------------------------------
  free energy    TOTEN  =         3.01806760 eV

  energy without entropy =        3.01806760  energy(sigma->0) =        3.01806760
  exchange ACFDT corr.  =         0.00000000  see jH, gK, PRB 81, 115126


--------------------------------------------------------------------------------------------------------




--------------------------------------- Iteration      1(   7)  ---------------------------------------


    POTLOK:  cpu time      0.0175: real time      0.0376
    SETDIJ:  cpu time      0.9493: real time      0.9517
     EDDAV:  cpu time      0.0544: real time      0.0545
       DOS:  cpu time      0.0001: real time      0.0002
    CHARGE:  cpu time      0.0025: real time      0.0025
    MIXING:  cpu time      0.0001: real time      0.0001
    --------------------------------------------
      LOOP:  cpu time      1.0240: real time      1.0467

 eigenvalue-minimisations  :   132
 total energy-change (2. order) : 0.1063409E+00  (-0.2488554E+00)
 number of electron      17.9999998 magnetization      -0.2592000
 augmentation part        6.9563584 magnetization      -0.2585251

 Free energy of the ion-electron system (eV)
  ---------------------------------------------------
  alpha Z        PSCENC =        31.71721604
  Ewald energy   TEWEN  =     -1211.83925518
  -Hartree energ DENC   =      -561.74787776
  -exchange      EXHF   =        42.20373521
  -V(xc)+E(xc)   XCENC  =        34.61523439
  PAW double counting   =      2371.75501191    -2347.59949472
  entropy T*S    EENTRO =        -0.00000000
  eigenvalues    EBANDS =      -106.62576384
  atomic energy  EATOM  =      1750.64560241
  Solvation  Ediel_sol  =         0.00000000
  ---------------------------------------------------
  free energy    TOTEN  =         3.12440846 eV

  energy without entropy =        3.12440846  energy(sigma->0) =        3.12440846
  exchange ACFDT corr.  =         0.00000000  see jH, gK, PRB 81, 115126


--------------------------------------------------------------------------------------------------------




--------------------------------------- Iteration      1(   8)  ---------------------------------------


    POTLOK:  cpu time      0.0233: real time      0.0375
    SETDIJ:  cpu time      0.9438: real time      0.9462
     EDDAV:  cpu time      0.0549: real time      0.0551
       DOS:  cpu time      0.0001: real time      0.0001
    CHARGE:  cpu time      0.0026: real time      0.0026
    MIXING:  cpu time      0.0001: real time      0.0001
    --------------------------------------------
      LOOP:  cpu time      1.0249: real time      1.0417

 eigenvalue-minimisations  :   144
 total energy-change (2. order) :-0.9946501E-01  (-0.3008760E-01)
 number of electron      17.9999998 magnetization       0.1555200
 augmentation part        6.9461933 magnetization       0.1550360

 Free energy of the ion-electron system (eV)
  ---------------------------------------------------
  alpha Z        PSCENC =        31.71721604
  Ewald energy   TEWEN  =     -1211.83925518
  -Hartree energ DENC   =      -564.10744079
  -exchange      EXHF   =        41.87245790
  -V(xc)+E(xc)   XCENC  =        34.75475350
  PAW double counting   =      2849.49886669    -2825.42728385
  entropy T*S    EENTRO =        -0.00000000
  eigenvalues    EBANDS =      -104.08997330
  atomic energy  EATOM  =      1750.64560241
  Solvation  Ediel_sol  =         0.00000000
  ---------------------------------------------------
  free energy    TOTEN  =         3.02494345 eV

  energy without entropy =        3.02494345  energy(sigma->0) =        3.02494345
  exchange ACFDT corr.  =         0.00000000  see jH, gK, PRB 81, 115126


--------------------------------------------------------------------------------------------------------




--------------------------------------- Iteration      1(   9)  ---------------------------------------


    POTLOK:  cpu time      0.0176: real time      0.0361
    SETDIJ:  cpu time      0.9517: real time      0.9541
     EDDAV:  cpu time      0.0559: real time      0.0561
       DOS:  cpu time      0.0002: real time      0.0002
    CHARGE:  cpu time      0.0024: real time      0.0025
    MIXING:  cpu time      0.0001: real time      0.0001
    --------------------------------------------
      LOOP:  cpu time      1.0280: real time      1.0491

 eigenvalue-minimisations  :   144
 total energy-change (2. order) : 0.2172010E-02  (-0.2321428E-02)
 number of electron      17.9999998 magnetization      -0.0933120
 augmentation part        6.9349371 magnetization      -0.0930900

 Free energy of the ion-electron system (eV)
  ---------------------------------------------------
  alpha Z        PSCENC =        31.71721604
  Ewald energy   TEWEN  =     -1211.83925518
  -Hartree energ DENC   =      -565.70328960
  -exchange      EXHF   =        41.74777007
  -V(xc)+E(xc)   XCENC  =        34.82600526
  PAW double counting   =      3215.15236180    -3191.44507875
  entropy T*S    EENTRO =        -0.00000000
  eigenvalues    EBANDS =      -102.07421661
  atomic energy  EATOM  =      1750.64560241
  Solvation  Ediel_sol  =         0.00000000
  ---------------------------------------------------
  free energy    TOTEN  =         3.02711545 eV

  energy without entropy =        3.02711545  energy(sigma->0) =        3.02711545
  exchange ACFDT corr.  =         0.00000000  see jH, gK, PRB 81, 115126


--------------------------------------------------------------------------------------------------------




--------------------------------------- Iteration      1(  10)  ---------------------------------------


    POTLOK:  cpu time      0.0173: real time      0.0393
    SETDIJ:  cpu time      0.9442: real time      0.9466
     EDDAV:  cpu time      0.0561: real time      0.0562
       DOS:  cpu time      0.0001: real time      0.0001
    CHARGE:  cpu time      0.0026: real time      0.0026
    MIXING:  cpu time      0.0001: real time      0.0001
    --------------------------------------------
      LOOP:  cpu time      1.0204: real time      1.0449

 eigenvalue-minimisations  :   144
 total energy-change (2. order) : 0.3884382E-02  (-0.1598087E-02)
 number of electron      17.9999998 magnetization       0.0559872
 augmentation part        6.9297710 magnetization       0.0562360

 Free energy of the ion-electron system (eV)
  ---------------------------------------------------
  alpha Z        PSCENC =        31.71721604
  Ewald energy   TEWEN  =     -1211.83925518
  -Hartree energ DENC   =      -566.53655848
  -exchange      EXHF   =        41.71670870
  -V(xc)+E(xc)   XCENC  =        34.86792790
  PAW double counting   =      3434.73425196    -3411.27440928
  entropy T*S    EENTRO =        -0.00000000
  eigenvalues    EBANDS =      -101.00048425
  atomic energy  EATOM  =      1750.64560241
  Solvation  Ediel_sol  =         0.00000000
  ---------------------------------------------------
  free energy    TOTEN  =         3.03099984 eV

  energy without entropy =        3.03099984  energy(sigma->0) =        3.03099984
  exchange ACFDT corr.  =         0.00000000  see jH, gK, PRB 81, 115126


--------------------------------------------------------------------------------------------------------




--------------------------------------- Iteration      1(  11)  ---------------------------------------


    POTLOK:  cpu time      0.0174: real time      0.0376
    SETDIJ:  cpu time      0.9456: real time      0.9480
     EDDAV:  cpu time      0.0540: real time      0.0542
       DOS:  cpu time      0.0001: real time      0.0001
    CHARGE:  cpu time      0.0026: real time      0.0026
    MIXING:  cpu time      0.0001: real time      0.0001
    --------------------------------------------
      LOOP:  cpu time      1.0199: real time      1.0427

 eigenvalue-minimisations  :   144
 total energy-change (2. order) :-0.1715341E-02  (-0.7399691E-03)
 number of electron      17.9999998 magnetization      -0.0335923
 augmentation part        6.9293290 magnetization      -0.0335684

 Free energy of the ion-electron system (eV)
  ---------------------------------------------------
  alpha Z        PSCENC =        31.71721604
  Ewald energy   TEWEN  =     -1211.83925518
  -Hartree energ DENC   =      -566.90830839
  -exchange      EXHF   =        41.71670736
  -V(xc)+E(xc)   XCENC  =        34.89648544
  PAW double counting   =      3548.87953057    -3525.50980323
  entropy T*S    EENTRO =        -0.00000000
  eigenvalues    EBANDS =      -100.56889054
  atomic energy  EATOM  =      1750.64560241
  Solvation  Ediel_sol  =         0.00000000
  ---------------------------------------------------
  free energy    TOTEN  =         3.02928450 eV

  energy without entropy =        3.02928450  energy(sigma->0) =        3.02928450
  exchange ACFDT corr.  =         0.00000000  see jH, gK, PRB 81, 115126


--------------------------------------------------------------------------------------------------------




--------------------------------------- Iteration      1(  12)  ---------------------------------------


    POTLOK:  cpu time      0.0178: real time      0.0368
    SETDIJ:  cpu time      0.9456: real time      0.9480
     EDDAV:  cpu time      0.0581: real time      0.0582
       DOS:  cpu time      0.0002: real time      0.0002
    CHARGE:  cpu time      0.0026: real time      0.0026
    MIXING:  cpu time      0.0001: real time      0.0001
    --------------------------------------------
      LOOP:  cpu time      1.0243: real time      1.0459

 eigenvalue-minimisations  :   144
 total energy-change (2. order) :-0.1326887E-02  (-0.2153789E-03)
 number of electron      17.9999998 magnetization       0.0201554
 augmentation part        6.9304036 magnetization       0.0202889

 Free energy of the ion-electron system (eV)
  ---------------------------------------------------
  alpha Z        PSCENC =        31.71721604
  Ewald energy   TEWEN  =     -1211.83925518
  -Hartree energ DENC   =      -567.08147455
  -exchange      EXHF   =        41.72016761
  -V(xc)+E(xc)   XCENC  =        34.91714732
  PAW double counting   =      3606.27354397    -3582.91145130
  entropy T*S    EENTRO =        -0.00000000
  eigenvalues    EBANDS =      -100.41353872
  atomic energy  EATOM  =      1750.64560241
  Solvation  Ediel_sol  =         0.00000000
  ---------------------------------------------------
  free energy    TOTEN  =         3.02795761 eV

  energy without entropy =        3.02795761  energy(sigma->0) =        3.02795761
  exchange ACFDT corr.  =         0.00000000  see jH, gK, PRB 81, 115126


--------------------------------------------------------------------------------------------------------




--------------------------------------- Iteration      1(  13)  ---------------------------------------


    POTLOK:  cpu time      0.0177: real time      0.0369
    SETDIJ:  cpu time      0.9482: real time      0.9505
     EDDAV:  cpu time      0.0550: real time      0.0551
       DOS:  cpu time      0.0002: real time      0.0003
    CHARGE:  cpu time      0.0029: real time      0.0029
    MIXING:  cpu time      0.0001: real time      0.0001
    --------------------------------------------
      LOOP:  cpu time      1.0240: real time      1.0459

 eigenvalue-minimisations  :   144
 total energy-change (2. order) :-0.6592567E-03  (-0.1187698E-03)
 number of electron      17.9999998 magnetization      -0.0120932
 augmentation part        6.9312337 magnetization      -0.0121291

 Free energy of the ion-electron system (eV)
  ---------------------------------------------------
  alpha Z        PSCENC =        31.71721604
  Ewald energy   TEWEN  =     -1211.83925518
  -Hartree energ DENC   =      -567.18657079
  -exchange      EXHF   =        41.72083821
  -V(xc)+E(xc)   XCENC  =        34.93188517
  PAW double counting   =      3637.20395877    -3613.82761849
  entropy T*S    EENTRO =        -0.00000000
  eigenvalues    EBANDS =      -100.33875780
  atomic energy  EATOM  =      1750.64560241
  Solvation  Ediel_sol  =         0.00000000
  ---------------------------------------------------
  free energy    TOTEN  =         3.02729835 eV

  energy without entropy =        3.02729835  energy(sigma->0) =        3.02729835
  exchange ACFDT corr.  =         0.00000000  see jH, gK, PRB 81, 115126


--------------------------------------------------------------------------------------------------------




--------------------------------------- Iteration      1(  14)  ---------------------------------------


    POTLOK:  cpu time      0.0197: real time      0.0373
    SETDIJ:  cpu time      0.9457: real time      0.9480
     EDDAV:  cpu time      0.0568: real time      0.0571
       DOS:  cpu time      0.0001: real time      0.0001
    CHARGE:  cpu time      0.0025: real time      0.0025
    MIXING:  cpu time      0.0001: real time      0.0001
    --------------------------------------------
      LOOP:  cpu time      1.0249: real time      1.0451

 eigenvalue-minimisations  :   144
 total energy-change (2. order) :-0.5354301E-03  (-0.1804071E-03)
 number of electron      17.9999998 magnetization       0.0072559
 augmentation part        6.9314992 magnetization       0.0073129

 Free energy of the ion-electron system (eV)
  ---------------------------------------------------
  alpha Z        PSCENC =        31.71721604
  Ewald energy   TEWEN  =     -1211.83925518
  -Hartree energ DENC   =      -567.26471196
  -exchange      EXHF   =        41.71941281
  -V(xc)+E(xc)   XCENC  =        34.94188669
  PAW double counting   =      3654.28945002    -3630.90218483
  entropy T*S    EENTRO =        -0.00000000
  eigenvalues    EBANDS =      -100.28065309
  atomic energy  EATOM  =      1750.64560241
  Solvation  Ediel_sol  =         0.00000000
  ---------------------------------------------------
  free energy    TOTEN  =         3.02676292 eV

  energy without entropy =        3.02676292  energy(sigma->0) =        3.02676292
  exchange ACFDT corr.  =         0.00000000  see jH, gK, PRB 81, 115126


--------------------------------------------------------------------------------------------------------




--------------------------------------- Iteration      1(  15)  ---------------------------------------


    POTLOK:  cpu time      0.0178: real time      0.0372
    SETDIJ:  cpu time      0.9481: real time      0.9505
     EDDAV:  cpu time      0.0551: real time      0.0553
       DOS:  cpu time      0.0002: real time      0.0002
    CHARGE:  cpu time      0.0026: real time      0.0026
    MIXING:  cpu time      0.0001: real time      0.0001
    --------------------------------------------
      LOOP:  cpu time      1.0239: real time      1.0458

 eigenvalue-minimisations  :   144
 total energy-change (2. order) :-0.7879711E-03  (-0.4113908E-03)
 number of electron      17.9999998 magnetization      -0.0043536
 augmentation part        6.9313327 magnetization      -0.0043398

 Free energy of the ion-electron system (eV)
  ---------------------------------------------------
  alpha Z        PSCENC =        31.71721604
  Ewald energy   TEWEN  =     -1211.83925518
  -Hartree energ DENC   =      -567.32258708
  -exchange      EXHF   =        41.71772731
  -V(xc)+E(xc)   XCENC  =        34.94839129
  PAW double counting   =      3664.08514662    -3640.69367465
  entropy T*S    EENTRO =        -0.00000000
  eigenvalues    EBANDS =      -100.23259182
  atomic energy  EATOM  =      1750.64560241
  Solvation  Ediel_sol  =         0.00000000
  ---------------------------------------------------
  free energy    TOTEN  =         3.02597495 eV

  energy without entropy =        3.02597495  energy(sigma->0) =        3.02597495
  exchange ACFDT corr.  =         0.00000000  see jH, gK, PRB 81, 115126


--------------------------------------------------------------------------------------------------------




--------------------------------------- Iteration      1(  16)  ---------------------------------------


    POTLOK:  cpu time      0.0175: real time      0.0369
    SETDIJ:  cpu time      0.9482: real time      0.9506
     EDDAV:  cpu time      0.0567: real time      0.0568
       DOS:  cpu time      0.0001: real time      0.0001
    CHARGE:  cpu time      0.0024: real time      0.0024
    MIXING:  cpu time      0.0001: real time      0.0001
    --------------------------------------------
      LOOP:  cpu time      1.0250: real time      1.0469

 eigenvalue-minimisations  :   156
 total energy-change (2. order) :-0.1697157E-02  (-0.1036805E-02)
 number of electron      17.9999998 magnetization       0.0026121
 augmentation part        6.9307101 magnetization       0.0026298

 Free energy of the ion-electron system (eV)
  ---------------------------------------------------
  alpha Z        PSCENC =        31.71721604
  Ewald energy   TEWEN  =     -1211.83925518
  -Hartree energ DENC   =      -567.36286597
  -exchange      EXHF   =        41.71670392
  -V(xc)+E(xc)   XCENC  =        34.95262400
  PAW double counting   =      3669.32968847    -3645.93842216
  entropy T*S    EENTRO =        -0.00000000
  eigenvalues    EBANDS =      -100.19701374
  atomic energy  EATOM  =      1750.64560241
  Solvation  Ediel_sol  =         0.00000000
  ---------------------------------------------------
  free energy    TOTEN  =         3.02427779 eV

  energy without entropy =        3.02427779  energy(sigma->0) =        3.02427779
  exchange ACFDT corr.  =         0.00000000  see jH, gK, PRB 81, 115126


--------------------------------------------------------------------------------------------------------




--------------------------------------- Iteration      1(  17)  ---------------------------------------


    POTLOK:  cpu time      0.0175: real time      0.0379
    SETDIJ:  cpu time      0.9475: real time      0.9499
     EDDAV:  cpu time      0.0557: real time      0.0558
       DOS:  cpu time      0.0001: real time      0.0001
    CHARGE:  cpu time      0.0026: real time      0.0026
    MIXING:  cpu time      0.0001: real time      0.0001
    --------------------------------------------
      LOOP:  cpu time      1.0235: real time      1.0465

 eigenvalue-minimisations  :   156
 total energy-change (2. order) :-0.4165984E-02  (-0.2632747E-02)
 number of electron      17.9999998 magnetization      -0.0015673
 augmentation part        6.9292021 magnetization      -0.0015638

 Free energy of the ion-electron system (eV)
  ---------------------------------------------------
  alpha Z        PSCENC =        31.71721604
  Ewald energy   TEWEN  =     -1211.83925518
  -Hartree energ DENC   =      -567.38798691
  -exchange      EXHF   =        41.71643221
  -V(xc)+E(xc)   XCENC  =        34.95560278
  PAW double counting   =      3672.06301059    -3648.67475208
  entropy T*S    EENTRO =        -0.00000000
  eigenvalues    EBANDS =      -100.17575806
  atomic energy  EATOM  =      1750.64560241
  Solvation  Ediel_sol  =         0.00000000
  ---------------------------------------------------
  free energy    TOTEN  =         3.02011181 eV

  energy without entropy =        3.02011181  energy(sigma->0) =        3.02011181
  exchange ACFDT corr.  =         0.00000000  see jH, gK, PRB 81, 115126


--------------------------------------------------------------------------------------------------------




--------------------------------------- Iteration      1(  18)  ---------------------------------------


    POTLOK:  cpu time      0.0175: real time      0.0380
    SETDIJ:  cpu time      0.9467: real time      0.9491
     EDDAV:  cpu time      0.0579: real time      0.0580
       DOS:  cpu time      0.0001: real time      0.0001
    CHARGE:  cpu time      0.0025: real time      0.0025
    MIXING:  cpu time      0.0001: real time      0.0001
    --------------------------------------------
      LOOP:  cpu time      1.0248: real time      1.0479

 eigenvalue-minimisations  :   168
 total energy-change (2. order) :-0.1039965E-01  (-0.6587648E-02)
 number of electron      17.9999998 magnetization       0.0009404
 augmentation part        6.9254784 magnetization       0.0009590

 Free energy of the ion-electron system (eV)
  ---------------------------------------------------
  alpha Z        PSCENC =        31.71721604
  Ewald energy   TEWEN  =     -1211.83925518
  -Hartree energ DENC   =      -567.39997568
  -exchange      EXHF   =        41.71691942
  -V(xc)+E(xc)   XCENC  =        34.95826980
  PAW double counting   =      3673.15468801    -3649.77366986
  entropy T*S    EENTRO =        -0.00000000
  eigenvalues    EBANDS =      -100.17008281
  atomic energy  EATOM  =      1750.64560241
  Solvation  Ediel_sol  =         0.00000000
  ---------------------------------------------------
  free energy    TOTEN  =         3.00971216 eV

  energy without entropy =        3.00971216  energy(sigma->0) =        3.00971216
  exchange ACFDT corr.  =         0.00000000  see jH, gK, PRB 81, 115126


--------------------------------------------------------------------------------------------------------




--------------------------------------- Iteration      1(  19)  ---------------------------------------


    POTLOK:  cpu time      0.0175: real time      0.0374
    SETDIJ:  cpu time      0.9470: real time      0.9494
     EDDAV:  cpu time      0.0577: real time      0.0579
       DOS:  cpu time      0.0001: real time      0.0001
    CHARGE:  cpu time      0.0025: real time      0.0025
    MIXING:  cpu time      0.0001: real time      0.0001
    --------------------------------------------
      LOOP:  cpu time      1.0250: real time      1.0474

 eigenvalue-minimisations  :   156
 total energy-change (2. order) :-0.2517648E-01  (-0.1579123E-01)
 number of electron      17.9999998 magnetization      -0.0005642
 augmentation part        6.9166731 magnetization      -0.0004977

 Free energy of the ion-electron system (eV)
  ---------------------------------------------------
  alpha Z        PSCENC =        31.71721604
  Ewald energy   TEWEN  =     -1211.83925518
  -Hartree energ DENC   =      -567.39670103
  -exchange      EXHF   =        41.71870080
  -V(xc)+E(xc)   XCENC  =        34.96185092
  PAW double counting   =      3672.54519304    -3649.18136966
  entropy T*S    EENTRO =        -0.00000000
  eigenvalues    EBANDS =      -100.18670168
  atomic energy  EATOM  =      1750.64560241
  Solvation  Ediel_sol  =         0.00000000
  ---------------------------------------------------
  free energy    TOTEN  =         2.98453567 eV

  energy without entropy =        2.98453567  energy(sigma->0) =        2.98453567
  exchange ACFDT corr.  =         0.00000000  see jH, gK, PRB 81, 115126


--------------------------------------------------------------------------------------------------------




--------------------------------------- Iteration      1(  20)  ---------------------------------------


    POTLOK:  cpu time      0.0175: real time      0.0376
    SETDIJ:  cpu time      0.9497: real time      0.9521
     EDDAV:  cpu time      0.0572: real time      0.0573
       DOS:  cpu time      0.0001: real time      0.0001
    CHARGE:  cpu time      0.0026: real time      0.0026
    MIXING:  cpu time      0.0002: real time      0.0002
    --------------------------------------------
      LOOP:  cpu time      1.0273: real time      1.0499

 eigenvalue-minimisations  :   144
 total energy-change (2. order) :-0.5605490E-01  (-0.3431428E-01)
 number of electron      17.9999998 magnetization       0.0003385
 augmentation part        6.8974419 magnetization       0.0004699

 Free energy of the ion-electron system (eV)
  ---------------------------------------------------
  alpha Z        PSCENC =        31.71721604
  Ewald energy   TEWEN  =     -1211.83925518
  -Hartree energ DENC   =      -567.36778033
  -exchange      EXHF   =        41.72288917
  -V(xc)+E(xc)   XCENC  =        34.96812980
  PAW double counting   =      3669.65232849    -3646.32982872
  entropy T*S    EENTRO =        -0.00000000
  eigenvalues    EBANDS =      -100.24082090
  atomic energy  EATOM  =      1750.64560241
  Solvation  Ediel_sol  =         0.00000000
  ---------------------------------------------------
  free energy    TOTEN  =         2.92848078 eV

  energy without entropy =        2.92848078  energy(sigma->0) =        2.92848078
  exchange ACFDT corr.  =         0.00000000  see jH, gK, PRB 81, 115126


--------------------------------------------------------------------------------------------------------




--------------------------------------- Iteration      1(  21)  ---------------------------------------


    POTLOK:  cpu time      0.0176: real time      0.0374
    SETDIJ:  cpu time      0.9461: real time      0.9485
     EDDAV:  cpu time      0.0550: real time      0.0552
       DOS:  cpu time      0.0001: real time      0.0001
    CHARGE:  cpu time      0.0026: real time      0.0026
    MIXING:  cpu time      0.0001: real time      0.0001
    --------------------------------------------
      LOOP:  cpu time      1.0216: real time      1.0439

 eigenvalue-minimisations  :   144
 total energy-change (2. order) :-0.1046376E+00  (-0.6086910E-01)
 number of electron      17.9999998 magnetization      -0.0002031
 augmentation part        6.8623444 magnetization       0.0001907

 Free energy of the ion-electron system (eV)
  ---------------------------------------------------
  alpha Z        PSCENC =        31.71721604
  Ewald energy   TEWEN  =     -1211.83925518
  -Hartree energ DENC   =      -567.28826400
  -exchange      EXHF   =        41.73171002
  -V(xc)+E(xc)   XCENC  =        34.97880777
  PAW double counting   =      3662.94046349    -3639.71021109
  entropy T*S    EENTRO =        -0.00000000
  eigenvalues    EBANDS =      -100.35222626
  atomic energy  EATOM  =      1750.64560241
  Solvation  Ediel_sol  =         0.00000000
  ---------------------------------------------------
  free energy    TOTEN  =         2.82384322 eV

  energy without entropy =        2.82384322  energy(sigma->0) =        2.82384322
  exchange ACFDT corr.  =         0.00000000  see jH, gK, PRB 81, 115126


--------------------------------------------------------------------------------------------------------




--------------------------------------- Iteration      1(  22)  ---------------------------------------


    POTLOK:  cpu time      0.0177: real time      0.0368
    SETDIJ:  cpu time      0.9466: real time      0.9490
     EDDAV:  cpu time      0.0566: real time      0.0568
       DOS:  cpu time      0.0001: real time      0.0001
    CHARGE:  cpu time      0.0026: real time      0.0026
    MIXING:  cpu time      0.0001: real time      0.0001
    --------------------------------------------
      LOOP:  cpu time      1.0238: real time      1.0454

 eigenvalue-minimisations  :   156
 total energy-change (2. order) :-0.1430221E+00  (-0.7621525E-01)
 number of electron      17.9999998 magnetization       0.0001219
 augmentation part        6.8137123 magnetization       0.0011819

 Free energy of the ion-electron system (eV)
  ---------------------------------------------------
  alpha Z        PSCENC =        31.71721604
  Ewald energy   TEWEN  =     -1211.83925518
  -Hartree energ DENC   =      -567.11647436
  -exchange      EXHF   =        41.74580065
  -V(xc)+E(xc)   XCENC  =        34.99062127
  PAW double counting   =      3647.78909455    -3624.73662612
  entropy T*S    EENTRO =        -0.00000000
  eigenvalues    EBANDS =      -100.51515814
  atomic energy  EATOM  =      1750.64560241
  Solvation  Ediel_sol  =         0.00000000
  ---------------------------------------------------
  free energy    TOTEN  =         2.68082112 eV

  energy without entropy =        2.68082112  energy(sigma->0) =        2.68082112
  exchange ACFDT corr.  =         0.00000000  see jH, gK, PRB 81, 115126


--------------------------------------------------------------------------------------------------------




--------------------------------------- Iteration      1(  23)  ---------------------------------------


    POTLOK:  cpu time      0.0178: real time      0.0376
    SETDIJ:  cpu time      0.9476: real time      0.9500
     EDDAV:  cpu time      0.0577: real time      0.0578
       DOS:  cpu time      0.0003: real time      0.0003
    CHARGE:  cpu time      0.0028: real time      0.0028
    MIXING:  cpu time      0.0001: real time      0.0001
    --------------------------------------------
      LOOP:  cpu time      1.0262: real time      1.0486

 eigenvalue-minimisations  :   168
 total energy-change (2. order) :-0.1252087E+00  (-0.6025606E-01)
 number of electron      17.9999998 magnetization      -0.0000731
 augmentation part        6.7654605 magnetization       0.0016042

 Free energy of the ion-electron system (eV)
  ---------------------------------------------------
  alpha Z        PSCENC =        31.71721604
  Ewald energy   TEWEN  =     -1211.83925518
  -Hartree energ DENC   =      -566.81819062
  -exchange      EXHF   =        41.76166141
  -V(xc)+E(xc)   XCENC  =        34.99067489
  PAW double counting   =      3621.38839418    -3598.60571070
  entropy T*S    EENTRO =        -0.00000000
  eigenvalues    EBANDS =      -100.68478002
  atomic energy  EATOM  =      1750.64560241
  Solvation  Ediel_sol  =         0.00000000
  ---------------------------------------------------
  free energy    TOTEN  =         2.55561242 eV

  energy without entropy =        2.55561242  energy(sigma->0) =        2.55561242
  exchange ACFDT corr.  =         0.00000000  see jH, gK, PRB 81, 115126


--------------------------------------------------------------------------------------------------------




--------------------------------------- Iteration      1(  24)  ---------------------------------------


    POTLOK:  cpu time      0.0184: real time      0.0371
    SETDIJ:  cpu time      0.9533: real time      0.9557
     EDDAV:  cpu time      0.0565: real time      0.0566
       DOS:  cpu time      0.0002: real time      0.0003
    CHARGE:  cpu time      0.0029: real time      0.0029
    MIXING:  cpu time      0.0001: real time      0.0001
    --------------------------------------------
      LOOP:  cpu time      1.0313: real time      1.0528

 eigenvalue-minimisations  :   168
 total energy-change (2. order) :-0.6635727E-01  (-0.3082188E-01)
 number of electron      17.9999998 magnetization       0.0000439
 augmentation part        6.7294506 magnetization       0.0024153

 Free energy of the ion-electron system (eV)
  ---------------------------------------------------
  alpha Z        PSCENC =        31.71721604
  Ewald energy   TEWEN  =     -1211.83925518
  -Hartree energ DENC   =      -566.40602641
  -exchange      EXHF   =        41.77337017
  -V(xc)+E(xc)   XCENC  =        34.97079073
  PAW double counting   =      3587.09204210    -3564.62094232
  entropy T*S    EENTRO =        -0.00000000
  eigenvalues    EBANDS =      -100.84354240
  atomic energy  EATOM  =      1750.64560241
  Solvation  Ediel_sol  =         0.00000000
  ---------------------------------------------------
  free energy    TOTEN  =         2.48925515 eV

  energy without entropy =        2.48925515  energy(sigma->0) =        2.48925515
  exchange ACFDT corr.  =         0.00000000  see jH, gK, PRB 81, 115126


--------------------------------------------------------------------------------------------------------




--------------------------------------- Iteration      1(  25)  ---------------------------------------


    POTLOK:  cpu time      0.0246: real time      0.0376
    SETDIJ:  cpu time      0.9468: real time      0.9492
     EDDAV:  cpu time      0.0586: real time      0.0587
       DOS:  cpu time      0.0001: real time      0.0001
    CHARGE:  cpu time      0.0026: real time      0.0026
    MIXING:  cpu time      0.0001: real time      0.0001
    --------------------------------------------
      LOOP:  cpu time      1.0328: real time      1.0483

 eigenvalue-minimisations  :   156
 total energy-change (2. order) :-0.2188270E-01  (-0.1173525E-01)
 number of electron      17.9999998 magnetization      -0.0000263
 augmentation part        6.7080095 magnetization       0.0031925

 Free energy of the ion-electron system (eV)
  ---------------------------------------------------
  alpha Z        PSCENC =        31.71721604
  Ewald energy   TEWEN  =     -1211.83925518
  -Hartree energ DENC   =      -565.94872828
  -exchange      EXHF   =        41.78053507
  -V(xc)+E(xc)   XCENC  =        34.93958411
  PAW double counting   =      3550.11237368    -3527.92282748
  entropy T*S    EENTRO =        -0.00000000
  eigenvalues    EBANDS =      -101.01712793
  atomic energy  EATOM  =      1750.64560241
  Solvation  Ediel_sol  =         0.00000000
  ---------------------------------------------------
  free energy    TOTEN  =         2.46737245 eV

  energy without entropy =        2.46737245  energy(sigma->0) =        2.46737245
  exchange ACFDT corr.  =         0.00000000  see jH, gK, PRB 81, 115126


--------------------------------------------------------------------------------------------------------




--------------------------------------- Iteration      1(  26)  ---------------------------------------


    POTLOK:  cpu time      0.0179: real time      0.0378
    SETDIJ:  cpu time      0.9463: real time      0.9487
     EDDAV:  cpu time      0.0571: real time      0.0572
       DOS:  cpu time      0.0001: real time      0.0001
    CHARGE:  cpu time      0.0025: real time      0.0025
    MIXING:  cpu time      0.0001: real time      0.0001
    --------------------------------------------
      LOOP:  cpu time      1.0240: real time      1.0465

 eigenvalue-minimisations  :   168
 total energy-change (2. order) :-0.4702273E-02  (-0.4042718E-02)
 number of electron      17.9999998 magnetization       0.0000158
 augmentation part        6.6973483 magnetization       0.0039940

 Free energy of the ion-electron system (eV)
  ---------------------------------------------------
  alpha Z        PSCENC =        31.71721604
  Ewald energy   TEWEN  =     -1211.83925518
  -Hartree energ DENC   =      -565.52173088
  -exchange      EXHF   =        41.78620244
  -V(xc)+E(xc)   XCENC  =        34.90953418
  PAW double counting   =      3520.55061554    -3498.57461218
  entropy T*S    EENTRO =        -0.00000000
  eigenvalues    EBANDS =      -101.21090220
  atomic energy  EATOM  =      1750.64560241
  Solvation  Ediel_sol  =         0.00000000
  ---------------------------------------------------
  free energy    TOTEN  =         2.46267018 eV

  energy without entropy =        2.46267018  energy(sigma->0) =        2.46267018
  exchange ACFDT corr.  =         0.00000000  see jH, gK, PRB 81, 115126


--------------------------------------------------------------------------------------------------------




--------------------------------------- Iteration      1(  27)  ---------------------------------------


    POTLOK:  cpu time      0.0177: real time      0.0388
    SETDIJ:  cpu time      0.9464: real time      0.9488
     EDDAV:  cpu time      0.0570: real time      0.0571
       DOS:  cpu time      0.0001: real time      0.0001
    CHARGE:  cpu time      0.0025: real time      0.0025
    MIXING:  cpu time      0.0001: real time      0.0001
    --------------------------------------------
      LOOP:  cpu time      1.0239: real time      1.0475

 eigenvalue-minimisations  :   168
 total energy-change (2. order) :-0.9766552E-03  (-0.1545467E-02)
 number of electron      17.9999998 magnetization      -0.0000095
 augmentation part        6.6932041 magnetization       0.0043796

 Free energy of the ion-electron system (eV)
  ---------------------------------------------------
  alpha Z        PSCENC =        31.71721604
  Ewald energy   TEWEN  =     -1211.83925518
  -Hartree energ DENC   =      -565.16845517
  -exchange      EXHF   =        41.79139829
  -V(xc)+E(xc)   XCENC  =        34.88551282
  PAW double counting   =      3500.82361705    -3478.99041554
  entropy T*S    EENTRO =        -0.00000000
  eigenvalues    EBANDS =      -101.40352720
  atomic energy  EATOM  =      1750.64560241
  Solvation  Ediel_sol  =         0.00000000
  ---------------------------------------------------
  free energy    TOTEN  =         2.46169352 eV

  energy without entropy =        2.46169352  energy(sigma->0) =        2.46169352
  exchange ACFDT corr.  =         0.00000000  see jH, gK, PRB 81, 115126


--------------------------------------------------------------------------------------------------------




--------------------------------------- Iteration      1(  28)  ---------------------------------------


    POTLOK:  cpu time      0.0177: real time      0.0365
    SETDIJ:  cpu time      0.9524: real time      0.9548
     EDDAV:  cpu time      0.0573: real time      0.0575
       DOS:  cpu time      0.0001: real time      0.0001
    CHARGE:  cpu time      0.0025: real time      0.0025
    MIXING:  cpu time      0.0001: real time      0.0001
    --------------------------------------------
      LOOP:  cpu time      1.0302: real time      1.0515

 eigenvalue-minimisations  :   168
 total energy-change (2. order) :-0.7661083E-03  (-0.8349837E-03)
 number of electron      17.9999998 magnetization       0.0000057
 augmentation part        6.6920267 magnetization       0.0046060

 Free energy of the ion-electron system (eV)
  ---------------------------------------------------
  alpha Z        PSCENC =        31.71721604
  Ewald energy   TEWEN  =     -1211.83925518
  -Hartree energ DENC   =      -564.90344547
  -exchange      EXHF   =        41.79662082
  -V(xc)+E(xc)   XCENC  =        34.86862098
  PAW double counting   =      3487.51755191    -3465.77174050
  entropy T*S    EENTRO =        -0.00000000
  eigenvalues    EBANDS =      -101.57024360
  atomic energy  EATOM  =      1750.64560241
  Solvation  Ediel_sol  =         0.00000000
  ---------------------------------------------------
  free energy    TOTEN  =         2.46092741 eV

  energy without entropy =        2.46092741  energy(sigma->0) =        2.46092741
  exchange ACFDT corr.  =         0.00000000  see jH, gK, PRB 81, 115126


--------------------------------------------------------------------------------------------------------




--------------------------------------- Iteration      1(  29)  ---------------------------------------


    POTLOK:  cpu time      0.0176: real time      0.0381
    SETDIJ:  cpu time      0.9467: real time      0.9490
     EDDAV:  cpu time      0.0534: real time      0.0536
       DOS:  cpu time      0.0001: real time      0.0001
    CHARGE:  cpu time      0.0026: real time      0.0026
    MIXING:  cpu time      0.0001: real time      0.0001
    --------------------------------------------
      LOOP:  cpu time      1.0205: real time      1.0435

 eigenvalue-minimisations  :   144
 total energy-change (2. order) :-0.8988068E-03  (-0.6129585E-03)
 number of electron      17.9999998 magnetization      -0.0000034
 augmentation part        6.6920329 magnetization       0.0045877

 Free energy of the ion-electron system (eV)
  ---------------------------------------------------
  alpha Z        PSCENC =        31.71721604
  Ewald energy   TEWEN  =     -1211.83925518
  -Hartree energ DENC   =      -564.71715480
  -exchange      EXHF   =        41.80093853
  -V(xc)+E(xc)   XCENC  =        34.85728099
  PAW double counting   =      3480.63691721    -3458.94177051
  entropy T*S    EENTRO =        -0.00000000
  eigenvalues    EBANDS =      -101.69974610
  atomic energy  EATOM  =      1750.64560241
  Solvation  Ediel_sol  =         0.00000000
  ---------------------------------------------------
  free energy    TOTEN  =         2.46002861 eV

  energy without entropy =        2.46002861  energy(sigma->0) =        2.46002861
  exchange ACFDT corr.  =         0.00000000  see jH, gK, PRB 81, 115126


--------------------------------------------------------------------------------------------------------




--------------------------------------- Iteration      1(  30)  ---------------------------------------


    POTLOK:  cpu time      0.0177: real time      0.0388
    SETDIJ:  cpu time      0.9465: real time      0.9489
     EDDAV:  cpu time      0.0559: real time      0.0561
       DOS:  cpu time      0.0001: real time      0.0001
    CHARGE:  cpu time      0.0025: real time      0.0025
    MIXING:  cpu time      0.0001: real time      0.0001
    --------------------------------------------
      LOOP:  cpu time      1.0229: real time      1.0465

 eigenvalue-minimisations  :   156
 total energy-change (2. order) :-0.8646412E-03  (-0.5088420E-03)
 number of electron      17.9999998 magnetization       0.0000020
 augmentation part        6.6923436 magnetization       0.0044952

 Free energy of the ion-electron system (eV)
  ---------------------------------------------------
  alpha Z        PSCENC =        31.71721604
  Ewald energy   TEWEN  =     -1211.83925518
  -Hartree energ DENC   =      -564.59238595
  -exchange      EXHF   =        41.80418836
  -V(xc)+E(xc)   XCENC  =        34.84997251
  PAW double counting   =      3476.80939080    -3455.14227943
  entropy T*S    EENTRO =        -0.00000000
  eigenvalues    EBANDS =      -101.79328561
  atomic energy  EATOM  =      1750.64560241
  Solvation  Ediel_sol  =         0.00000000
  ---------------------------------------------------
  free energy    TOTEN  =         2.45916396 eV

  energy without entropy =        2.45916396  energy(sigma->0) =        2.45916396
  exchange ACFDT corr.  =         0.00000000  see jH, gK, PRB 81, 115126


[...]
    MIXING:  cpu time      0.0001: real time      0.0001
    --------------------------------------------
      LOOP:  cpu time      1.0198: real time      1.0398

 eigenvalue-minimisations  :   132
 total energy-change (2. order) :-0.1320930E-04  (-0.8341812E-05)
 number of electron      17.9999998 magnetization       0.0000000
 augmentation part        6.6914212 magnetization       0.0001620

 Free energy of the ion-electron system (eV)
  ---------------------------------------------------
  alpha Z        PSCENC =        31.71721604
  Ewald energy   TEWEN  =     -1211.83925518
  -Hartree energ DENC   =      -564.34490922
  -exchange      EXHF   =        41.80990215
  -V(xc)+E(xc)   XCENC  =        34.83653266
  PAW double counting   =      3472.69402903    -3451.07586053
  entropy T*S    EENTRO =        -0.00000000
  eigenvalues    EBANDS =      -101.98959507
  atomic energy  EATOM  =      1750.64560241
  Solvation  Ediel_sol  =         0.00000000
  ---------------------------------------------------
  free energy    TOTEN  =         2.45366230 eV

  energy without entropy =        2.45366230  energy(sigma->0) =        2.45366230
  exchange ACFDT corr.  =         0.00000000  see jH, gK, PRB 81, 115126


--------------------------------------------------------------------------------------------------------




--------------------------------------- Iteration      1(  60)  ---------------------------------------


    POTLOK:  cpu time      0.0176: real time      0.0368
    SETDIJ:  cpu time      0.9467: real time      0.9491
     EDDAV:  cpu time      0.0519: real time      0.0520
       DOS:  cpu time      0.0001: real time      0.0001
    CHARGE:  cpu time      0.0027: real time      0.0027
    MIXING:  cpu time      0.0001: real time      0.0001
    --------------------------------------------
      LOOP:  cpu time      1.0192: real time      1.0408

 eigenvalue-minimisations  :   132
 total energy-change (2. order) :-0.1130993E-04  (-0.7181499E-05)
 number of electron      17.9999998 magnetization       0.0000000
 augmentation part        6.6914192 magnetization       0.0001451

 Free energy of the ion-electron system (eV)
  ---------------------------------------------------
  alpha Z        PSCENC =        31.71721604
  Ewald energy   TEWEN  =     -1211.83925518
  -Hartree energ DENC   =      -564.34482968
  -exchange      EXHF   =        41.80990278
  -V(xc)+E(xc)   XCENC  =        34.83652815
  PAW double counting   =      3472.67874401    -3451.06064368
  entropy T*S    EENTRO =        -0.00000000
  eigenvalues    EBANDS =      -101.98961386
  atomic energy  EATOM  =      1750.64560241
  Solvation  Ediel_sol  =         0.00000000
  ---------------------------------------------------
  free energy    TOTEN  =         2.45365099 eV

  energy without entropy =        2.45365099  energy(sigma->0) =        2.45365099
  exchange ACFDT corr.  =         0.00000000  see jH, gK, PRB 81, 115126


--------------------------------------------------------------------------------------------------------




--------------------------------------- Iteration      1(  61)  ---------------------------------------


    POTLOK:  cpu time      0.0177: real time      0.0363
    SETDIJ:  cpu time      0.9465: real time      0.9488
     EDDAV:  cpu time      0.0521: real time      0.0523
       DOS:  cpu time      0.0002: real time      0.0002
    --------------------------------------------
      LOOP:  cpu time      1.0166: real time      1.0376

 eigenvalue-minimisations  :   132
 total energy-change (2. order) :-0.9771439E-05  (-0.6304040E-05)
 number of electron      17.9999998 magnetization       0.0000000
 augmentation part        6.6914192 magnetization       0.0001451

 Free energy of the ion-electron system (eV)
  ---------------------------------------------------
  alpha Z        PSCENC =        31.71721604
  Ewald energy   TEWEN  =     -1211.83925518
  -Hartree energ DENC   =      -564.34478580
  -exchange      EXHF   =        41.80990177
  -V(xc)+E(xc)   XCENC  =        34.83652309
  PAW double counting   =      3472.70522593    -3451.08717383
  entropy T*S    EENTRO =        -0.00000000
  eigenvalues    EBANDS =      -101.98961321
  atomic energy  EATOM  =      1750.64560241
  Solvation  Ediel_sol  =         0.00000000
  ---------------------------------------------------
  free energy    TOTEN  =         2.45364122 eV

  energy without entropy =        2.45364122  energy(sigma->0) =        2.45364122
  exchange ACFDT corr.  =         0.00000000  see jH, gK, PRB 81, 115126


--------------------------------------------------------------------------------------------------------




 average (electrostatic) potential at core
  the test charge radii are     1.0774  0.9587
  (the norm of the test charge is              1.0000)
       1 -89.9318       2 -76.0133
 
 
 
 E-fermi :   5.2446     XC(G=0):  -7.4176     alpha+bet :-10.8616

 Fermi energy:         5.2446354224

 spin component 1

 k-point     1 :       0.0000    0.0000    0.0000
  band No.  band energies     occupation 
      1     -11.7485      1.00000
      2     -11.7261      1.00000
      3     -11.6968      1.00000
      4     -11.6229      1.00000
      5     -11.5802      1.00000
      6      -7.0081      1.00000
      7       4.2781      1.00000
      8       4.9951      1.00000
      9       5.1145      1.00000
     10       7.7985      0.00000
     11       9.9030      0.00000
     12      10.2353      0.00000
     13      10.2816      0.00000
     14      13.9908      0.00000
     15      15.6968      0.00000
     16      15.7831      0.00000
     17      16.6598      0.00000
     18      16.7096      0.00000
     19      16.8343      0.00000
     20      18.9672      0.00000
     21      28.6531      0.00000
     22      28.9837      0.00000
     23      28.9924      0.00000
     24      30.1495      0.00000
 Fermi energy:         5.2446354224

 spin component 2

 k-point     1 :       0.0000    0.0000    0.0000
  band No.  band energies     occupation 
      1     -11.7481      1.00000
      2     -11.7265      1.00000
      3     -11.6969      1.00000
      4     -11.6230      1.00000
      5     -11.5803      1.00000
      6      -7.0080      1.00000
      7       4.2787      1.00000
      8       4.9948      1.00000
      9       5.1145      1.00000
     10       7.7987      0.00000
     11       9.9028      0.00000
     12      10.2354      0.00000
     13      10.2814      0.00000
     14      13.9907      0.00000
     15      15.6971      0.00000
     16      15.7832      0.00000
     17      16.6597      0.00000
     18      16.7090      0.00000
     19      16.8347      0.00000
     20      18.9669      0.00000
     21      28.6536      0.00000
     22      28.9827      0.00000
     23      28.9931      0.00000
     24      30.1480      0.00000


--------------------------------------------------------------------------------------------------------


 soft charge-density along one line, spin component           1
         0         1         2         3         4         5         6         7         8         9
 total charge-density along one line
 
 soft charge-density along one line, spin component           2
         0         1         2         3         4         5         6         7         8         9
 total charge-density along one line
 
 pseudopotential strength for first ion, spin component:           1
 -9.511  -0.001   0.027  -0.012  -0.008   0.563   0.000  -0.016
 -0.001  -9.509  -0.004   0.017   0.016   0.000   0.562   0.004
  0.027  -0.004  -9.478   0.001   0.008  -0.016   0.004   0.544
 -0.012   0.017   0.001  -9.492   0.012   0.009  -0.007  -0.001
 -0.008   0.016   0.008   0.012  -9.488   0.004  -0.012  -0.003
  0.563   0.000  -0.016   0.009   0.004   6.510  -0.002   0.006
  0.000   0.562   0.004  -0.007  -0.012  -0.002   6.509  -0.003
 -0.016   0.004   0.544  -0.001  -0.003   0.006  -0.003   6.516
  0.009  -0.007  -0.001   0.550  -0.006  -0.005   0.001  -0.002
  0.004  -0.012  -0.003  -0.006   0.551  -0.002   0.005  -0.003
  0.008   0.014  -0.001   0.011  -0.015  -0.003  -0.004  -0.001
  0.010   0.018  -0.002   0.014  -0.019  -0.004  -0.006  -0.002
  0.001   0.002   0.005  -0.001   0.010   0.002   0.003  -0.002
 -0.001   0.004   0.001   0.010  -0.000  -0.000  -0.006   0.003
  0.005  -0.001   0.008   0.001  -0.004  -0.006  -0.000  -0.006
  0.002   0.004   0.011  -0.002   0.021   0.004   0.006  -0.004
 -0.002   0.009   0.003   0.020  -0.001   0.000  -0.012   0.007
  0.011  -0.002   0.016   0.002  -0.009  -0.012   0.000  -0.011
 pseudopotential strength for first ion, spin component:           2
 -9.510   0.003   0.026  -0.009  -0.009   0.563  -0.005  -0.014
  0.003  -9.503  -0.004   0.019   0.012  -0.005   0.555   0.003
  0.026  -0.004  -9.478   0.002   0.013  -0.014   0.003   0.544
 -0.009   0.019   0.002  -9.498   0.017   0.006  -0.009  -0.003
 -0.009   0.012   0.013   0.017  -9.489   0.005  -0.007  -0.009
  0.563  -0.005  -0.014   0.006   0.005   6.509   0.003   0.003
 -0.005   0.555   0.003  -0.009  -0.007   0.003   6.513   0.001
 -0.014   0.003   0.544  -0.003  -0.009   0.003   0.001   6.516
  0.006  -0.009  -0.003   0.557  -0.011  -0.001   0.002   0.003
  0.005  -0.007  -0.009  -0.011   0.552   0.000   0.003   0.007
 -0.004  -0.005  -0.002  -0.016   0.017   0.006   0.010  -0.001
 -0.005  -0.007  -0.003  -0.021   0.022   0.008   0.013  -0.001
 -0.001  -0.002   0.005   0.001   0.008  -0.002  -0.003  -0.005
  0.001   0.008  -0.001   0.007   0.000   0.000  -0.001  -0.003
  0.007   0.001   0.008  -0.001  -0.005  -0.001   0.000  -0.004
 -0.003  -0.003   0.011   0.001   0.017  -0.003  -0.006  -0.009
  0.001   0.017  -0.002   0.015   0.001  -0.000  -0.003  -0.007
  0.014   0.001   0.016  -0.002  -0.010  -0.003  -0.000  -0.007
 total augmentation occupancy for first ion, spin component:           1
  1.997   0.000  -0.003   0.001   0.001   0.003   0.000   0.003   0.001  -0.003  -0.000   0.002   0.002   0.001   0.142  -0.002
  0.000   1.997   0.000  -0.002  -0.001   0.000   0.004   0.000   0.006  -0.002  -0.007   0.008  -0.003   0.144   0.001   0.001
 -0.003   0.000   1.994  -0.000  -0.001   0.003   0.000   0.006  -0.000   0.001   0.005  -0.006   0.123  -0.002   0.172  -0.063
  0.001  -0.002  -0.000   1.996  -0.002   0.001   0.006  -0.000   0.008  -0.003   0.001  -0.003  -0.003   0.207  -0.000   0.000
  0.001  -0.001  -0.001  -0.002   1.995  -0.003  -0.002   0.001  -0.003   0.011  -0.003   0.003   0.215  -0.003  -0.098  -0.109
  0.003   0.000   0.003   0.001  -0.003   0.053  -0.007   0.071  -0.010  -0.029   0.008  -0.007   0.032  -0.039   0.272  -0.004
  0.000   0.004   0.000   0.006  -0.002  -0.007   0.046  -0.000   0.065   0.020   0.015  -0.012   0.054   0.231  -0.039  -0.007
  0.003   0.000   0.006  -0.000   0.001   0.071  -0.000   0.130  -0.001   0.026  -0.006   0.004   0.257  -0.001   0.362  -0.041
  0.001   0.006  -0.000   0.008  -0.003  -0.010   0.065  -0.001   0.092   0.028  -0.010   0.008   0.076   0.326  -0.056  -0.011
 -0.003  -0.002   0.001  -0.003   0.011  -0.029   0.020   0.026   0.028   0.126   0.003  -0.002   0.354   0.108  -0.144  -0.058
 -0.000  -0.007   0.005   0.001  -0.003   0.008   0.015  -0.006  -0.010   0.003  19.451 -12.138   0.000   0.001  -0.001  -0.000
  0.002   0.008  -0.006  -0.003   0.003  -0.007  -0.012   0.004   0.008  -0.002 -12.138   7.801  -0.000   0.000  -0.001   0.000
  0.002  -0.003   0.123  -0.003   0.215   0.032   0.054   0.257   0.076   0.354   0.000  -0.000   1.308   0.299   0.177  -0.220
  0.001   0.144  -0.002   0.207  -0.003  -0.039   0.231  -0.001   0.326   0.108   0.001   0.000   0.299   1.191  -0.215  -0.042
  0.142   0.001   0.172  -0.000  -0.098   0.272  -0.039   0.362  -0.056  -0.144  -0.001  -0.001   0.177  -0.215   1.426  -0.025
 -0.002   0.001  -0.063   0.000  -0.109  -0.004  -0.007  -0.041  -0.011  -0.058  -0.000   0.000  -0.220  -0.042  -0.025   0.041
  0.000  -0.073   0.001  -0.105   0.000   0.005  -0.038   0.000  -0.053  -0.015   0.001  -0.000  -0.042  -0.204   0.031   0.006
 -0.072   0.000  -0.088   0.001   0.049  -0.043   0.005  -0.057   0.008   0.024  -0.002   0.001  -0.025   0.030  -0.237   0.003
 total augmentation occupancy for first ion, spin component:           2
  0.000  -0.000   0.000  -0.000  -0.001   0.001  -0.000   0.001  -0.001  -0.001   0.078  -0.064   0.001  -0.007   0.004   0.003
 -0.000   0.000  -0.001   0.000  -0.000  -0.000   0.001  -0.001   0.000  -0.001   0.126  -0.103   0.001  -0.005  -0.007   0.005
  0.000  -0.001   0.000  -0.001  -0.001   0.001  -0.001   0.000  -0.002  -0.002   0.005  -0.004  -0.008  -0.006   0.006   0.008
 -0.000   0.000  -0.001  -0.000   0.000  -0.001   0.000  -0.002  -0.001   0.000   0.179  -0.145  -0.007   0.004  -0.005   0.004
 -0.001  -0.000  -0.001   0.000  -0.001  -0.001  -0.001  -0.002   0.000  -0.001  -0.213   0.173  -0.005  -0.003  -0.007   0.008
  0.001  -0.000   0.001  -0.001  -0.001  -0.001  -0.000  -0.000   0.001   0.002   0.031   0.017  -0.005  -0.017   0.018   0.001
 -0.000   0.001  -0.001   0.000  -0.001  -0.000  -0.002   0.002  -0.001   0.001   0.052   0.027  -0.008  -0.004  -0.018   0.002
  0.001  -0.001   0.000  -0.002  -0.002  -0.000   0.002  -0.000   0.002   0.002   0.001   0.001  -0.026  -0.027   0.018   0.005
 -0.001   0.000  -0.002  -0.001   0.000   0.001  -0.001   0.002   0.001  -0.001   0.074   0.038  -0.017   0.002  -0.021   0.003
 -0.001  -0.001  -0.002   0.000  -0.001   0.002   0.001   0.002  -0.001   0.001  -0.087  -0.046  -0.022  -0.007  -0.023   0.004
  0.078   0.126   0.005   0.179  -0.213   0.031   0.052   0.001   0.074  -0.087   0.000  -0.000  -0.177   0.213   0.131  -0.014
 -0.064  -0.103  -0.004  -0.145   0.173   0.017   0.027   0.001   0.038  -0.046  -0.000   0.000  -0.127   0.153   0.096   0.049
  0.001   0.001  -0.008  -0.007  -0.005  -0.005  -0.008  -0.026  -0.017  -0.022  -0.177  -0.127  -0.206  -0.125  -0.076   0.037
 -0.007  -0.005  -0.006   0.004  -0.003  -0.017  -0.004  -0.027   0.002  -0.007   0.213   0.153  -0.125  -0.004  -0.176   0.022
  0.004  -0.007   0.006  -0.005  -0.007   0.018  -0.018   0.018  -0.021  -0.023   0.131   0.096  -0.076  -0.176   0.211   0.014
  0.003   0.005   0.008   0.004   0.008   0.001   0.002   0.005   0.003   0.004  -0.014   0.049   0.037   0.022   0.014  -0.007
  0.004  -0.001   0.010   0.001   0.002   0.003   0.001   0.005  -0.000   0.001   0.017  -0.059   0.022   0.001   0.032  -0.004
 -0.007   0.004  -0.005   0.008   0.008  -0.004   0.003  -0.003   0.004   0.005   0.011  -0.037   0.014   0.031  -0.038  -0.003


------------------------ aborting loop because EDIFF is reached ----------------------------------------





 total charge

# of ion       s       p       d       tot
------------------------------------------
    1        0.742   0.497  10.094  11.333
    2        0.890   1.943   0.000   2.833
--------------------------------------------------
tot          1.632   2.440  10.094  14.166



 magnetization (x)

# of ion       s       p       d       tot
------------------------------------------
    1       -0.000  -0.000   0.000  -0.000
    2       -0.000   0.000   0.000   0.000
--------------------------------------------------
tot         -0.000   0.000   0.000  -0.000
 
    CHARGE:  cpu time      0.0031: real time      0.0031
    FORLOC:  cpu time      0.0006: real time      0.0007
    FORHF :  cpu time      0.0196: real time      0.0197
    FORNL :  cpu time      0.0061: real time      0.0067
    FORCOR:  cpu time      0.9629: real time      0.9654
    FORHAR:  cpu time      0.0031: real time      0.0034
    MIXING:  cpu time      0.0002: real time      0.0002
    OFIELD:  cpu time      0.0006: real time      0.0009

 VOLUME and BASIS-vectors are now :
 -----------------------------------------------------------------------------
  energy-cutoff  :      680.00
  volume of cell :       51.45
      direct lattice vectors                 reciprocal lattice vectors
     3.615417997  0.000000000  2.087362539     0.276593191 -0.097790437  0.000000000
     1.205138999  3.408648637  2.087362538     0.000000000  0.293371393  0.000000000
     0.000000000  0.000000000  4.174725070    -0.138296596 -0.097790478  0.239536732

  length of vectors
     4.174725100  4.174724890  4.174725070     0.293371374  0.293371393  0.293371389


 FORCES acting on ions
    electron-ion (+dipol)            ewald-force                    non-local-force                 convergence-correction
 -----------------------------------------------------------------------------------------------
   0.294E-01 0.692E-03 -.161E-01   -.172E-04 0.113E-04 0.322E-06   -.532E-19 -.748E-19 0.159E-18   0.369E-01 0.347E-03 -.195E-01
   -.190E+00 -.451E-02 0.107E+00   0.172E-04 -.113E-04 -.322E-06   -.217E-18 0.229E-17 0.196E-18   -.100E-01 -.207E-03 0.539E-02
 -----------------------------------------------------------------------------------------------
   -.161E+00 -.382E-02 0.908E-01   -.290E-15 0.140E-15 0.738E-17   -.270E-18 0.222E-17 0.355E-18   0.268E-01 0.140E-03 -.141E-01
 
 
 POSITION                                       TOTAL-FORCE (eV/Angst)
 -----------------------------------------------------------------------------------
      0.00000      0.00000      0.00000         0.000000      0.000000      0.000000
      1.20514      0.85216      2.08736        -0.000000     -0.000000     -0.000000
 -----------------------------------------------------------------------------------
    total drift:                               -0.134252     -0.003683      0.076759


--------------------------------------------------------------------------------------------------------



  FREE ENERGIE OF THE ION-ELECTRON SYSTEM (eV)
  ---------------------------------------------------
  free  energy   TOTEN  =         2.45364122 eV

  energy  without entropy=        2.45364122  energy(sigma->0) =        2.45364122
 


--------------------------------------------------------------------------------------------------------


    POTLOK:  cpu time      0.9688: real time      0.9716


--------------------------------------------------------------------------------------------------------


 writing wavefunctions
     LOOP+:  cpu time     61.9017: real time     63.3412
    4ORBIT:  cpu time      0.0000: real time      0.0000



 total charge

# of ion       s       p       d       tot
------------------------------------------
    1        0.742   0.497  10.094  11.333
    2        0.890   1.943   0.000   2.833
--------------------------------------------------
tot          1.632   2.440  10.094  14.166



 magnetization (x)

# of ion       s       p       d       tot
------------------------------------------
    1       -0.000  -0.000   0.000  -0.000
    2       -0.000   0.000   0.000   0.000
--------------------------------------------------
tot         -0.000   0.000   0.000  -0.000
 

 total amount of memory used by VASP MPI-rank0    37326. kBytes
=======================================================================

   base      :      30000. kBytes
   nonl-proj :         69. kBytes
   fftplans  :        509. kBytes
   grid      :        843. kBytes
   one-center:         31. kBytes
   HF        :         64. kBytes
   nonlr-proj:       1629. kBytes
   wavefun   :         15. kBytes
   fock_wrk  :       4166. kBytes
 
  
  
 General timing and accounting informations for this job:
 ========================================================
  
                  Total CPU time used (sec):       69.936
                            User time (sec):       68.404
                          System time (sec):        1.532
                         Elapsed time (sec):       72.318
  
                   Maximum memory used (kb):      310692.
                   Average memory used (kb):          N/A
  
                          Minor page faults:        44250
                          Major page faults:            0
                 Voluntary context switches:         2478
