<?xml version="1.0" encoding="ISO-8859-1"?>
<modeling>
 <generator>
  <i name="program" type="string">vasp </i>
  <i name="version" type="string">6.4.2  </i>
  <i name="subversion" type="string">20Jul23 (build Mar 15 2024 16:31:38) complex                          parallel </i>
  <i name="platform" type="string">LinuxIFC </i>
  <i name="date" type="string">2025 03 19 </i>
  <i name="time" type="string">14:43:36 </i>
 </generator>
 <incar>
  <i type="string" name="PREC">Accurate</i>
  <i type="string" name="ALGO">Fast</i>
  <i type="int" name="ISPIN">     2</i>
  <i type="int" name="NELM">   200</i>
  <i name="EDIFF">      0.00001000</i>
  <i type="int" name="NSW">     0</i>
  <i name="ENCUT">    680.00000000</i>
  <i name="ENAUG">   1360.00000000</i>
  <v name="MAGMOM">      0.60000000      0.60000000      0.60000000      0.60000000      0.60000000      0.60000000      0.60000000      0.60000000</v>
  <i type="logical" name="LREAL"> F  </i>
  <i type="int" name="ISMEAR">    -5</i>
  <i name="SIGMA">      0.20000000</i>
  <i type="int" name="LMAXMIX">     4</i>
  <i type="logical" name="LWAVE"> T  </i>
  <i type="logical" name="LCHARG"> T  </i>
  <i type="logical" name="LVTOT"> T  </i>
  <i type="int" name="LORBIT">    11</i>
  <i type="logical" name="LELF"> F  </i>
  <i type="logical" name="LASPH"> T  </i>
  <i type="logical" name="LAECHG"> T  </i>
  <i type="string" name="GGA">Ps</i>
  <i type="logical" name="LMIXTAU"> T  </i>
 </incar>
 <primitive_cell>
  <structure name="primitive_cell" >
   <crystal>
    <varray name="basis" >
     <v>       3.95685521       0.00000000       0.00000000 </v>
     <v>      -0.00000000       4.53281069       0.00000000 </v>
     <v>       0.00000000       0.00000000      11.39201851 </v>
    </varray>
    <i name="volume">    204.32354836 </i>
    <varray name="rec_basis" >
     <v>       0.25272595       0.00000000       0.00000000 </v>
     <v>       0.00000000       0.22061367       0.00000000 </v>
     <v>      -0.00000000      -0.00000000       0.08778076 </v>
    </varray>
   </crystal>
   <varray name="positions" >
    <v>       0.25000000       0.36953984       0.62163275 </v>
    <v>       0.75000000       0.63046016       0.37836725 </v>
    <v>       0.75000000       0.86953984       0.87836725 </v>
    <v>       0.25000000       0.13046016       0.12163275 </v>
    <v>       0.25000000       0.01059680       0.34749746 </v>
    <v>       0.75000000       0.98940320       0.65250254 </v>
    <v>       0.75000000       0.51059680       0.15250254 </v>
    <v>       0.25000000       0.48940320       0.84749746 </v>
   </varray>
  </structure>
  <varray name="primitive_index" >
   <v type="int" >        1 </v>
   <v type="int" >        2 </v>
   <v type="int" >        3 </v>
   <v type="int" >        4 </v>
   <v type="int" >        5 </v>
   <v type="int" >        6 </v>
   <v type="int" >        7 </v>
   <v type="int" >        8 </v>
  </varray>
 </primitive_cell>
 <kpoints>
  <generation param="Gamma">
   <v type="int" name="divisions">       6        5        2 </v>
   <v name="usershift">      0.00000000       0.00000000       0.00000000 </v>
   <v name="genvec1">      0.16666667      -0.00000000       0.00000000 </v>
   <v name="genvec2">      0.00000000       0.20000000       0.00000000 </v>
   <v name="genvec3">      0.00000000      -0.00000000       0.50000000 </v>
   <v name="shift">      0.00000000       0.00000000       0.00000000 </v>
  </generation>
  <varray name="kpointlist" >
   <v>       0.00000000       0.00000000       0.00000000 </v>
   <v>       0.16666667      -0.00000000       0.00000000 </v>
   <v>       0.33333333      -0.00000000       0.00000000 </v>
   <v>       0.50000000      -0.00000000       0.00000000 </v>
   <v>       0.00000000       0.20000000       0.00000000 </v>
   <v>       0.16666667       0.20000000       0.00000000 </v>
   <v>       0.33333333       0.20000000       0.00000000 </v>
   <v>       0.50000000       0.20000000       0.00000000 </v>
   <v>       0.00000000       0.40000000       0.00000000 </v>
   <v>       0.16666667       0.40000000       0.00000000 </v>
   <v>       0.33333333       0.40000000       0.00000000 </v>
   <v>       0.50000000       0.40000000       0.00000000 </v>
   <v>      -0.00000000       0.00000000       0.50000000 </v>
   <v>       0.16666667      -0.00000000       0.50000000 </v>
   <v>       0.33333333      -0.00000000       0.50000000 </v>
   <v>       0.50000000      -0.00000000       0.50000000 </v>
   <v>      -0.00000000       0.20000000       0.50000000 </v>
   <v>       0.16666667       0.20000000       0.50000000 </v>
   <v>       0.33333333       0.20000000       0.50000000 </v>
   <v>       0.50000000       0.20000000       0.50000000 </v>
   <v>      -0.00000000       0.40000000       0.50000000 </v>
   <v>       0.16666667       0.40000000       0.50000000 </v>
   <v>       0.33333333       0.40000000       0.50000000 </v>
   <v>       0.50000000       0.40000000       0.50000000 </v>
  </varray>
  <varray name="weights" >
   <v>       0.01666667 </v>
   <v>       0.03333333 </v>
   <v>       0.03333333 </v>
   <v>       0.01666667 </v>
   <v>       0.03333333 </v>
   <v>       0.06666667 </v>
   <v>       0.06666667 </v>
   <v>       0.03333333 </v>
   <v>       0.03333333 </v>
   <v>       0.06666667 </v>
   <v>       0.06666667 </v>
   <v>       0.03333333 </v>
   <v>       0.01666667 </v>
   <v>       0.03333333 </v>
   <v>       0.03333333 </v>
   <v>       0.01666667 </v>
   <v>       0.03333333 </v>
   <v>       0.06666667 </v>
   <v>       0.06666667 </v>
   <v>       0.03333333 </v>
   <v>       0.03333333 </v>
   <v>       0.06666667 </v>
   <v>       0.06666667 </v>
   <v>       0.03333333 </v>
  </varray>
  <varray name="tetrahedronlist"  type="int" >
   <v type="int" >        2        3        6        7       18 </v>
   <v type="int" >        2        2        3        6       18 </v>
   <v type="int" >        2        2        3       14       18 </v>
   <v type="int" >        2        3        7       18       19 </v>
   <v type="int" >        2        3       15       18       19 </v>
   <v type="int" >        2        3       14       15       18 </v>
   <v type="int" >        2        6       15       18       19 </v>
   <v type="int" >        2        6       14       15       18 </v>
   <v type="int" >        2        2        6       14       15 </v>
   <v type="int" >        2        6        7       15       19 </v>
   <v type="int" >        2        3        6        7       15 </v>
   <v type="int" >        2        2        3        6       15 </v>
   <v type="int" >        2       11       20       23       24 </v>
   <v type="int" >        2       11       19       20       23 </v>
   <v type="int" >        2        7       11       19       20 </v>
   <v type="int" >        2       11       12       20       24 </v>
   <v type="int" >        2        8       11       12       20 </v>
   <v type="int" >        2        7        8       11       20 </v>
   <v type="int" >        2        8       11       12       23 </v>
   <v type="int" >        2        7        8       11       23 </v>
   <v type="int" >        2        7        8       19       23 </v>
   <v type="int" >        2        8       12       23       24 </v>
   <v type="int" >        2        8       20       23       24 </v>
   <v type="int" >        2        8       19       20       23 </v>
   <v type="int" >        2       11       11       12       24 </v>
   <v type="int" >        2       11       12       12       24 </v>
   <v type="int" >        2       11       12       24       24 </v>
   <v type="int" >        2       11       11       23       24 </v>
   <v type="int" >        2       11       23       23       24 </v>
   <v type="int" >        2       11       23       24       24 </v>
   <v type="int" >        2       12       23       23       24 </v>
   <v type="int" >        2       12       23       24       24 </v>
   <v type="int" >        2       12       12       23       24 </v>
   <v type="int" >        2       11       12       23       23 </v>
   <v type="int" >        2       11       11       12       23 </v>
   <v type="int" >        2       11       12       12       23 </v>
   <v type="int" >        2        7       18       19       22 </v>
   <v type="int" >        2        7       19       22       23 </v>
   <v type="int" >        2        7       11       22       23 </v>
   <v type="int" >        2        6        7       18       22 </v>
   <v type="int" >        2        6        7       10       22 </v>
   <v type="int" >        2        7       10       11       22 </v>
   <v type="int" >        2        6        7       10       19 </v>
   <v type="int" >        2        7       10       11       19 </v>
   <v type="int" >        2       10       11       19       23 </v>
   <v type="int" >        2        6       10       18       19 </v>
   <v type="int" >        2       10       18       19       22 </v>
   <v type="int" >        2       10       19       22       23 </v>
   <v type="int" >        2        1        2        5       14 </v>
   <v type="int" >        2        2        5        6       14 </v>
   <v type="int" >        2        5        6       14       18 </v>
   <v type="int" >        2        1        5       13       14 </v>
   <v type="int" >        2        5       13       14       17 </v>
   <v type="int" >        2        5       14       17       18 </v>
   <v type="int" >        2        2       13       14       17 </v>
   <v type="int" >        2        2       14       17       18 </v>
   <v type="int" >        2        2        6       17       18 </v>
   <v type="int" >        2        1        2       13       17 </v>
   <v type="int" >        2        1        2        5       17 </v>
   <v type="int" >        2        2        5        6       17 </v>
   <v type="int" >        2        1        5        6       18 </v>
   <v type="int" >        2        1        2        6       18 </v>
   <v type="int" >        2        1        2       14       18 </v>
   <v type="int" >        2        1        5       17       18 </v>
   <v type="int" >        2        1       13       17       18 </v>
   <v type="int" >        2        1       13       14       18 </v>
   <v type="int" >        2        6       13       17       18 </v>
   <v type="int" >        2        6       13       14       18 </v>
   <v type="int" >        2        2        6       13       14 </v>
   <v type="int" >        2        5        6       13       17 </v>
   <v type="int" >        2        1        5        6       13 </v>
   <v type="int" >        2        1        2        6       13 </v>
   <v type="int" >        2        9       18       21       22 </v>
   <v type="int" >        2        9       17       18       21 </v>
   <v type="int" >        2        5        9       17       18 </v>
   <v type="int" >        2        9       10       18       22 </v>
   <v type="int" >        2        6        9       10       18 </v>
   <v type="int" >        2        5        6        9       18 </v>
   <v type="int" >        2        6        9       10       21 </v>
   <v type="int" >        2        5        6        9       21 </v>
   <v type="int" >        2        5        6       17       21 </v>
   <v type="int" >        2        6       10       21       22 </v>
   <v type="int" >        2        6       18       21       22 </v>
   <v type="int" >        2        6       17       18       21 </v>
   <v type="int" >        2       10       11       11       22 </v>
   <v type="int" >        2       10       10       11       22 </v>
   <v type="int" >        2       10       11       22       22 </v>
   <v type="int" >        2       11       11       22       23 </v>
   <v type="int" >        2       11       22       23       23 </v>
   <v type="int" >        2       11       22       22       23 </v>
   <v type="int" >        2       10       22       23       23 </v>
   <v type="int" >        2       10       22       22       23 </v>
   <v type="int" >        2       10       10       22       23 </v>
   <v type="int" >        2       10       11       23       23 </v>
   <v type="int" >        2       10       11       11       23 </v>
   <v type="int" >        2       10       10       11       23 </v>
   <v type="int" >        2        7       19       20       24 </v>
   <v type="int" >        2        7       19       23       24 </v>
   <v type="int" >        2        7       11       23       24 </v>
   <v type="int" >        2        7        8       20       24 </v>
   <v type="int" >        2        7        8       12       24 </v>
   <v type="int" >        2        7       11       12       24 </v>
   <v type="int" >        2        7        8       12       19 </v>
   <v type="int" >        2        7       11       12       19 </v>
   <v type="int" >        2       11       12       19       23 </v>
   <v type="int" >        2        8       12       19       20 </v>
   <v type="int" >        2       12       19       20       24 </v>
   <v type="int" >        2       12       19       23       24 </v>
   <v type="int" >        2        3        4        7       16 </v>
   <v type="int" >        2        4        7        8       16 </v>
   <v type="int" >        2        7        8       16       20 </v>
   <v type="int" >        2        3        7       15       16 </v>
   <v type="int" >        2        7       15       16       19 </v>
   <v type="int" >        2        7       16       19       20 </v>
   <v type="int" >        2        4       15       16       19 </v>
   <v type="int" >        2        4       16       19       20 </v>
   <v type="int" >        2        4        8       19       20 </v>
   <v type="int" >        2        3        4       15       19 </v>
   <v type="int" >        2        3        4        7       19 </v>
   <v type="int" >        2        4        7        8       19 </v>
   <v type="int" >        2        7       14       18       19 </v>
   <v type="int" >        2        7       14       15       19 </v>
   <v type="int" >        2        3        7       14       15 </v>
   <v type="int" >        2        6        7       14       18 </v>
   <v type="int" >        2        2        6        7       14 </v>
   <v type="int" >        2        2        3        7       14 </v>
   <v type="int" >        2        2        6        7       19 </v>
   <v type="int" >        2        2        3        7       19 </v>
   <v type="int" >        2        2        3       15       19 </v>
   <v type="int" >        2        2        6       18       19 </v>
   <v type="int" >        2        2       14       18       19 </v>
   <v type="int" >        2        2       14       15       19 </v>
   <v type="int" >        2        5        9       10       22 </v>
   <v type="int" >        2        5        6       10       22 </v>
   <v type="int" >        2        5        6       18       22 </v>
   <v type="int" >        2        5        9       21       22 </v>
   <v type="int" >        2        5       17       21       22 </v>
   <v type="int" >        2        5       17       18       22 </v>
   <v type="int" >        2       10       17       21       22 </v>
   <v type="int" >        2       10       17       18       22 </v>
   <v type="int" >        2        6       10       17       18 </v>
   <v type="int" >        2        9       10       17       21 </v>
   <v type="int" >        2        5        9       10       17 </v>
   <v type="int" >        2        5        6       10       17 </v>
   <v type="int" >        2        9       21       22       22 </v>
   <v type="int" >        2        9       21       21       22 </v>
   <v type="int" >        2        9        9       21       22 </v>
   <v type="int" >        2        9       10       22       22 </v>
   <v type="int" >        2        9       10       10       22 </v>
   <v type="int" >        2        9        9       10       22 </v>
   <v type="int" >        2        9       10       10       21 </v>
   <v type="int" >        2        9        9       10       21 </v>
   <v type="int" >        2        9       10       21       21 </v>
   <v type="int" >        2       10       10       21       22 </v>
   <v type="int" >        2       10       21       22       22 </v>
   <v type="int" >        2       10       21       21       22 </v>
   <v type="int" >        2        6        7       11       18 </v>
   <v type="int" >        2        6       10       11       18 </v>
   <v type="int" >        2       10       11       18       22 </v>
   <v type="int" >        2        7       11       18       19 </v>
   <v type="int" >        2       11       18       19       23 </v>
   <v type="int" >        2       11       18       22       23 </v>
   <v type="int" >        2        6       18       19       23 </v>
   <v type="int" >        2        6       18       22       23 </v>
   <v type="int" >        2        6       10       22       23 </v>
   <v type="int" >        2        6        7       19       23 </v>
   <v type="int" >        2        6        7       11       23 </v>
   <v type="int" >        2        6       10       11       23 </v>
   <v type="int" >        2        3       15       16       20 </v>
   <v type="int" >        2        3       15       19       20 </v>
   <v type="int" >        2        3        7       19       20 </v>
   <v type="int" >        2        3        4       16       20 </v>
   <v type="int" >        2        3        4        8       20 </v>
   <v type="int" >        2        3        7        8       20 </v>
   <v type="int" >        2        3        4        8       15 </v>
   <v type="int" >        2        3        7        8       15 </v>
   <v type="int" >        2        7        8       15       19 </v>
   <v type="int" >        2        4        8       15       16 </v>
   <v type="int" >        2        8       15       16       20 </v>
   <v type="int" >        2        8       15       19       20 </v>
  </varray>
  <i name="volumeweight">      0.00277778 </i>
 </kpoints>
 <parameters>
  <separator name="general" >
   <i type="string" name="SYSTEM">unknown system</i>
   <i type="logical" name="LCOMPAT"> F  </i>
  </separator>
  <separator name="electronic" >
   <i type="string" name="PREC">accura</i>
   <i name="ENMAX">    680.00000000</i>
   <i name="ENAUG">   1360.00000000</i>
   <i name="EDIFF">      0.00001000</i>
   <i type="int" name="IALGO">    68</i>
   <i type="int" name="IWAVPR">    10</i>
   <i type="int" name="NBANDS">    60</i>
   <i type="int" name="NBANDSLOW">    -1</i>
   <i type="int" name="NBANDSHIGH">    -1</i>
   <i name="NELECT">     80.00000000</i>
   <i type="int" name="TURBO">     0</i>
   <i type="int" name="IRESTART">     0</i>
   <i type="int" name="NREBOOT">     0</i>
   <i type="int" name="NMIN">     0</i>
   <i name="EREF">      0.00000000</i>
   <separator name="electronic smearing" >
    <i type="int" name="ISMEAR">    -5</i>
    <i name="SIGMA">      0.20000000</i>
    <i name="KSPACING">      0.50000000</i>
    <i type="logical" name="KGAMMA"> T  </i>
    <i type="logical" name="KBLOWUP"> T  </i>
   </separator>
   <separator name="electronic projectors" >
    <i type="logical" name="LREAL"> F  </i>
    <v name="ROPT">      0.00000000      0.00000000</v>
    <i type="int" name="LMAXPAW">  -100</i>
    <i type="int" name="LMAXMIX">     4</i>
    <i type="logical" name="NLSPLINE"> F  </i>
   </separator>
   <separator name="electronic startup" >
    <i type="int" name="ISTART">     0</i>
    <i type="int" name="ICHARG">     2</i>
    <i type="int" name="INIWAV">     1</i>
   </separator>
   <separator name="electronic spin" >
    <i type="int" name="ISPIN">     2</i>
    <i type="logical" name="LNONCOLLINEAR"> F  </i>
    <v name="MAGMOM">      0.60000000      0.60000000      0.60000000      0.60000000      0.60000000      0.60000000      0.60000000      0.60000000</v>
    <i name="NUPDOWN">     -1.00000000</i>
    <i type="logical" name="LSORBIT"> F  </i>
    <v name="SAXIS">      0.00000000      0.00000000      1.00000000</v>
    <i type="logical" name="LSPIRAL"> F  </i>
    <v name="QSPIRAL">      0.00000000      0.00000000      0.00000000</v>
    <i type="logical" name="LZEROZ"> F  </i>
   </separator>
   <separator name="electronic exchange-correlation" >
    <i type="logical" name="LASPH"> T  </i>
    <i type="logical" name="LMETAGGA"> F  </i>
   </separator>
   <separator name="electronic convergence" >
    <i type="int" name="NELM">   200</i>
    <i type="int" name="NELMDL">    -5</i>
    <i type="int" name="NELMIN">     2</i>
    <i name="ENINI">    680.00000000</i>
    <separator name="electronic convergence detail" >
     <i type="logical" name="LDIAG"> T  </i>
     <i type="logical" name="LSUBROT"> F  </i>
     <i name="WEIMIN">      0.00000000</i>
     <i name="EBREAK">      0.00000004</i>
     <i name="DEPER">      0.30000000</i>
     <i type="int" name="NRMM">     4</i>
     <i name="TIME">      0.40000000</i>
    </separator>
   </separator>
   <separator name="electronic mixer" >
    <i name="AMIX">      0.40000000</i>
    <i name="BMIX">      1.00000000</i>
    <i name="AMIN">      0.10000000</i>
    <i name="AMIX_MAG">      1.60000000</i>
    <i name="BMIX_MAG">      1.00000000</i>
    <separator name="electronic mixer details" >
     <i type="int" name="IMIX">     4</i>
     <i type="logical" name="MIXFIRST"> F  </i>
     <i type="int" name="MAXMIX">   -45</i>
     <i name="WC">    100.00000000</i>
     <i type="int" name="INIMIX">     1</i>
     <i type="int" name="MIXPRE">     1</i>
     <i type="int" name="MREMOVE">     5</i>
    </separator>
   </separator>
   <separator name="electronic dipolcorrection" >
    <i type="logical" name="LDIPOL"> F  </i>
    <i type="logical" name="LMONO"> F  </i>
    <i type="int" name="IDIPOL">     0</i>
    <i name="EPSILON">      1.00000000</i>
    <v name="DIPOL">   -100.00000000   -100.00000000   -100.00000000</v>
    <i name="EFIELD">      0.00000000</i>
   </separator>
  </separator>
  <separator name="grids" >
   <i type="int" name="NGX">    36</i>
   <i type="int" name="NGY">    40</i>
   <i type="int" name="NGZ">    98</i>
   <i type="int" name="NGXF">    72</i>
   <i type="int" name="NGYF">    80</i>
   <i type="int" name="NGZF">   196</i>
   <i type="logical" name="ADDGRID"> F  </i>
  </separator>
  <separator name="ionic" >
   <i type="int" name="NSW">     0</i>
   <i type="int" name="IBRION">    -1</i>
   <i type="int" name="MDALGO">     0</i>
   <i type="int" name="ISIF">     2</i>
   <i name="PSTRESS">      0.00000000</i>
   <i name="EDIFFG">      0.00010000</i>
   <i type="int" name="NFREE">     0</i>
   <i name="POTIM">      0.50000000</i>
   <i name="SMASS">     -3.00000000</i>
   <i name="SCALEE">      1.00000000</i>
  </separator>
  <separator name="ionic md" >
   <i name="TEBEG">      0.00010000</i>
   <i name="TEEND">      0.00010000</i>
   <i type="int" name="NBLOCK">     1</i>
   <i type="int" name="KBLOCK">     1</i>
   <i type="int" name="NPACO">   256</i>
   <i name="APACO">     10.00000000</i>
  </separator>
  <separator name="symmetry" >
   <i type="int" name="ISYM">     2</i>
   <i name="SYMPREC">      0.00001000</i>
  </separator>
  <separator name="dos" >
   <i type="int" name="LORBIT">    11</i>
   <v name="RWIGS">     -1.00000000     -1.00000000</v>
   <i type="int" name="NEDOS">   301</i>
   <i name="EMIN">     10.00000000</i>
   <i name="EMAX">    -10.00000000</i>
   <i name="EFERMI">      0.00000000</i>
  </separator>
  <separator name="writing" >
   <i type="int" name="NWRITE">     2</i>
   <i type="logical" name="LWAVE"> T  </i>
   <i type="logical" name="LDOWNSAMPLE"> F  </i>
   <i type="logical" name="LCHARG"> T  </i>
   <i type="logical" name="LPARD"> F  </i>
   <i type="logical" name="LVTOT"> T  </i>
   <i type="logical" name="LVHAR"> F  </i>
   <i type="logical" name="LELF"> F  </i>
   <i type="logical" name="LOPTICS"> F  </i>
   <v name="STM">      0.00000000      0.00000000      0.00000000      0.00000000      0.00000000      0.00000000      0.00000000</v>
  </separator>
  <separator name="performance" >
   <i type="int" name="NPAR">    12</i>
   <i type="int" name="NSIM">     4</i>
   <i type="int" name="NBLK">    -1</i>
   <i type="logical" name="LPLANE"> T  </i>
   <i type="logical" name="LSCALAPACK"> T  </i>
   <i type="logical" name="LSCAAWARE"> F  </i>
   <i type="logical" name="LSCALU"> F  </i>
   <i type="logical" name="LASYNC"> F  </i>
   <i type="logical" name="LORBITALREAL"> F  </i>
  </separator>
  <separator name="miscellaneous" >
   <i type="int" name="IDIOT">     3</i>
   <i type="int" name="PHON_NSTRUCT">    -1</i>
   <i type="logical" name="LMUSIC"> F  </i>
   <v name="POMASS">    118.71000000     32.06600000</v>
   <v name="DARWINR">      0.00000000      0.00000000</v>
   <v name="DARWINV">      1.00000000      1.00000000</v>
   <i type="logical" name="LCORR"> T  </i>
  </separator>
  <i type="logical" name="GGA_COMPAT"> T  </i>
  <i type="logical" name="LBERRY"> F  </i>
  <i type="int" name="ICORELEVEL">     0</i>
  <i type="logical" name="LDAU"> F  </i>
  <i type="int" name="I_CONSTRAINED_M">     0</i>
  <separator name="electronic exchange-correlation" >
   <i type="string" name="GGA">PS</i>
   <i type="int" name="VOSKOWN">     0</i>
   <i type="logical" name="LHFCALC"> F  </i>
   <i type="string" name="PRECFOCK"></i>
   <i type="logical" name="LSYMGRAD"> F  </i>
   <i type="logical" name="LHFONE"> F  </i>
   <i type="logical" name="LRHFCALC"> F  </i>
   <i type="logical" name="LTHOMAS"> F  </i>
   <i type="logical" name="LMODELHF"> F  </i>
   <i type="logical" name="LFOCKACE"> F  </i>
   <i name="ENCUT4O">     -1.00000000</i>
   <i type="int" name="EXXOEP">     0</i>
   <i type="int" name="FOURORBIT">     0</i>
   <i name="AEXX">      0.00000000</i>
   <i name="HFALPHA">      0.00000000</i>
   <i name="MCALPHA">      0.00000000</i>
   <i name="ALDAX">      1.00000000</i>
   <i name="AGGAX">      1.00000000</i>
   <i name="ALDAC">      1.00000000</i>
   <i name="AGGAC">      1.00000000</i>
   <i type="int" name="NKREDX">     1</i>
   <i type="int" name="NKREDY">     1</i>
   <i type="int" name="NKREDZ">     1</i>
   <i type="logical" name="SHIFTRED"> F  </i>
   <i type="logical" name="ODDONLY"> F  </i>
   <i type="logical" name="EVENONLY"> F  </i>
   <i type="int" name="LMAXFOCK">     0</i>
   <i type="int" name="NMAXFOCKAE">     0</i>
   <i type="logical" name="LFOCKAEDFT"> F  </i>
   <i name="HFSCREEN">      0.00000000</i>
   <i name="HFSCREENC">      0.00000000</i>
   <i type="int" name="NBANDSGWLOW">     0</i>
  </separator>
  <separator name="vdW DFT" >
   <i type="logical" name="LUSE_VDW"> F  </i>
   <i type="int" name="IVDW_NL">     1</i>
   <i type="logical" name="LSPIN_VDW"> F  </i>
   <i name="Zab_VDW">     -0.84910000</i>
   <i name="PARAM1">      0.12340000</i>
   <i name="PARAM2">      1.00000000</i>
   <i name="PARAM3">      0.00000000</i>
  </separator>
  <separator name="model GW" >
   <i type="int" name="MODEL_GW">     0</i>
   <i name="MODEL_EPS0">     15.32426613</i>
   <i name="MODEL_ALPHA">      1.00000000</i>
  </separator>
  <separator name="linear response parameters" >
   <i type="logical" name="LEPSILON"> F  </i>
   <i type="logical" name="LRPA"> F  </i>
   <i type="logical" name="LNABLA"> F  </i>
   <i type="logical" name="LVEL"> F  </i>
   <i name="CSHIFT">      0.10000000</i>
   <i name="OMEGAMAX">     -1.00000000</i>
   <i name="DEG_THRESHOLD">      0.00200000</i>
   <i name="RTIME">     -0.10000000</i>
   <i name="WPLASMAI">      0.00000000</i>
   <v name="DFIELD">      0.00000000      0.00000000      0.00000000</v>
   <v name="WPLASMA">      0.00000000      0.00000000      0.00000000      0.00000000      0.00000000      0.00000000      0.00000000      0.00000000      0.00000000</v>
  </separator>
  <separator name="orbital magnetization" >
   <i type="logical" name="NUCIND"> F  </i>
   <v name="MAGPOS">      0.00000000      0.00000000      0.00000000</v>
   <i type="logical" name="LNICSALL"> T  </i>
   <i type="logical" name="ORBITALMAG"> F  </i>
   <i type="logical" name="LMAGBLOCH"> F  </i>
   <i type="logical" name="LCHIMAG"> F  </i>
   <i type="logical" name="LGAUGE"> T  </i>
   <i type="int" name="MAGATOM">     0</i>
   <v name="MAGDIPOL">      0.00000000      0.00000000      0.00000000</v>
   <v name="AVECCONST">      0.00000000      0.00000000      0.00000000</v>
  </separator>
  <separator name="response functions" >
   <i type="logical" name="LALL_IN_ONE"> F  </i>
   <i type="int" name="IALL_IN_ONE">    -1</i>
   <i type="int" name="NBANDS_WAVE">    -1</i>
   <i type="logical" name="LFINITE_TEMPERATURE"> F  </i>
   <i type="logical" name="LADDER"> F  </i>
   <i type="logical" name="LRPAFORCE"> F  </i>
   <i type="logical" name="LFXC"> F  </i>
   <i type="logical" name="LHARTREE"> T  </i>
   <i type="int" name="IBSE">     0</i>
   <v type="int" name="KPOINT">    -1     0     0     0</v>
   <i type="logical" name="LTCTC"> F  </i>
   <i type="logical" name="LTCTE"> F  </i>
   <i type="logical" name="LTETE"> F  </i>
   <i type="logical" name="LTRIPLET"> F  </i>
   <i type="logical" name="LFXCEPS"> F  </i>
   <i type="logical" name="LFXHEG"> F  </i>
   <i type="int" name="NATURALO">     2</i>
   <i type="logical" name="LHOLEGF"> F  </i>
   <i type="logical" name="L2ORDER"> F  </i>
   <i type="logical" name="LDMP1"> F  </i>
   <i type="logical" name="LMP2LT"> F  </i>
   <i type="logical" name="LSMP2LT"> F  </i>
   <i type="logical" name="LGWLF"> F  </i>
   <i name="ENCUTGW">     -1.60000002</i>
   <i name="ENCUTGWSOFT">     -1.60000002</i>
   <i name="ENCUTLF">     -1.00000000</i>
   <i type="logical" name="LESF_SPLINES"> F  </i>
   <i type="int" name="LMAXMP2">    -1</i>
   <i name="SCISSOR">      0.00000000</i>
   <i type="int" name="NOMEGA">     0</i>
   <i type="int" name="NOMEGAR">     0</i>
   <i type="int" name="NBANDSGW">    -1</i>
   <i type="int" name="NBANDSO">    -1</i>
   <i type="int" name="NBANDSV">    -1</i>
   <i type="int" name="NELMGW">     1</i>
   <i type="int" name="NELMHF">     1</i>
   <i type="int" name="DIM">     3</i>
   <i type="int" name="IESPILON">     4</i>
   <i type="int" name="ANTIRES">     0</i>
   <i name="OMEGAMAX">    -30.00000000</i>
   <i name="OMEGAMIN">    -30.00000000</i>
   <i name="OMEGATL">   -200.00000000</i>
   <i type="int" name="OMEGAGRID">     0</i>
   <i name="CSHIFT">     -0.10000000</i>
   <i type="logical" name="LSELFENERGY"> F  </i>
   <i type="logical" name="LSPECTRAL"> F  </i>
   <i type="logical" name="LSPECTRALGW"> F  </i>
   <i type="logical" name="LSINGLES"> F  </i>
   <i type="logical" name="LFERMIGW"> F  </i>
   <i type="logical" name="ODDONLYGW"> F  </i>
   <i type="logical" name="EVENONLYGW"> F  </i>
   <i type="int" name="NKREDLFX">     1</i>
   <i type="int" name="NKREDLFY">     1</i>
   <i type="int" name="NKREDLFZ">     1</i>
   <i type="int" name="MAXMEM">  2800</i>
   <i type="int" name="TELESCOPE">     0</i>
   <i type="int" name="NTAUPAR">    -1</i>
   <i type="int" name="NOMEGAPAR">    -1</i>
   <i name="DAMP_NEWTON">      0.80000001</i>
   <i name="LAMBDA">      1.00000000</i>
  </separator>
  <separator name="External order field" >
   <i name="OFIELD_KAPPA">      0.00000000</i>
   <v name="OFIELD_K">      0.00000000      0.00000000      0.00000000</v>
   <i name="OFIELD_Q6_NEAR">      0.00000000</i>
   <i name="OFIELD_Q6_FAR">      0.00000000</i>
   <i name="OFIELD_A">      0.00000000</i>
  </separator>
  <separator name="optional k-points parameters" >
   <i type="int" name="KPOINTS_OPT_MODE">     1</i>
   <i type="logical" name="LKPOINTS_OPT"> F  </i>
  </separator>
 </parameters>
 <atominfo>
  <atoms>       8 </atoms>
  <types>       2 </types>
  <array name="atoms" >
   <dimension dim="1">ion</dimension>
   <field type="string">element</field>
   <field type="int">atomtype</field>
   <set>
    <rc><c>Sn</c><c>   1</c></rc>
    <rc><c>Sn</c><c>   1</c></rc>
    <rc><c>Sn</c><c>   1</c></rc>
    <rc><c>Sn</c><c>   1</c></rc>
    <rc><c>S </c><c>   2</c></rc>
    <rc><c>S </c><c>   2</c></rc>
    <rc><c>S </c><c>   2</c></rc>
    <rc><c>S </c><c>   2</c></rc>
   </set>
  </array>
  <array name="atomtypes" >
   <dimension dim="1">type</dimension>
   <field type="int">atomspertype</field>
   <field type="string">element</field>
   <field>mass</field>
   <field>valence</field>
   <field type="string">pseudopotential</field>
   <set>
    <rc><c>   4</c><c>Sn</c><c>    118.71000000</c><c>     14.00000000</c><c>  PAW_PBE Sn_d 06Sep2000                </c></rc>
    <rc><c>   4</c><c>S </c><c>     32.06600000</c><c>      6.00000000</c><c>  PAW_PBE S 06Sep2000                   </c></rc>
   </set>
  </array>
 </atominfo>
 <structure name="initialpos" >
  <crystal>
   <varray name="basis" >
    <v>       3.95685521       0.00000000       0.00000000 </v>
    <v>      -0.00000000       4.53281069       0.00000000 </v>
    <v>       0.00000000       0.00000000      11.39201851 </v>
   </varray>
   <i name="volume">    204.32354836 </i>
   <varray name="rec_basis" >
    <v>       0.25272595       0.00000000       0.00000000 </v>
    <v>       0.00000000       0.22061367       0.00000000 </v>
    <v>      -0.00000000      -0.00000000       0.08778076 </v>
   </varray>
  </crystal>
  <varray name="positions" >
   <v>       0.25000000       0.36953984       0.62163275 </v>
   <v>       0.75000000       0.63046016       0.37836725 </v>
   <v>       0.75000000       0.86953984       0.87836725 </v>
   <v>       0.25000000       0.13046016       0.12163275 </v>
   <v>       0.25000000       0.01059680       0.34749746 </v>
   <v>       0.75000000       0.98940320       0.65250254 </v>
   <v>       0.75000000       0.51059680       0.15250254 </v>
   <v>       0.25000000       0.48940320       0.84749746 </v>
  </varray>
 </structure>
 <calculation>
  <scstep>
   <time name="dav">    1.27    1.28</time>
   <time name="total">    1.75    1.76</time>
   <energy>
    <i name="alphaZ">    164.67690988 </i>
    <i name="ewald">  -6009.93810534 </i>
    <i name="hartreedc">  -2402.51146919 </i>
    <i name="XCdc">    279.79591381 </i>
    <i name="pawpsdc">   7141.40693579 </i>
    <i name="pawaedc">  -7278.34521145 </i>
    <i name="eentropy">      0.00000000 </i>
    <i name="bandstr">    339.64725899 </i>
    <i name="atom">   8674.79762248 </i>
    <i name="e_fr_energy">    909.52985498 </i>
    <i name="e_wo_entrp">    909.52985498 </i>
    <i name="e_0_energy">    909.52985498 </i>
   </energy>
  </scstep>
  <scstep>
   <time name="dav">    1.11    1.11</time>
   <time name="total">    1.14    1.15</time>
   <energy>
    <i name="e_fr_energy">    114.31665083 </i>
    <i name="e_wo_entrp">    114.31665083 </i>
    <i name="e_0_energy">    114.31665083 </i>
   </energy>
  </scstep>
  <scstep>
   <time name="dav">    1.23    1.24</time>
   <time name="total">    1.24    1.25</time>
   <energy>
    <i name="e_fr_energy">    -29.53736208 </i>
    <i name="e_wo_entrp">    -29.53736208 </i>
    <i name="e_0_energy">    -29.53736208 </i>
   </energy>
  </scstep>
  <scstep>
   <time name="dav">    1.32    1.34</time>
   <time name="total">    1.33    1.35</time>
   <energy>
    <i name="e_fr_energy">    -38.61275957 </i>
    <i name="e_wo_entrp">    -38.61275957 </i>
    <i name="e_0_energy">    -38.61275957 </i>
   </energy>
  </scstep>
  <scstep>
   <time name="dav">    1.35    1.37</time>
   <time name="total">    1.44    1.46</time>
   <energy>
    <i name="e_fr_energy">    -38.88513468 </i>
    <i name="e_wo_entrp">    -38.88513468 </i>
    <i name="e_0_energy">    -38.88513468 </i>
   </energy>
  </scstep>
  <scstep>
   <time name="diag">    0.40    0.40</time>
   <time name="diis">    0.49    0.50</time>
   <time name="orth">    0.05    0.05</time>
   <time name="total">    1.44    1.45</time>
   <energy>
    <i name="e_fr_energy">    -37.77928316 </i>
    <i name="e_wo_entrp">    -37.77928316 </i>
    <i name="e_0_energy">    -37.77928316 </i>
   </energy>
  </scstep>
  <scstep>
   <time name="diag">    0.39    0.39</time>
   <time name="diis">    0.52    0.52</time>
   <time name="orth">    0.05    0.05</time>
   <time name="total">    1.45    1.46</time>
   <energy>
    <i name="e_fr_energy">    -38.08094487 </i>
    <i name="e_wo_entrp">    -38.08094487 </i>
    <i name="e_0_energy">    -38.08094487 </i>
   </energy>
  </scstep>
  <scstep>
   <time name="diag">    0.40    0.40</time>
   <time name="diis">    0.54    0.54</time>
   <time name="orth">    0.05    0.05</time>
   <time name="total">    1.47    1.48</time>
   <energy>
    <i name="e_fr_energy">    -38.21200979 </i>
    <i name="e_wo_entrp">    -38.21200979 </i>
    <i name="e_0_energy">    -38.21200979 </i>
   </energy>
  </scstep>
  <scstep>
   <time name="diag">    0.38    0.38</time>
   <time name="diis">    0.51    0.51</time>
   <time name="orth">    0.05    0.05</time>
   <time name="total">    1.41    1.43</time>
   <energy>
    <i name="e_fr_energy">    -38.21757607 </i>
    <i name="e_wo_entrp">    -38.21757607 </i>
    <i name="e_0_energy">    -38.21757607 </i>
   </energy>
  </scstep>
  <scstep>
   <time name="diag">    0.36    0.36</time>
   <time name="diis">    0.55    0.55</time>
   <time name="orth">    0.05    0.05</time>
   <time name="total">    1.44    1.46</time>
   <energy>
    <i name="e_fr_energy">    -38.21738789 </i>
    <i name="e_wo_entrp">    -38.21738789 </i>
    <i name="e_0_energy">    -38.21738789 </i>
   </energy>
  </scstep>
  <scstep>
   <time name="diag">    0.36    0.36</time>
   <time name="diis">    0.54    0.54</time>
   <time name="orth">    0.05    0.05</time>
   <time name="total">    1.42    1.44</time>
   <energy>
    <i name="e_fr_energy">    -38.21763790 </i>
    <i name="e_wo_entrp">    -38.21763790 </i>
    <i name="e_0_energy">    -38.21763790 </i>
   </energy>
  </scstep>
  <scstep>
   <time name="diag">    0.36    0.36</time>
   <time name="diis">    0.49    0.49</time>
   <time name="orth">    0.05    0.05</time>
   <time name="total">    1.38    1.40</time>
   <energy>
    <i name="e_fr_energy">    -38.21811515 </i>
    <i name="e_wo_entrp">    -38.21811515 </i>
    <i name="e_0_energy">    -38.21811515 </i>
   </energy>
  </scstep>
  <scstep>
   <time name="diag">    0.36    0.36</time>
   <time name="diis">    0.53    0.53</time>
   <time name="orth">    0.05    0.05</time>
   <time name="total">    1.42    1.44</time>
   <energy>
    <i name="e_fr_energy">    -38.21814698 </i>
    <i name="e_wo_entrp">    -38.21814698 </i>
    <i name="e_0_energy">    -38.21814698 </i>
   </energy>
  </scstep>
  <scstep>
   <time name="diag">    0.41    0.41</time>
   <time name="diis">    0.47    0.47</time>
   <time name="orth">    0.05    0.05</time>
   <time name="total">    1.36    1.38</time>
   <energy>
    <i name="alphaZ">    164.67690988 </i>
    <i name="ewald">  -6009.93810534 </i>
    <i name="hartreedc">  -2391.58190713 </i>
    <i name="XCdc">    280.39700649 </i>
    <i name="pawpsdc">   9118.75854219 </i>
    <i name="pawaedc">  -9255.63953927 </i>
    <i name="eentropy">      0.00000000 </i>
    <i name="bandstr">   -619.68868052 </i>
    <i name="atom">   8674.79762248 </i>
    <i name="e_fr_energy">    -38.21815122 </i>
    <i name="e_wo_entrp">    -38.21815122 </i>
    <i name="e_0_energy">    -38.21815122 </i>
   </energy>
  </scstep>
  <structure>
   <crystal>
    <varray name="basis" >
     <v>       3.95685521       0.00000000       0.00000000 </v>
     <v>      -0.00000000       4.53281069       0.00000000 </v>
     <v>       0.00000000       0.00000000      11.39201851 </v>
    </varray>
    <i name="volume">    204.32354836 </i>
    <varray name="rec_basis" >
     <v>       0.25272595       0.00000000       0.00000000 </v>
     <v>       0.00000000       0.22061367       0.00000000 </v>
     <v>      -0.00000000      -0.00000000       0.08778076 </v>
    </varray>
   </crystal>
   <varray name="positions" >
    <v>       0.25000000       0.36953984       0.62163275 </v>
    <v>       0.75000000       0.63046016       0.37836725 </v>
    <v>       0.75000000       0.86953984       0.87836725 </v>
    <v>       0.25000000       0.13046016       0.12163275 </v>
    <v>       0.25000000       0.01059680       0.34749746 </v>
    <v>       0.75000000       0.98940320       0.65250254 </v>
    <v>       0.75000000       0.51059680       0.15250254 </v>
    <v>       0.25000000       0.48940320       0.84749746 </v>
   </varray>
  </structure>
  <varray name="forces" >
   <v>      -0.00000000       0.06063511      -0.07120899 </v>
   <v>       0.00000000      -0.06063511       0.07120899 </v>
   <v>      -0.00000000       0.06063511       0.07120899 </v>
   <v>       0.00000000      -0.06063511      -0.07120899 </v>
   <v>      -0.00000000       0.07668173       0.06994942 </v>
   <v>       0.00000000      -0.07668173      -0.06994942 </v>
   <v>      -0.00000000       0.07668173      -0.06994942 </v>
   <v>       0.00000000      -0.07668173       0.06994942 </v>
  </varray>
  <varray name="stress" >
   <v>     -13.26009389       0.00000000      -0.00000000 </v>
   <v>       0.00000000     -17.80974341      -0.00000000 </v>
   <v>      -0.00000000      -0.00000000     -14.29359787 </v>
  </varray>
  <energy>
   <i name="e_fr_energy">    -38.21815122 </i>
   <i name="e_wo_entrp">    -38.21815122 </i>
   <i name="e_0_energy">    -38.21815122 </i>
  </energy>
  <time name="totalsc">   24.32   24.58</time>
  <eigenvalues>
   <array>
    <dimension dim="1">band</dimension>
    <dimension dim="2">kpoint</dimension>
    <dimension dim="3">spin</dimension>
    <field>eigene</field>
    <field>occ</field>
    <set>
     <set comment="spin 1">
      <set comment="kpoint 1">
       <r>  -15.6709    1.0000 </r>
       <r>  -15.6582    1.0000 </r>
       <r>  -15.6495    1.0000 </r>
       <r>  -15.6423    1.0000 </r>
       <r>  -15.6385    1.0000 </r>
       <r>  -15.6351    1.0000 </r>
       <r>  -15.6330    1.0000 </r>
       <r>  -15.6292    1.0000 </r>
       <r>  -15.6182    1.0000 </r>
       <r>  -15.6180    1.0000 </r>
       <r>  -15.6082    1.0000 </r>
       <r>  -15.6017    1.0000 </r>
       <r>  -15.5990    1.0000 </r>
       <r>  -15.5974    1.0000 </r>
       <r>  -15.5784    1.0000 </r>
       <r>  -15.5742    1.0000 </r>
       <r>  -15.5667    1.0000 </r>
       <r>  -15.5662    1.0000 </r>
       <r>  -15.5619    1.0000 </r>
       <r>  -15.5555    1.0000 </r>
       <r>   -8.1970    1.0000 </r>
       <r>   -7.9441    1.0000 </r>
       <r>   -6.9474    1.0000 </r>
       <r>   -6.5664    1.0000 </r>
       <r>   -1.7854    1.0000 </r>
       <r>   -0.9368    1.0000 </r>
       <r>    0.0976    1.0000 </r>
       <r>    0.7841    1.0000 </r>
       <r>    0.8198    1.0000 </r>
       <r>    1.8252    1.0000 </r>
       <r>    2.1533    1.0000 </r>
       <r>    2.1959    1.0000 </r>
       <r>    2.2043    1.0000 </r>
       <r>    2.5102    1.0000 </r>
       <r>    3.2919    1.0000 </r>
       <r>    3.3965    1.0000 </r>
       <r>    3.6813    1.0000 </r>
       <r>    4.4111    1.0000 </r>
       <r>    4.6364    1.0000 </r>
       <r>    5.1475    1.0000 </r>
       <r>    6.5254    0.0000 </r>
       <r>    8.0758    0.0000 </r>
       <r>    8.1979    0.0000 </r>
       <r>    8.2756    0.0000 </r>
       <r>    8.5917    0.0000 </r>
       <r>    9.1283    0.0000 </r>
       <r>    9.1857    0.0000 </r>
       <r>   10.2206    0.0000 </r>
       <r>   10.4813    0.0000 </r>
       <r>   10.8641    0.0000 </r>
       <r>   10.8651    0.0000 </r>
       <r>   11.4479    0.0000 </r>
       <r>   11.6877    0.0000 </r>
       <r>   12.2401    0.0000 </r>
       <r>   12.5451    0.0000 </r>
       <r>   12.8300    0.0000 </r>
       <r>   13.0128    0.0000 </r>
       <r>   13.7671    0.0000 </r>
       <r>   13.8760    0.0000 </r>
       <r>   14.0708    0.0000 </r>
      </set>
      <set comment="kpoint 2">
       <r>  -15.6634    1.0000 </r>
       <r>  -15.6544    1.0000 </r>
       <r>  -15.6432    1.0000 </r>
       <r>  -15.6421    1.0000 </r>
       <r>  -15.6400    1.0000 </r>
       <r>  -15.6359    1.0000 </r>
       <r>  -15.6355    1.0000 </r>
       <r>  -15.6329    1.0000 </r>
       <r>  -15.6161    1.0000 </r>
       <r>  -15.6158    1.0000 </r>
       <r>  -15.6086    1.0000 </r>
       <r>  -15.6048    1.0000 </r>
       <r>  -15.5997    1.0000 </r>
       <r>  -15.5966    1.0000 </r>
       <r>  -15.5806    1.0000 </r>
       <r>  -15.5720    1.0000 </r>
       <r>  -15.5710    1.0000 </r>
       <r>  -15.5643    1.0000 </r>
       <r>  -15.5605    1.0000 </r>
       <r>  -15.5555    1.0000 </r>
       <r>   -8.0233    1.0000 </r>
       <r>   -7.7852    1.0000 </r>
       <r>   -6.8668    1.0000 </r>
       <r>   -6.5386    1.0000 </r>
       <r>   -1.9373    1.0000 </r>
       <r>   -1.1981    1.0000 </r>
       <r>   -0.0160    1.0000 </r>
       <r>    0.1214    1.0000 </r>
       <r>    0.7481    1.0000 </r>
       <r>    1.9265    1.0000 </r>
       <r>    2.0262    1.0000 </r>
       <r>    2.2887    1.0000 </r>
       <r>    2.2969    1.0000 </r>
       <r>    2.4943    1.0000 </r>
       <r>    3.3530    1.0000 </r>
       <r>    3.4310    1.0000 </r>
       <r>    3.5637    1.0000 </r>
       <r>    4.6378    1.0000 </r>
       <r>    4.8183    1.0000 </r>
       <r>    5.0195    1.0000 </r>
       <r>    6.7345    0.0000 </r>
       <r>    7.4703    0.0000 </r>
       <r>    8.3194    0.0000 </r>
       <r>    8.4196    0.0000 </r>
       <r>    8.7501    0.0000 </r>
       <r>    8.7515    0.0000 </r>
       <r>    9.3345    0.0000 </r>
       <r>    9.4447    0.0000 </r>
       <r>    9.5553    0.0000 </r>
       <r>   10.9501    0.0000 </r>
       <r>   10.9719    0.0000 </r>
       <r>   11.0225    0.0000 </r>
       <r>   11.4523    0.0000 </r>
       <r>   11.7501    0.0000 </r>
       <r>   11.9772    0.0000 </r>
       <r>   12.1471    0.0000 </r>
       <r>   12.2635    0.0000 </r>
       <r>   13.6625    0.0000 </r>
       <r>   14.3111    0.0000 </r>
       <r>   14.5855    0.0000 </r>
      </set>
      <set comment="kpoint 3">
       <r>  -15.6568    1.0000 </r>
       <r>  -15.6548    1.0000 </r>
       <r>  -15.6520    1.0000 </r>
       <r>  -15.6518    1.0000 </r>
       <r>  -15.6339    1.0000 </r>
       <r>  -15.6285    1.0000 </r>
       <r>  -15.6268    1.0000 </r>
       <r>  -15.6258    1.0000 </r>
       <r>  -15.6147    1.0000 </r>
       <r>  -15.6140    1.0000 </r>
       <r>  -15.6107    1.0000 </r>
       <r>  -15.6032    1.0000 </r>
       <r>  -15.6024    1.0000 </r>
       <r>  -15.5941    1.0000 </r>
       <r>  -15.5866    1.0000 </r>
       <r>  -15.5842    1.0000 </r>
       <r>  -15.5641    1.0000 </r>
       <r>  -15.5586    1.0000 </r>
       <r>  -15.5574    1.0000 </r>
       <r>  -15.5550    1.0000 </r>
       <r>   -7.5528    1.0000 </r>
       <r>   -7.3701    1.0000 </r>
       <r>   -6.7552    1.0000 </r>
       <r>   -6.5932    1.0000 </r>
       <r>   -2.2283    1.0000 </r>
       <r>   -1.6432    1.0000 </r>
       <r>   -1.1416    1.0000 </r>
       <r>   -0.7784    1.0000 </r>
       <r>    1.1947    1.0000 </r>
       <r>    1.9989    1.0000 </r>
       <r>    2.2675    1.0000 </r>
       <r>    2.6033    1.0000 </r>
       <r>    2.6104    1.0000 </r>
       <r>    2.7419    1.0000 </r>
       <r>    3.2866    1.0000 </r>
       <r>    3.5145    1.0000 </r>
       <r>    3.8565    1.0000 </r>
       <r>    4.5360    1.0000 </r>
       <r>    4.5885    1.0000 </r>
       <r>    5.1022    1.0000 </r>
       <r>    6.2470    0.0000 </r>
       <r>    7.2177    0.0000 </r>
       <r>    7.2865    0.0000 </r>
       <r>    7.4809    0.0000 </r>
       <r>    7.9302    0.0000 </r>
       <r>    8.2420    0.0000 </r>
       <r>    8.6257    0.0000 </r>
       <r>    9.0806    0.0000 </r>
       <r>    9.5428    0.0000 </r>
       <r>    9.7891    0.0000 </r>
       <r>   10.1362    0.0000 </r>
       <r>   10.5548    0.0000 </r>
       <r>   11.9183    0.0000 </r>
       <r>   12.7599    0.0000 </r>
       <r>   12.7866    0.0000 </r>
       <r>   12.9644    0.0000 </r>
       <r>   13.3066    0.0000 </r>
       <r>   13.7628    0.0000 </r>
       <r>   13.8830    0.0000 </r>
       <r>   14.1453    0.0000 </r>
      </set>
      <set comment="kpoint 4">
       <r>  -15.6589    1.0000 </r>
       <r>  -15.6589    1.0000 </r>
       <r>  -15.6561    1.0000 </r>
       <r>  -15.6561    1.0000 </r>
       <r>  -15.6255    1.0000 </r>
       <r>  -15.6255    1.0000 </r>
       <r>  -15.6215    1.0000 </r>
       <r>  -15.6215    1.0000 </r>
       <r>  -15.6139    1.0000 </r>
       <r>  -15.6139    1.0000 </r>
       <r>  -15.6094    1.0000 </r>
       <r>  -15.6094    1.0000 </r>
       <r>  -15.5940    1.0000 </r>
       <r>  -15.5940    1.0000 </r>
       <r>  -15.5911    1.0000 </r>
       <r>  -15.5911    1.0000 </r>
       <r>  -15.5574    1.0000 </r>
       <r>  -15.5574    1.0000 </r>
       <r>  -15.5553    1.0000 </r>
       <r>  -15.5553    1.0000 </r>
       <r>   -6.9693    1.0000 </r>
       <r>   -6.9693    1.0000 </r>
       <r>   -6.9188    1.0000 </r>
       <r>   -6.9188    1.0000 </r>
       <r>   -2.0596    1.0000 </r>
       <r>   -2.0596    1.0000 </r>
       <r>   -1.5347    1.0000 </r>
       <r>   -1.5347    1.0000 </r>
       <r>    1.8849    1.0000 </r>
       <r>    1.8849    1.0000 </r>
       <r>    2.6077    1.0000 </r>
       <r>    2.6077    1.0000 </r>
       <r>    2.9248    1.0000 </r>
       <r>    2.9248    1.0000 </r>
       <r>    3.3618    1.0000 </r>
       <r>    3.3618    1.0000 </r>
       <r>    4.3077    1.0000 </r>
       <r>    4.3077    1.0000 </r>
       <r>    4.4132    1.0000 </r>
       <r>    4.4132    1.0000 </r>
       <r>    6.7675    0.0000 </r>
       <r>    6.7675    0.0000 </r>
       <r>    6.9010    0.0000 </r>
       <r>    6.9010    0.0000 </r>
       <r>    7.7792    0.0000 </r>
       <r>    7.7792    0.0000 </r>
       <r>    8.4196    0.0000 </r>
       <r>    8.4196    0.0000 </r>
       <r>    9.0769    0.0000 </r>
       <r>    9.0769    0.0000 </r>
       <r>   10.1610    0.0000 </r>
       <r>   10.1610    0.0000 </r>
       <r>   12.7158    0.0000 </r>
       <r>   12.7158    0.0000 </r>
       <r>   12.9359    0.0000 </r>
       <r>   12.9359    0.0000 </r>
       <r>   14.4294    0.0000 </r>
       <r>   14.4294    0.0000 </r>
       <r>   14.8503    0.0000 </r>
       <r>   14.8504    0.0000 </r>
      </set>
      <set comment="kpoint 5">
       <r>  -15.6682    1.0000 </r>
       <r>  -15.6566    1.0000 </r>
       <r>  -15.6507    1.0000 </r>
       <r>  -15.6434    1.0000 </r>
       <r>  -15.6396    1.0000 </r>
       <r>  -15.6354    1.0000 </r>
       <r>  -15.6352    1.0000 </r>
       <r>  -15.6302    1.0000 </r>
       <r>  -15.6145    1.0000 </r>
       <r>  -15.6138    1.0000 </r>
       <r>  -15.6069    1.0000 </r>
       <r>  -15.6014    1.0000 </r>
       <r>  -15.5987    1.0000 </r>
       <r>  -15.5981    1.0000 </r>
       <r>  -15.5778    1.0000 </r>
       <r>  -15.5733    1.0000 </r>
       <r>  -15.5679    1.0000 </r>
       <r>  -15.5650    1.0000 </r>
       <r>  -15.5639    1.0000 </r>
       <r>  -15.5564    1.0000 </r>
       <r>   -8.0370    1.0000 </r>
       <r>   -7.7937    1.0000 </r>
       <r>   -6.9777    1.0000 </r>
       <r>   -6.6514    1.0000 </r>
       <r>   -2.1771    1.0000 </r>
       <r>   -1.1543    1.0000 </r>
       <r>   -0.6433    1.0000 </r>
       <r>    0.0661    1.0000 </r>
       <r>    0.8160    1.0000 </r>
       <r>    2.2196    1.0000 </r>
       <r>    2.3970    1.0000 </r>
       <r>    2.6807    1.0000 </r>
       <r>    2.7700    1.0000 </r>
       <r>    2.9698    1.0000 </r>
       <r>    3.3429    1.0000 </r>
       <r>    3.6741    1.0000 </r>
       <r>    3.9772    1.0000 </r>
       <r>    4.1639    1.0000 </r>
       <r>    4.9805    1.0000 </r>
       <r>    5.0751    1.0000 </r>
       <r>    6.8148    0.0000 </r>
       <r>    7.2184    0.0000 </r>
       <r>    8.1634    0.0000 </r>
       <r>    8.1968    0.0000 </r>
       <r>    8.3850    0.0000 </r>
       <r>    8.5593    0.0000 </r>
       <r>    9.5706    0.0000 </r>
       <r>    9.7055    0.0000 </r>
       <r>    9.7173    0.0000 </r>
       <r>   10.4896    0.0000 </r>
       <r>   10.8683    0.0000 </r>
       <r>   10.8779    0.0000 </r>
       <r>   11.7231    0.0000 </r>
       <r>   12.2620    0.0000 </r>
       <r>   12.3284    0.0000 </r>
       <r>   12.7172    0.0000 </r>
       <r>   13.0423    0.0000 </r>
       <r>   13.3273    0.0000 </r>
       <r>   14.0981    0.0000 </r>
       <r>   14.4599    0.0000 </r>
      </set>
      <set comment="kpoint 6">
       <r>  -15.6617    1.0000 </r>
       <r>  -15.6537    1.0000 </r>
       <r>  -15.6457    1.0000 </r>
       <r>  -15.6435    1.0000 </r>
       <r>  -15.6407    1.0000 </r>
       <r>  -15.6364    1.0000 </r>
       <r>  -15.6356    1.0000 </r>
       <r>  -15.6349    1.0000 </r>
       <r>  -15.6137    1.0000 </r>
       <r>  -15.6115    1.0000 </r>
       <r>  -15.6068    1.0000 </r>
       <r>  -15.6048    1.0000 </r>
       <r>  -15.6007    1.0000 </r>
       <r>  -15.5957    1.0000 </r>
       <r>  -15.5797    1.0000 </r>
       <r>  -15.5727    1.0000 </r>
       <r>  -15.5707    1.0000 </r>
       <r>  -15.5632    1.0000 </r>
       <r>  -15.5627    1.0000 </r>
       <r>  -15.5557    1.0000 </r>
       <r>   -7.8698    1.0000 </r>
       <r>   -7.6420    1.0000 </r>
       <r>   -6.8922    1.0000 </r>
       <r>   -6.6085    1.0000 </r>
       <r>   -2.1498    1.0000 </r>
       <r>   -1.2307    1.0000 </r>
       <r>   -0.6699    1.0000 </r>
       <r>   -0.1680    1.0000 </r>
       <r>    0.9248    1.0000 </r>
       <r>    1.4103    1.0000 </r>
       <r>    1.6937    1.0000 </r>
       <r>    2.5385    1.0000 </r>
       <r>    2.7985    1.0000 </r>
       <r>    3.1214    1.0000 </r>
       <r>    3.2574    1.0000 </r>
       <r>    3.3261    1.0000 </r>
       <r>    4.1705    1.0000 </r>
       <r>    4.2866    1.0000 </r>
       <r>    5.0227    1.0000 </r>
       <r>    5.1025    1.0000 </r>
       <r>    6.9620    0.0000 </r>
       <r>    7.5240    0.0000 </r>
       <r>    7.8216    0.0000 </r>
       <r>    7.8759    0.0000 </r>
       <r>    8.5286    0.0000 </r>
       <r>    8.5594    0.0000 </r>
       <r>    9.4427    0.0000 </r>
       <r>    9.4948    0.0000 </r>
       <r>    9.7752    0.0000 </r>
       <r>   10.2120    0.0000 </r>
       <r>   10.3112    0.0000 </r>
       <r>   11.3308    0.0000 </r>
       <r>   11.6003    0.0000 </r>
       <r>   12.6762    0.0000 </r>
       <r>   12.7172    0.0000 </r>
       <r>   12.9300    0.0000 </r>
       <r>   13.1257    0.0000 </r>
       <r>   13.7373    0.0000 </r>
       <r>   13.9275    0.0000 </r>
       <r>   14.4313    0.0000 </r>
      </set>
      <set comment="kpoint 7">
       <r>  -15.6604    1.0000 </r>
       <r>  -15.6557    1.0000 </r>
       <r>  -15.6548    1.0000 </r>
       <r>  -15.6532    1.0000 </r>
       <r>  -15.6346    1.0000 </r>
       <r>  -15.6282    1.0000 </r>
       <r>  -15.6278    1.0000 </r>
       <r>  -15.6262    1.0000 </r>
       <r>  -15.6131    1.0000 </r>
       <r>  -15.6106    1.0000 </r>
       <r>  -15.6103    1.0000 </r>
       <r>  -15.6024    1.0000 </r>
       <r>  -15.6009    1.0000 </r>
       <r>  -15.5941    1.0000 </r>
       <r>  -15.5850    1.0000 </r>
       <r>  -15.5829    1.0000 </r>
       <r>  -15.5644    1.0000 </r>
       <r>  -15.5597    1.0000 </r>
       <r>  -15.5576    1.0000 </r>
       <r>  -15.5539    1.0000 </r>
       <r>   -7.4248    1.0000 </r>
       <r>   -7.2542    1.0000 </r>
       <r>   -6.7560    1.0000 </r>
       <r>   -6.6087    1.0000 </r>
       <r>   -2.1328    1.0000 </r>
       <r>   -1.4960    1.0000 </r>
       <r>   -1.1233    1.0000 </r>
       <r>   -0.8979    1.0000 </r>
       <r>    1.0371    1.0000 </r>
       <r>    1.3552    1.0000 </r>
       <r>    1.4629    1.0000 </r>
       <r>    2.1221    1.0000 </r>
       <r>    2.6516    1.0000 </r>
       <r>    2.9647    1.0000 </r>
       <r>    3.0555    1.0000 </r>
       <r>    3.4572    1.0000 </r>
       <r>    3.6318    1.0000 </r>
       <r>    4.4668    1.0000 </r>
       <r>    4.5922    1.0000 </r>
       <r>    4.6404    1.0000 </r>
       <r>    6.6857    0.0000 </r>
       <r>    7.2743    0.0000 </r>
       <r>    7.3398    0.0000 </r>
       <r>    7.8385    0.0000 </r>
       <r>    8.5578    0.0000 </r>
       <r>    8.9890    0.0000 </r>
       <r>    9.2955    0.0000 </r>
       <r>    9.6523    0.0000 </r>
       <r>    9.6822    0.0000 </r>
       <r>    9.7576    0.0000 </r>
       <r>   10.7391    0.0000 </r>
       <r>   10.9380    0.0000 </r>
       <r>   11.4310    0.0000 </r>
       <r>   12.1990    0.0000 </r>
       <r>   13.1772    0.0000 </r>
       <r>   13.2488    0.0000 </r>
       <r>   13.4705    0.0000 </r>
       <r>   13.7798    0.0000 </r>
       <r>   14.1771    0.0000 </r>
       <r>   14.7133    0.0000 </r>
      </set>
      <set comment="kpoint 8">
       <r>  -15.6628    1.0000 </r>
       <r>  -15.6628    1.0000 </r>
       <r>  -15.6583    1.0000 </r>
       <r>  -15.6583    1.0000 </r>
       <r>  -15.6268    1.0000 </r>
       <r>  -15.6268    1.0000 </r>
       <r>  -15.6216    1.0000 </r>
       <r>  -15.6216    1.0000 </r>
       <r>  -15.6123    1.0000 </r>
       <r>  -15.6123    1.0000 </r>
       <r>  -15.6074    1.0000 </r>
       <r>  -15.6074    1.0000 </r>
       <r>  -15.5948    1.0000 </r>
       <r>  -15.5948    1.0000 </r>
       <r>  -15.5876    1.0000 </r>
       <r>  -15.5876    1.0000 </r>
       <r>  -15.5589    1.0000 </r>
       <r>  -15.5589    1.0000 </r>
       <r>  -15.5539    1.0000 </r>
       <r>  -15.5539    1.0000 </r>
       <r>   -6.9012    1.0000 </r>
       <r>   -6.9012    1.0000 </r>
       <r>   -6.8595    1.0000 </r>
       <r>   -6.8595    1.0000 </r>
       <r>   -1.8850    1.0000 </r>
       <r>   -1.8850    1.0000 </r>
       <r>   -1.4535    1.0000 </r>
       <r>   -1.4535    1.0000 </r>
       <r>    1.4936    1.0000 </r>
       <r>    1.4936    1.0000 </r>
       <r>    1.9437    1.0000 </r>
       <r>    1.9437    1.0000 </r>
       <r>    2.4464    1.0000 </r>
       <r>    2.4464    1.0000 </r>
       <r>    3.1754    1.0000 </r>
       <r>    3.1754    1.0000 </r>
       <r>    3.6145    1.0000 </r>
       <r>    3.6145    1.0000 </r>
       <r>    4.6696    1.0000 </r>
       <r>    4.6696    1.0000 </r>
       <r>    6.6060    0.0000 </r>
       <r>    6.6060    0.0000 </r>
       <r>    7.8140    0.0000 </r>
       <r>    7.8140    0.0000 </r>
       <r>    8.8233    0.0000 </r>
       <r>    8.8233    0.0000 </r>
       <r>    9.4592    0.0000 </r>
       <r>    9.4592    0.0000 </r>
       <r>    9.8035    0.0000 </r>
       <r>    9.8035    0.0000 </r>
       <r>   10.0703    0.0000 </r>
       <r>   10.0703    0.0000 </r>
       <r>   11.5511    0.0000 </r>
       <r>   11.5511    0.0000 </r>
       <r>   13.2840    0.0000 </r>
       <r>   13.2840    0.0000 </r>
       <r>   14.6681    0.0000 </r>
       <r>   14.6685    0.0000 </r>
       <r>   15.2414    0.0000 </r>
       <r>   15.2474    0.0000 </r>
      </set>
      <set comment="kpoint 9">
       <r>  -15.6617    1.0000 </r>
       <r>  -15.6549    1.0000 </r>
       <r>  -15.6525    1.0000 </r>
       <r>  -15.6472    1.0000 </r>
       <r>  -15.6409    1.0000 </r>
       <r>  -15.6393    1.0000 </r>
       <r>  -15.6348    1.0000 </r>
       <r>  -15.6328    1.0000 </r>
       <r>  -15.6070    1.0000 </r>
       <r>  -15.6057    1.0000 </r>
       <r>  -15.6038    1.0000 </r>
       <r>  -15.6024    1.0000 </r>
       <r>  -15.6004    1.0000 </r>
       <r>  -15.5998    1.0000 </r>
       <r>  -15.5753    1.0000 </r>
       <r>  -15.5711    1.0000 </r>
       <r>  -15.5710    1.0000 </r>
       <r>  -15.5679    1.0000 </r>
       <r>  -15.5622    1.0000 </r>
       <r>  -15.5590    1.0000 </r>
       <r>   -7.6247    1.0000 </r>
       <r>   -7.4017    1.0000 </r>
       <r>   -7.1859    1.0000 </r>
       <r>   -6.9483    1.0000 </r>
       <r>   -2.4250    1.0000 </r>
       <r>   -1.8570    1.0000 </r>
       <r>   -1.2925    1.0000 </r>
       <r>   -0.8147    1.0000 </r>
       <r>    1.3950    1.0000 </r>
       <r>    2.2762    1.0000 </r>
       <r>    2.8761    1.0000 </r>
       <r>    3.1001    1.0000 </r>
       <r>    3.2931    1.0000 </r>
       <r>    3.5087    1.0000 </r>
       <r>    3.5415    1.0000 </r>
       <r>    3.5808    1.0000 </r>
       <r>    4.0065    1.0000 </r>
       <r>    4.9239    1.0000 </r>
       <r>    5.0892    1.0000 </r>
       <r>    5.2908    1.0000 </r>
       <r>    6.7841    0.0000 </r>
       <r>    7.1263    0.0000 </r>
       <r>    7.4798    0.0000 </r>
       <r>    7.7025    0.0000 </r>
       <r>    8.0068    0.0000 </r>
       <r>    8.1398    0.0000 </r>
       <r>    8.4903    0.0000 </r>
       <r>    9.1851    0.0000 </r>
       <r>    9.2544    0.0000 </r>
       <r>    9.7294    0.0000 </r>
       <r>   10.6155    0.0000 </r>
       <r>   11.2338    0.0000 </r>
       <r>   12.4165    0.0000 </r>
       <r>   12.7338    0.0000 </r>
       <r>   13.1155    0.0000 </r>
       <r>   13.4942    0.0000 </r>
       <r>   13.5756    0.0000 </r>
       <r>   13.5759    0.0000 </r>
       <r>   14.2161    0.0000 </r>
       <r>   14.6006    0.0000 </r>
      </set>
      <set comment="kpoint 10">
       <r>  -15.6573    1.0000 </r>
       <r>  -15.6515    1.0000 </r>
       <r>  -15.6513    1.0000 </r>
       <r>  -15.6472    1.0000 </r>
       <r>  -15.6411    1.0000 </r>
       <r>  -15.6394    1.0000 </r>
       <r>  -15.6366    1.0000 </r>
       <r>  -15.6361    1.0000 </r>
       <r>  -15.6093    1.0000 </r>
       <r>  -15.6063    1.0000 </r>
       <r>  -15.6048    1.0000 </r>
       <r>  -15.6015    1.0000 </r>
       <r>  -15.6012    1.0000 </r>
       <r>  -15.5967    1.0000 </r>
       <r>  -15.5773    1.0000 </r>
       <r>  -15.5746    1.0000 </r>
       <r>  -15.5692    1.0000 </r>
       <r>  -15.5663    1.0000 </r>
       <r>  -15.5606    1.0000 </r>
       <r>  -15.5576    1.0000 </r>
       <r>   -7.4798    1.0000 </r>
       <r>   -7.2747    1.0000 </r>
       <r>   -7.0769    1.0000 </r>
       <r>   -6.8641    1.0000 </r>
       <r>   -2.2639    1.0000 </r>
       <r>   -1.7174    1.0000 </r>
       <r>   -1.2102    1.0000 </r>
       <r>   -0.7954    1.0000 </r>
       <r>    1.5115    1.0000 </r>
       <r>    1.6148    1.0000 </r>
       <r>    1.8484    1.0000 </r>
       <r>    2.4015    1.0000 </r>
       <r>    2.4996    1.0000 </r>
       <r>    2.7428    1.0000 </r>
       <r>    3.3782    1.0000 </r>
       <r>    3.6911    1.0000 </r>
       <r>    4.4392    1.0000 </r>
       <r>    4.4548    1.0000 </r>
       <r>    4.9197    1.0000 </r>
       <r>    5.0693    1.0000 </r>
       <r>    6.9932    0.0000 </r>
       <r>    7.3439    0.0000 </r>
       <r>    7.5920    0.0000 </r>
       <r>    8.1096    0.0000 </r>
       <r>    8.6730    0.0000 </r>
       <r>    8.7791    0.0000 </r>
       <r>    9.0187    0.0000 </r>
       <r>    9.4532    0.0000 </r>
       <r>    9.8526    0.0000 </r>
       <r>   10.0231    0.0000 </r>
       <r>   10.4825    0.0000 </r>
       <r>   11.0593    0.0000 </r>
       <r>   11.7458    0.0000 </r>
       <r>   12.3896    0.0000 </r>
       <r>   13.1132    0.0000 </r>
       <r>   13.2818    0.0000 </r>
       <r>   13.6749    0.0000 </r>
       <r>   14.1359    0.0000 </r>
       <r>   14.4927    0.0000 </r>
       <r>   15.1734    0.0000 </r>
      </set>
      <set comment="kpoint 11">
       <r>  -15.6640    1.0000 </r>
       <r>  -15.6619    1.0000 </r>
       <r>  -15.6565    1.0000 </r>
       <r>  -15.6561    1.0000 </r>
       <r>  -15.6341    1.0000 </r>
       <r>  -15.6310    1.0000 </r>
       <r>  -15.6278    1.0000 </r>
       <r>  -15.6270    1.0000 </r>
       <r>  -15.6105    1.0000 </r>
       <r>  -15.6101    1.0000 </r>
       <r>  -15.6051    1.0000 </r>
       <r>  -15.6020    1.0000 </r>
       <r>  -15.5970    1.0000 </r>
       <r>  -15.5947    1.0000 </r>
       <r>  -15.5820    1.0000 </r>
       <r>  -15.5810    1.0000 </r>
       <r>  -15.5643    1.0000 </r>
       <r>  -15.5626    1.0000 </r>
       <r>  -15.5556    1.0000 </r>
       <r>  -15.5540    1.0000 </r>
       <r>   -7.1197    1.0000 </r>
       <r>   -6.9779    1.0000 </r>
       <r>   -6.8476    1.0000 </r>
       <r>   -6.7200    1.0000 </r>
       <r>   -1.8892    1.0000 </r>
       <r>   -1.4667    1.0000 </r>
       <r>   -1.1959    1.0000 </r>
       <r>   -1.0016    1.0000 </r>
       <r>    0.6459    1.0000 </r>
       <r>    1.1648    1.0000 </r>
       <r>    1.2002    1.0000 </r>
       <r>    1.7793    1.0000 </r>
       <r>    1.8650    1.0000 </r>
       <r>    2.5261    1.0000 </r>
       <r>    2.5830    1.0000 </r>
       <r>    3.1975    1.0000 </r>
       <r>    3.3356    1.0000 </r>
       <r>    3.8022    1.0000 </r>
       <r>    4.4169    1.0000 </r>
       <r>    4.5301    1.0000 </r>
       <r>    6.8900    0.0000 </r>
       <r>    8.0580    0.0000 </r>
       <r>    8.5639    0.0000 </r>
       <r>    8.6884    0.0000 </r>
       <r>    9.4441    0.0000 </r>
       <r>    9.5298    0.0000 </r>
       <r>    9.8423    0.0000 </r>
       <r>   10.1639    0.0000 </r>
       <r>   10.1985    0.0000 </r>
       <r>   10.4267    0.0000 </r>
       <r>   10.9173    0.0000 </r>
       <r>   11.3066    0.0000 </r>
       <r>   11.3898    0.0000 </r>
       <r>   11.3977    0.0000 </r>
       <r>   12.8371    0.0000 </r>
       <r>   13.1648    0.0000 </r>
       <r>   14.5325    0.0000 </r>
       <r>   14.7425    0.0000 </r>
       <r>   15.0673    0.0000 </r>
       <r>   15.3084    0.0000 </r>
      </set>
      <set comment="kpoint 12">
       <r>  -15.6686    1.0000 </r>
       <r>  -15.6686    1.0000 </r>
       <r>  -15.6618    1.0000 </r>
       <r>  -15.6618    1.0000 </r>
       <r>  -15.6287    1.0000 </r>
       <r>  -15.6287    1.0000 </r>
       <r>  -15.6218    1.0000 </r>
       <r>  -15.6218    1.0000 </r>
       <r>  -15.6100    1.0000 </r>
       <r>  -15.6100    1.0000 </r>
       <r>  -15.6054    1.0000 </r>
       <r>  -15.6054    1.0000 </r>
       <r>  -15.5937    1.0000 </r>
       <r>  -15.5937    1.0000 </r>
       <r>  -15.5835    1.0000 </r>
       <r>  -15.5835    1.0000 </r>
       <r>  -15.5603    1.0000 </r>
       <r>  -15.5603    1.0000 </r>
       <r>  -15.5526    1.0000 </r>
       <r>  -15.5526    1.0000 </r>
       <r>   -6.7804    1.0000 </r>
       <r>   -6.7804    1.0000 </r>
       <r>   -6.7632    1.0000 </r>
       <r>   -6.7632    1.0000 </r>
       <r>   -1.5195    1.0000 </r>
       <r>   -1.5195    1.0000 </r>
       <r>   -1.3472    1.0000 </r>
       <r>   -1.3472    1.0000 </r>
       <r>    0.8085    1.0000 </r>
       <r>    0.8085    1.0000 </r>
       <r>    1.4271    1.0000 </r>
       <r>    1.4271    1.0000 </r>
       <r>    1.8369    1.0000 </r>
       <r>    1.8369    1.0000 </r>
       <r>    2.4224    1.0000 </r>
       <r>    2.4224    1.0000 </r>
       <r>    3.2955    1.0000 </r>
       <r>    3.2955    1.0000 </r>
       <r>    4.2552    1.0000 </r>
       <r>    4.2552    1.0000 </r>
       <r>    7.7261    0.0000 </r>
       <r>    7.7261    0.0000 </r>
       <r>    8.6418    0.0000 </r>
       <r>    8.6418    0.0000 </r>
       <r>    9.6484    0.0000 </r>
       <r>    9.6484    0.0000 </r>
       <r>    9.8536    0.0000 </r>
       <r>    9.8536    0.0000 </r>
       <r>   10.6466    0.0000 </r>
       <r>   10.6466    0.0000 </r>
       <r>   11.5516    0.0000 </r>
       <r>   11.5516    0.0000 </r>
       <r>   11.6203    0.0000 </r>
       <r>   11.6203    0.0000 </r>
       <r>   12.8381    0.0000 </r>
       <r>   12.8381    0.0000 </r>
       <r>   14.5047    0.0000 </r>
       <r>   14.5049    0.0000 </r>
       <r>   15.5158    0.0000 </r>
       <r>   15.5665    0.0000 </r>
      </set>
      <set comment="kpoint 13">
       <r>  -15.6656    1.0000 </r>
       <r>  -15.6656    1.0000 </r>
       <r>  -15.6450    1.0000 </r>
       <r>  -15.6450    1.0000 </r>
       <r>  -15.6374    1.0000 </r>
       <r>  -15.6374    1.0000 </r>
       <r>  -15.6305    1.0000 </r>
       <r>  -15.6305    1.0000 </r>
       <r>  -15.6178    1.0000 </r>
       <r>  -15.6178    1.0000 </r>
       <r>  -15.6034    1.0000 </r>
       <r>  -15.6034    1.0000 </r>
       <r>  -15.6008    1.0000 </r>
       <r>  -15.6008    1.0000 </r>
       <r>  -15.5760    1.0000 </r>
       <r>  -15.5760    1.0000 </r>
       <r>  -15.5643    1.0000 </r>
       <r>  -15.5643    1.0000 </r>
       <r>  -15.5601    1.0000 </r>
       <r>  -15.5601    1.0000 </r>
       <r>   -8.0878    1.0000 </r>
       <r>   -8.0878    1.0000 </r>
       <r>   -6.7400    1.0000 </r>
       <r>   -6.7400    1.0000 </r>
       <r>   -1.4895    1.0000 </r>
       <r>   -1.4895    1.0000 </r>
       <r>    0.6520    1.0000 </r>
       <r>    0.6520    1.0000 </r>
       <r>    1.1570    1.0000 </r>
       <r>    1.1570    1.0000 </r>
       <r>    2.3320    1.0000 </r>
       <r>    2.3320    1.0000 </r>
       <r>    2.4773    1.0000 </r>
       <r>    2.4773    1.0000 </r>
       <r>    3.3792    1.0000 </r>
       <r>    3.3792    1.0000 </r>
       <r>    3.5117    1.0000 </r>
       <r>    3.5117    1.0000 </r>
       <r>    4.9397    1.0000 </r>
       <r>    4.9397    1.0000 </r>
       <r>    7.8736    0.0000 </r>
       <r>    7.8736    0.0000 </r>
       <r>    8.0102    0.0000 </r>
       <r>    8.0102    0.0000 </r>
       <r>    9.2480    0.0000 </r>
       <r>    9.2480    0.0000 </r>
       <r>    9.4991    0.0000 </r>
       <r>    9.4991    0.0000 </r>
       <r>   10.2223    0.0000 </r>
       <r>   10.2223    0.0000 </r>
       <r>   11.2827    0.0000 </r>
       <r>   11.2827    0.0000 </r>
       <r>   11.6692    0.0000 </r>
       <r>   11.6692    0.0000 </r>
       <r>   12.8332    0.0000 </r>
       <r>   12.8340    0.0000 </r>
       <r>   13.4794    0.0000 </r>
       <r>   13.4828    0.0000 </r>
       <r>   13.6520    0.0000 </r>
       <r>   13.6846    0.0000 </r>
      </set>
      <set comment="kpoint 14">
       <r>  -15.6593    1.0000 </r>
       <r>  -15.6593    1.0000 </r>
       <r>  -15.6426    1.0000 </r>
       <r>  -15.6426    1.0000 </r>
       <r>  -15.6382    1.0000 </r>
       <r>  -15.6382    1.0000 </r>
       <r>  -15.6339    1.0000 </r>
       <r>  -15.6339    1.0000 </r>
       <r>  -15.6150    1.0000 </r>
       <r>  -15.6150    1.0000 </r>
       <r>  -15.6075    1.0000 </r>
       <r>  -15.6075    1.0000 </r>
       <r>  -15.5988    1.0000 </r>
       <r>  -15.5988    1.0000 </r>
       <r>  -15.5775    1.0000 </r>
       <r>  -15.5775    1.0000 </r>
       <r>  -15.5651    1.0000 </r>
       <r>  -15.5651    1.0000 </r>
       <r>  -15.5588    1.0000 </r>
       <r>  -15.5588    1.0000 </r>
       <r>   -7.9202    1.0000 </r>
       <r>   -7.9202    1.0000 </r>
       <r>   -6.6864    1.0000 </r>
       <r>   -6.6864    1.0000 </r>
       <r>   -1.6603    1.0000 </r>
       <r>   -1.6603    1.0000 </r>
       <r>    0.1298    1.0000 </r>
       <r>    0.1298    1.0000 </r>
       <r>    1.3164    1.0000 </r>
       <r>    1.3164    1.0000 </r>
       <r>    2.0929    1.0000 </r>
       <r>    2.0929    1.0000 </r>
       <r>    2.6855    1.0000 </r>
       <r>    2.6855    1.0000 </r>
       <r>    3.3150    1.0000 </r>
       <r>    3.3150    1.0000 </r>
       <r>    3.6749    1.0000 </r>
       <r>    3.6749    1.0000 </r>
       <r>    4.9990    1.0000 </r>
       <r>    4.9990    1.0000 </r>
       <r>    7.7647    0.0000 </r>
       <r>    7.7647    0.0000 </r>
       <r>    8.2890    0.0000 </r>
       <r>    8.2890    0.0000 </r>
       <r>    8.6201    0.0000 </r>
       <r>    8.6201    0.0000 </r>
       <r>    9.2167    0.0000 </r>
       <r>    9.2167    0.0000 </r>
       <r>   10.3492    0.0000 </r>
       <r>   10.3492    0.0000 </r>
       <r>   10.7338    0.0000 </r>
       <r>   10.7338    0.0000 </r>
       <r>   11.4947    0.0000 </r>
       <r>   11.4947    0.0000 </r>
       <r>   11.9897    0.0000 </r>
       <r>   11.9897    0.0000 </r>
       <r>   12.7315    0.0000 </r>
       <r>   12.7315    0.0000 </r>
       <r>   14.2291    0.0000 </r>
       <r>   14.2297    0.0000 </r>
      </set>
      <set comment="kpoint 15">
       <r>  -15.6562    1.0000 </r>
       <r>  -15.6562    1.0000 </r>
       <r>  -15.6515    1.0000 </r>
       <r>  -15.6515    1.0000 </r>
       <r>  -15.6317    1.0000 </r>
       <r>  -15.6317    1.0000 </r>
       <r>  -15.6263    1.0000 </r>
       <r>  -15.6263    1.0000 </r>
       <r>  -15.6120    1.0000 </r>
       <r>  -15.6120    1.0000 </r>
       <r>  -15.6105    1.0000 </r>
       <r>  -15.6105    1.0000 </r>
       <r>  -15.5965    1.0000 </r>
       <r>  -15.5965    1.0000 </r>
       <r>  -15.5856    1.0000 </r>
       <r>  -15.5856    1.0000 </r>
       <r>  -15.5613    1.0000 </r>
       <r>  -15.5613    1.0000 </r>
       <r>  -15.5561    1.0000 </r>
       <r>  -15.5561    1.0000 </r>
       <r>   -7.4723    1.0000 </r>
       <r>   -7.4723    1.0000 </r>
       <r>   -6.6626    1.0000 </r>
       <r>   -6.6626    1.0000 </r>
       <r>   -1.9814    1.0000 </r>
       <r>   -1.9814    1.0000 </r>
       <r>   -0.9643    1.0000 </r>
       <r>   -0.9643    1.0000 </r>
       <r>    1.8104    1.0000 </r>
       <r>    1.8104    1.0000 </r>
       <r>    2.1577    1.0000 </r>
       <r>    2.1577    1.0000 </r>
       <r>    3.0083    1.0000 </r>
       <r>    3.0083    1.0000 </r>
       <r>    3.2769    1.0000 </r>
       <r>    3.2769    1.0000 </r>
       <r>    3.8928    1.0000 </r>
       <r>    3.8928    1.0000 </r>
       <r>    4.8167    1.0000 </r>
       <r>    4.8167    1.0000 </r>
       <r>    6.7796    0.0000 </r>
       <r>    6.7796    0.0000 </r>
       <r>    7.7510    0.0000 </r>
       <r>    7.7510    0.0000 </r>
       <r>    8.3814    0.0000 </r>
       <r>    8.3814    0.0000 </r>
       <r>    8.8910    0.0000 </r>
       <r>    8.8910    0.0000 </r>
       <r>    9.2510    0.0000 </r>
       <r>    9.2510    0.0000 </r>
       <r>    9.9623    0.0000 </r>
       <r>    9.9623    0.0000 </r>
       <r>   12.5032    0.0000 </r>
       <r>   12.5032    0.0000 </r>
       <r>   12.7442    0.0000 </r>
       <r>   12.7442    0.0000 </r>
       <r>   13.5275    0.0000 </r>
       <r>   13.5275    0.0000 </r>
       <r>   14.5823    0.0000 </r>
       <r>   14.6045    0.0000 </r>
      </set>
      <set comment="kpoint 16">
       <r>  -15.6576    1.0000 </r>
       <r>  -15.6576    1.0000 </r>
       <r>  -15.6576    1.0000 </r>
       <r>  -15.6576    1.0000 </r>
       <r>  -15.6238    1.0000 </r>
       <r>  -15.6238    1.0000 </r>
       <r>  -15.6238    1.0000 </r>
       <r>  -15.6238    1.0000 </r>
       <r>  -15.6112    1.0000 </r>
       <r>  -15.6112    1.0000 </r>
       <r>  -15.6112    1.0000 </r>
       <r>  -15.6112    1.0000 </r>
       <r>  -15.5927    1.0000 </r>
       <r>  -15.5927    1.0000 </r>
       <r>  -15.5927    1.0000 </r>
       <r>  -15.5927    1.0000 </r>
       <r>  -15.5563    1.0000 </r>
       <r>  -15.5563    1.0000 </r>
       <r>  -15.5563    1.0000 </r>
       <r>  -15.5563    1.0000 </r>
       <r>   -6.9444    1.0000 </r>
       <r>   -6.9444    1.0000 </r>
       <r>   -6.9444    1.0000 </r>
       <r>   -6.9444    1.0000 </r>
       <r>   -1.8206    1.0000 </r>
       <r>   -1.8206    1.0000 </r>
       <r>   -1.8206    1.0000 </r>
       <r>   -1.8206    1.0000 </r>
       <r>    2.3337    1.0000 </r>
       <r>    2.3337    1.0000 </r>
       <r>    2.3337    1.0000 </r>
       <r>    2.3337    1.0000 </r>
       <r>    3.1029    1.0000 </r>
       <r>    3.1029    1.0000 </r>
       <r>    3.1029    1.0000 </r>
       <r>    3.1029    1.0000 </r>
       <r>    4.2345    1.0000 </r>
       <r>    4.2345    1.0000 </r>
       <r>    4.2345    1.0000 </r>
       <r>    4.2345    1.0000 </r>
       <r>    7.0215    0.0000 </r>
       <r>    7.0215    0.0000 </r>
       <r>    7.0215    0.0000 </r>
       <r>    7.0215    0.0000 </r>
       <r>    8.1271    0.0000 </r>
       <r>    8.1271    0.0000 </r>
       <r>    8.1271    0.0000 </r>
       <r>    8.1271    0.0000 </r>
       <r>    9.3347    0.0000 </r>
       <r>    9.3347    0.0000 </r>
       <r>    9.3347    0.0000 </r>
       <r>    9.3347    0.0000 </r>
       <r>   13.4710    0.0000 </r>
       <r>   13.4710    0.0000 </r>
       <r>   13.4710    0.0000 </r>
       <r>   13.4710    0.0000 </r>
       <r>   14.2774    0.0000 </r>
       <r>   14.2777    0.0000 </r>
       <r>   14.2782    0.0000 </r>
       <r>   14.2787    0.0000 </r>
      </set>
      <set comment="kpoint 17">
       <r>  -15.6636    1.0000 </r>
       <r>  -15.6636    1.0000 </r>
       <r>  -15.6460    1.0000 </r>
       <r>  -15.6460    1.0000 </r>
       <r>  -15.6384    1.0000 </r>
       <r>  -15.6384    1.0000 </r>
       <r>  -15.6319    1.0000 </r>
       <r>  -15.6319    1.0000 </r>
       <r>  -15.6139    1.0000 </r>
       <r>  -15.6139    1.0000 </r>
       <r>  -15.6029    1.0000 </r>
       <r>  -15.6029    1.0000 </r>
       <r>  -15.6005    1.0000 </r>
       <r>  -15.6005    1.0000 </r>
       <r>  -15.5753    1.0000 </r>
       <r>  -15.5753    1.0000 </r>
       <r>  -15.5659    1.0000 </r>
       <r>  -15.5659    1.0000 </r>
       <r>  -15.5603    1.0000 </r>
       <r>  -15.5603    1.0000 </r>
       <r>   -7.9328    1.0000 </r>
       <r>   -7.9328    1.0000 </r>
       <r>   -6.7971    1.0000 </r>
       <r>   -6.7971    1.0000 </r>
       <r>   -1.8286    1.0000 </r>
       <r>   -1.8286    1.0000 </r>
       <r>   -0.1757    1.0000 </r>
       <r>   -0.1757    1.0000 </r>
       <r>    1.5780    1.0000 </r>
       <r>    1.5780    1.0000 </r>
       <r>    2.5153    1.0000 </r>
       <r>    2.5153    1.0000 </r>
       <r>    2.8462    1.0000 </r>
       <r>    2.8462    1.0000 </r>
       <r>    3.5321    1.0000 </r>
       <r>    3.5321    1.0000 </r>
       <r>    4.1318    1.0000 </r>
       <r>    4.1318    1.0000 </r>
       <r>    4.7172    1.0000 </r>
       <r>    4.7172    1.0000 </r>
       <r>    7.5710    0.0000 </r>
       <r>    7.5710    0.0000 </r>
       <r>    8.1507    0.0000 </r>
       <r>    8.1507    0.0000 </r>
       <r>    8.8922    0.0000 </r>
       <r>    8.8922    0.0000 </r>
       <r>    8.8999    0.0000 </r>
       <r>    8.8999    0.0000 </r>
       <r>   10.3718    0.0000 </r>
       <r>   10.3718    0.0000 </r>
       <r>   10.5235    0.0000 </r>
       <r>   10.5235    0.0000 </r>
       <r>   11.7027    0.0000 </r>
       <r>   11.7027    0.0000 </r>
       <r>   12.8344    0.0000 </r>
       <r>   12.8344    0.0000 </r>
       <r>   13.5003    0.0000 </r>
       <r>   13.5004    0.0000 </r>
       <r>   13.6909    0.0000 </r>
       <r>   13.6914    0.0000 </r>
      </set>
      <set comment="kpoint 18">
       <r>  -15.6582    1.0000 </r>
       <r>  -15.6582    1.0000 </r>
       <r>  -15.6448    1.0000 </r>
       <r>  -15.6448    1.0000 </r>
       <r>  -15.6383    1.0000 </r>
       <r>  -15.6383    1.0000 </r>
       <r>  -15.6350    1.0000 </r>
       <r>  -15.6350    1.0000 </r>
       <r>  -15.6118    1.0000 </r>
       <r>  -15.6118    1.0000 </r>
       <r>  -15.6067    1.0000 </r>
       <r>  -15.6067    1.0000 </r>
       <r>  -15.5983    1.0000 </r>
[...]
        <r>  0.0008  0.0044  0.0039  0.0138  0.0004  0.0002  0.0005  0.0001  0.0000 </r>
        <r>  0.0093  0.0388  0.0193  0.0058  0.0003  0.0010  0.0031  0.0001  0.0000 </r>
        <r>  0.0012  0.0210  0.0999  0.0162  0.0000  0.0000  0.0000  0.0000  0.0000 </r>
        <r>  0.0001  0.0015  0.0185  0.0270  0.0000  0.0000  0.0000  0.0000  0.0000 </r>
        <r>  0.0008  0.0127  0.0094  0.0672  0.0000  0.0000  0.0000  0.0000  0.0000 </r>
        <r>  0.0023  0.0328  0.0061  0.0085  0.0000  0.0000  0.0000  0.0000  0.0000 </r>
       </set>
       <set comment="band 37">
        <r>  0.0259  0.0048  0.0205  0.0007  0.0003  0.0003  0.0013  0.0010  0.0000 </r>
        <r>  0.0263  0.0057  0.0225  0.0012  0.0004  0.0001  0.0003  0.0018  0.0000 </r>
        <r>  0.0119  0.0011  0.0035  0.0035  0.0004  0.0001  0.0010  0.0003  0.0000 </r>
        <r>  0.0507  0.0088  0.0316  0.0016  0.0001  0.0002  0.0013  0.0001  0.0001 </r>
        <r>  0.0002  0.0244  0.1005  0.0144  0.0000  0.0000  0.0000  0.0000  0.0000 </r>
        <r>  0.0005  0.0139  0.0196  0.0142  0.0000  0.0000  0.0000  0.0000  0.0000 </r>
        <r>  0.0003  0.0100  0.0506  0.0247  0.0000  0.0000  0.0000  0.0000  0.0000 </r>
        <r>  0.0012  0.0237  0.0405  0.0050  0.0000  0.0000  0.0000  0.0000  0.0000 </r>
       </set>
       <set comment="band 38">
        <r>  0.0083  0.0043  0.0153  0.0015  0.0003  0.0000  0.0001  0.0017  0.0000 </r>
        <r>  0.0262  0.0041  0.0180  0.0001  0.0004  0.0003  0.0014  0.0005  0.0000 </r>
        <r>  0.0462  0.0088  0.0313  0.0025  0.0001  0.0002  0.0011  0.0007  0.0001 </r>
        <r>  0.0341  0.0033  0.0136  0.0030  0.0004  0.0003  0.0014  0.0003  0.0000 </r>
        <r>  0.0003  0.0014  0.0545  0.0109  0.0000  0.0000  0.0000  0.0000  0.0000 </r>
        <r>  0.0002  0.0255  0.0942  0.0184  0.0000  0.0000  0.0000  0.0000  0.0000 </r>
        <r>  0.0012  0.0198  0.0390  0.0032  0.0000  0.0000  0.0000  0.0000  0.0000 </r>
        <r>  0.0005  0.0252  0.0236  0.0258  0.0000  0.0000  0.0000  0.0000  0.0000 </r>
       </set>
       <set comment="band 39">
        <r>  0.0277  0.0047  0.0183  0.0028  0.0004  0.0001  0.0004  0.0001  0.0000 </r>
        <r>  0.0336  0.0073  0.0247  0.0013  0.0002  0.0001  0.0012  0.0005  0.0001 </r>
        <r>  0.0524  0.0079  0.0339  0.0004  0.0001  0.0004  0.0017  0.0003  0.0000 </r>
        <r>  0.0010  0.0003  0.0012  0.0025  0.0004  0.0001  0.0005  0.0024  0.0000 </r>
        <r>  0.0005  0.0138  0.0002  0.0282  0.0000  0.0000  0.0000  0.0000  0.0000 </r>
        <r>  0.0010  0.0138  0.0854  0.0102  0.0000  0.0000  0.0000  0.0000  0.0000 </r>
        <r>  0.0006  0.0402  0.0730  0.0043  0.0000  0.0000  0.0000  0.0000  0.0000 </r>
        <r>  0.0000  0.0041  0.0525  0.0155  0.0000  0.0000  0.0000  0.0000  0.0000 </r>
       </set>
       <set comment="band 40">
        <r>  0.0529  0.0066  0.0240  0.0020  0.0001  0.0004  0.0021  0.0005  0.0001 </r>
        <r>  0.0287  0.0033  0.0130  0.0044  0.0002  0.0002  0.0010  0.0005  0.0000 </r>
        <r>  0.0043  0.0026  0.0094  0.0006  0.0006  0.0000  0.0002  0.0019  0.0000 </r>
        <r>  0.0290  0.0079  0.0317  0.0000  0.0002  0.0002  0.0007  0.0004  0.0000 </r>
        <r>  0.0011  0.0324  0.0560  0.0047  0.0000  0.0000  0.0000  0.0000  0.0000 </r>
        <r>  0.0005  0.0187  0.0120  0.0155  0.0000  0.0000  0.0000  0.0000  0.0000 </r>
        <r>  0.0001  0.0019  0.0486  0.0261  0.0000  0.0000  0.0000  0.0000  0.0000 </r>
        <r>  0.0005  0.0189  0.0946  0.0120  0.0000  0.0000  0.0000  0.0000  0.0000 </r>
       </set>
       <set comment="band 41">
        <r>  0.0144  0.0050  0.0723  0.0118  0.0004  0.0033  0.0024  0.0044  0.0000 </r>
        <r>  0.0030  0.0005  0.0193  0.0271  0.0018  0.0015  0.0005  0.0088  0.0000 </r>
        <r>  0.0041  0.0023  0.0444  0.0046  0.0001  0.0019  0.0006  0.0030  0.0000 </r>
        <r>  0.0012  0.0009  0.0671  0.0027  0.0004  0.0042  0.0002  0.0009  0.0001 </r>
        <r>  0.0118  0.0240  0.0077  0.0030  0.0000  0.0000  0.0000  0.0000  0.0000 </r>
        <r>  0.0044  0.0089  0.0162  0.0073  0.0000  0.0000  0.0000  0.0000  0.0000 </r>
        <r>  0.0049  0.0041  0.0015  0.0010  0.0000  0.0000  0.0000  0.0000  0.0000 </r>
        <r>  0.0086  0.0044  0.0312  0.0008  0.0000  0.0000  0.0000  0.0000  0.0000 </r>
       </set>
       <set comment="band 42">
        <r>  0.0038  0.0017  0.0489  0.0238  0.0019  0.0013  0.0006  0.0099  0.0000 </r>
        <r>  0.0161  0.0043  0.1168  0.0017  0.0004  0.0013  0.0026  0.0012  0.0001 </r>
        <r>  0.0000  0.0019  0.0277  0.0116  0.0004  0.0064  0.0000  0.0038  0.0001 </r>
        <r>  0.0027  0.0008  0.0097  0.0090  0.0000  0.0018  0.0005  0.0023  0.0000 </r>
        <r>  0.0030  0.0043  0.0022  0.0068  0.0000  0.0000  0.0000  0.0000  0.0000 </r>
        <r>  0.0058  0.0271  0.0065  0.0006  0.0000  0.0000  0.0000  0.0000  0.0000 </r>
        <r>  0.0154  0.0024  0.0337  0.0029  0.0000  0.0000  0.0000  0.0000  0.0000 </r>
        <r>  0.0056  0.0077  0.0142  0.0018  0.0000  0.0000  0.0000  0.0000  0.0000 </r>
       </set>
       <set comment="band 43">
        <r>  0.0024  0.0015  0.0029  0.0087  0.0001  0.0021  0.0004  0.0013  0.0000 </r>
        <r>  0.0006  0.0030  0.0272  0.0082  0.0003  0.0077  0.0001  0.0019  0.0001 </r>
        <r>  0.0169  0.0037  0.1297  0.0023  0.0003  0.0007  0.0028  0.0020  0.0001 </r>
        <r>  0.0028  0.0005  0.0432  0.0270  0.0021  0.0003  0.0004  0.0120  0.0000 </r>
        <r>  0.0064  0.0044  0.0070  0.0016  0.0000  0.0000  0.0000  0.0000  0.0000 </r>
        <r>  0.0188  0.0010  0.0312  0.0020  0.0000  0.0000  0.0000  0.0000  0.0000 </r>
        <r>  0.0042  0.0310  0.0126  0.0008  0.0000  0.0000  0.0000  0.0000  0.0000 </r>
        <r>  0.0003  0.0050  0.0059  0.0077  0.0000  0.0000  0.0000  0.0000  0.0000 </r>
       </set>
       <set comment="band 44">
        <r>  0.0021  0.0004  0.0789  0.0019  0.0003  0.0042  0.0004  0.0015  0.0001 </r>
        <r>  0.0030  0.0009  0.0398  0.0092  0.0003  0.0004  0.0005  0.0054  0.0000 </r>
        <r>  0.0016  0.0009  0.0013  0.0276  0.0019  0.0018  0.0003  0.0083  0.0000 </r>
        <r>  0.0160  0.0065  0.0831  0.0075  0.0002  0.0045  0.0026  0.0020  0.0000 </r>
        <r>  0.0085  0.0087  0.0398  0.0007  0.0000  0.0000  0.0000  0.0000  0.0000 </r>
        <r>  0.0008  0.0044  0.0026  0.0023  0.0000  0.0000  0.0000  0.0000  0.0000 </r>
        <r>  0.0052  0.0040  0.0088  0.0074  0.0000  0.0000  0.0000  0.0000  0.0000 </r>
        <r>  0.0152  0.0243  0.0054  0.0018  0.0000  0.0000  0.0000  0.0000  0.0000 </r>
       </set>
       <set comment="band 45">
        <r>  0.0012  0.0773  0.0194  0.0013  0.0002  0.0043  0.0041  0.0001  0.0004 </r>
        <r>  0.0002  0.0027  0.0008  0.0020  0.0009  0.0001  0.0001  0.0033  0.0000 </r>
        <r>  0.0003  0.0010  0.0002  0.0994  0.0112  0.0002  0.0001  0.0009  0.0000 </r>
        <r>  0.0118  0.0192  0.0072  0.0026  0.0003  0.0039  0.0013  0.0001  0.0000 </r>
        <r>  0.0032  0.0062  0.0138  0.0016  0.0000  0.0000  0.0000  0.0000  0.0000 </r>
        <r>  0.0002  0.0016  0.0011  0.0369  0.0000  0.0000  0.0000  0.0000  0.0000 </r>
        <r>  0.0000  0.0035  0.0001  0.0134  0.0000  0.0000  0.0000  0.0000  0.0000 </r>
        <r>  0.0011  0.1279  0.0178  0.0004  0.0000  0.0000  0.0000  0.0000  0.0000 </r>
       </set>
       <set comment="band 46">
        <r>  0.0050  0.0071  0.0027  0.0313  0.0043  0.0017  0.0007  0.0022  0.0000 </r>
        <r>  0.0024  0.0131  0.0023  0.0429  0.0049  0.0023  0.0030  0.0005  0.0001 </r>
        <r>  0.0055  0.0451  0.0138  0.0012  0.0004  0.0026  0.0003  0.0013  0.0002 </r>
        <r>  0.0007  0.0348  0.0089  0.0299  0.0031  0.0018  0.0016  0.0003  0.0002 </r>
        <r>  0.0004  0.0558  0.0068  0.0037  0.0000  0.0000  0.0000  0.0000  0.0000 </r>
        <r>  0.0005  0.0477  0.0001  0.0048  0.0000  0.0000  0.0000  0.0000  0.0000 </r>
        <r>  0.0021  0.0332  0.0190  0.0170  0.0000  0.0000  0.0000  0.0000  0.0000 </r>
        <r>  0.0015  0.0025  0.0070  0.0267  0.0000  0.0000  0.0000  0.0000  0.0000 </r>
       </set>
       <set comment="band 47">
        <r>  0.0015  0.0008  0.0003  0.0676  0.0069  0.0005  0.0006  0.0000  0.0000 </r>
        <r>  0.0107  0.0469  0.0153  0.0166  0.0020  0.0043  0.0000  0.0004  0.0001 </r>
        <r>  0.0005  0.0358  0.0075  0.0017  0.0002  0.0027  0.0046  0.0004  0.0002 </r>
        <r>  0.0008  0.0166  0.0045  0.0194  0.0035  0.0009  0.0004  0.0036  0.0001 </r>
        <r>  0.0002  0.0228  0.0015  0.0291  0.0000  0.0000  0.0000  0.0000  0.0000 </r>
        <r>  0.0018  0.0795  0.0244  0.0004  0.0000  0.0000  0.0000  0.0000  0.0000 </r>
        <r>  0.0018  0.0355  0.0028  0.0086  0.0000  0.0000  0.0000  0.0000  0.0000 </r>
        <r>  0.0006  0.0014  0.0042  0.0141  0.0000  0.0000  0.0000  0.0000  0.0000 </r>
       </set>
       <set comment="band 48">
        <r>  0.0058  0.0149  0.0053  0.0050  0.0012  0.0020  0.0003  0.0021  0.0000 </r>
        <r>  0.0003  0.0374  0.0093  0.0438  0.0048  0.0018  0.0026  0.0002  0.0002 </r>
        <r>  0.0073  0.0182  0.0061  0.0030  0.0008  0.0030  0.0006  0.0018  0.0000 </r>
        <r>  0.0002  0.0296  0.0070  0.0535  0.0058  0.0018  0.0022  0.0003  0.0002 </r>
        <r>  0.0007  0.0545  0.0107  0.0179  0.0000  0.0000  0.0000  0.0000  0.0000 </r>
        <r>  0.0020  0.0104  0.0073  0.0100  0.0000  0.0000  0.0000  0.0000  0.0000 </r>
        <r>  0.0005  0.0670  0.0109  0.0132  0.0000  0.0000  0.0000  0.0000  0.0000 </r>
        <r>  0.0012  0.0074  0.0038  0.0111  0.0000  0.0000  0.0000  0.0000  0.0000 </r>
       </set>
       <set comment="band 49">
        <r>  0.0011  0.0129  0.0086  0.0007  0.0010  0.0003  0.0002  0.0003  0.0001 </r>
        <r>  0.0044  0.0632  0.0023  0.0171  0.0022  0.0013  0.0027  0.0005  0.0001 </r>
        <r>  0.0053  0.0673  0.0255  0.0013  0.0002  0.0012  0.0010  0.0003  0.0003 </r>
        <r>  0.0024  0.0333  0.0012  0.0513  0.0056  0.0006  0.0012  0.0021  0.0001 </r>
        <r>  0.0010  0.0207  0.0002  0.0781  0.0000  0.0000  0.0000  0.0000  0.0000 </r>
        <r>  0.0005  0.0064  0.0088  0.0114  0.0000  0.0000  0.0000  0.0000  0.0000 </r>
        <r>  0.0024  0.0567  0.0010  0.0402  0.0000  0.0000  0.0000  0.0000  0.0000 </r>
        <r>  0.0000  0.0016  0.0033  0.0675  0.0000  0.0000  0.0000  0.0000  0.0000 </r>
       </set>
       <set comment="band 50">
        <r>  0.0053  0.0716  0.0059  0.0386  0.0039  0.0009  0.0021  0.0014  0.0002 </r>
        <r>  0.0046  0.0590  0.0206  0.0083  0.0003  0.0006  0.0010  0.0007  0.0002 </r>
        <r>  0.0027  0.0396  0.0004  0.0228  0.0036  0.0012  0.0018  0.0007  0.0001 </r>
        <r>  0.0006  0.0064  0.0107  0.0006  0.0011  0.0005  0.0001  0.0005  0.0000 </r>
        <r>  0.0003  0.0047  0.0045  0.0592  0.0000  0.0000  0.0000  0.0000  0.0000 </r>
        <r>  0.0019  0.0395  0.0004  0.0827  0.0000  0.0000  0.0000  0.0000  0.0000 </r>
        <r>  0.0002  0.0082  0.0070  0.0044  0.0000  0.0000  0.0000  0.0000  0.0000 </r>
        <r>  0.0014  0.0330  0.0013  0.0509  0.0000  0.0000  0.0000  0.0000  0.0000 </r>
       </set>
       <set comment="band 51">
        <r>  0.0039  0.0495  0.0229  0.0093  0.0020  0.0006  0.0007  0.0009  0.0002 </r>
        <r>  0.0011  0.0152  0.0023  0.0434  0.0048  0.0012  0.0006  0.0014  0.0001 </r>
        <r>  0.0038  0.0503  0.0117  0.0009  0.0008  0.0000  0.0013  0.0007  0.0001 </r>
        <r>  0.0043  0.0616  0.0008  0.0168  0.0013  0.0015  0.0024  0.0003  0.0001 </r>
        <r>  0.0024  0.0475  0.0001  0.0203  0.0000  0.0000  0.0000  0.0000  0.0000 </r>
        <r>  0.0003  0.0191  0.0039  0.0472  0.0000  0.0000  0.0000  0.0000  0.0000 </r>
        <r>  0.0012  0.0126  0.0010  0.0768  0.0000  0.0000  0.0000  0.0000  0.0000 </r>
        <r>  0.0001  0.0062  0.0083  0.0528  0.0000  0.0000  0.0000  0.0000  0.0000 </r>
       </set>
       <set comment="band 52">
        <r>  0.0029  0.0427  0.0002  0.0217  0.0020  0.0016  0.0020  0.0007  0.0001 </r>
        <r>  0.0030  0.0392  0.0125  0.0016  0.0016  0.0002  0.0007  0.0007  0.0001 </r>
        <r>  0.0013  0.0194  0.0000  0.0454  0.0044  0.0009  0.0009  0.0015  0.0000 </r>
        <r>  0.0059  0.0754  0.0249  0.0016  0.0009  0.0006  0.0013  0.0004  0.0002 </r>
        <r>  0.0003  0.0124  0.0085  0.0395  0.0000  0.0000  0.0000  0.0000  0.0000 </r>
        <r>  0.0012  0.0204  0.0002  0.0558  0.0000  0.0000  0.0000  0.0000  0.0000 </r>
        <r>  0.0001  0.0079  0.0042  0.0758  0.0000  0.0000  0.0000  0.0000  0.0000 </r>
        <r>  0.0023  0.0446  0.0004  0.0259  0.0000  0.0000  0.0000  0.0000  0.0000 </r>
       </set>
       <set comment="band 53">
        <r>  0.0004  0.0019  0.0163  0.0173  0.0010  0.0008  0.0001  0.0091  0.0000 </r>
        <r>  0.0039  0.0046  0.0098  0.0041  0.0003  0.0186  0.0154  0.0038  0.0002 </r>
        <r>  0.0006  0.0116  0.0785  0.0064  0.0001  0.0018  0.0003  0.0014  0.0001 </r>
        <r>  0.0007  0.0021  0.0057  0.0251  0.0009  0.0042  0.0038  0.0119  0.0000 </r>
        <r>  0.0000  0.0015  0.0083  0.0218  0.0000  0.0000  0.0000  0.0000  0.0000 </r>
        <r>  0.0047  0.0009  0.0233  0.0001  0.0000  0.0000  0.0000  0.0000  0.0000 </r>
        <r>  0.0006  0.0082  0.0212  0.0064  0.0000  0.0000  0.0000  0.0000  0.0000 </r>
        <r>  0.0013  0.0008  0.0028  0.0045  0.0000  0.0000  0.0000  0.0000  0.0000 </r>
       </set>
       <set comment="band 54">
        <r>  0.0017  0.0010  0.0019  0.0284  0.0005  0.0068  0.0048  0.0070  0.0001 </r>
        <r>  0.0002  0.0100  0.0753  0.0027  0.0005  0.0006  0.0009  0.0055  0.0000 </r>
        <r>  0.0036  0.0041  0.0020  0.0132  0.0001  0.0172  0.0127  0.0024  0.0002 </r>
        <r>  0.0000  0.0050  0.0312  0.0087  0.0011  0.0008  0.0010  0.0114  0.0000 </r>
        <r>  0.0013  0.0001  0.0136  0.0068  0.0000  0.0000  0.0000  0.0000  0.0000 </r>
        <r>  0.0009  0.0073  0.0125  0.0054  0.0000  0.0000  0.0000  0.0000  0.0000 </r>
        <r>  0.0037  0.0007  0.0264  0.0045  0.0000  0.0000  0.0000  0.0000  0.0000 </r>
        <r>  0.0007  0.0033  0.0031  0.0162  0.0000  0.0000  0.0000  0.0000  0.0000 </r>
       </set>
       <set comment="band 55">
        <r>  0.0024  0.0023  0.0357  0.0011  0.0008  0.0056  0.0029  0.0099  0.0002 </r>
        <r>  0.0014  0.0037  0.0134  0.0087  0.0012  0.0056  0.0023  0.0125  0.0001 </r>
        <r>  0.0007  0.0039  0.0283  0.0243  0.0002  0.0040  0.0051  0.0039  0.0000 </r>
        <r>  0.0010  0.0103  0.0330  0.0189  0.0000  0.0102  0.0092  0.0001  0.0000 </r>
        <r>  0.0003  0.0023  0.0316  0.0015  0.0000  0.0000  0.0000  0.0000  0.0000 </r>
        <r>  0.0005  0.0020  0.0195  0.0012  0.0000  0.0000  0.0000  0.0000  0.0000 </r>
        <r>  0.0020  0.0023  0.0014  0.0192  0.0000  0.0000  0.0000  0.0000  0.0000 </r>
        <r>  0.0038  0.0048  0.0030  0.0110  0.0000  0.0000  0.0000  0.0000  0.0000 </r>
       </set>
       <set comment="band 56">
        <r>  0.0011  0.0150  0.0565  0.0062  0.0000  0.0121  0.0116  0.0003  0.0000 </r>
        <r>  0.0000  0.0019  0.0119  0.0375  0.0002  0.0006  0.0009  0.0045  0.0000 </r>
        <r>  0.0006  0.0006  0.0015  0.0091  0.0017  0.0025  0.0014  0.0186  0.0000 </r>
        <r>  0.0038  0.0027  0.0404  0.0002  0.0003  0.0102  0.0055  0.0029  0.0003 </r>
        <r>  0.0050  0.0075  0.0021  0.0028  0.0000  0.0000  0.0000  0.0000  0.0000 </r>
        <r>  0.0005  0.0012  0.0002  0.0262  0.0000  0.0000  0.0000  0.0000  0.0000 </r>
        <r>  0.0003  0.0002  0.0065  0.0027  0.0000  0.0000  0.0000  0.0000  0.0000 </r>
        <r>  0.0008  0.0025  0.0467  0.0012  0.0000  0.0000  0.0000  0.0000  0.0000 </r>
       </set>
       <set comment="band 57">
        <r>  0.0008  0.0146  0.0015  0.0065  0.0042  0.0026  0.0032  0.0027  0.0009 </r>
        <r>  0.0052  0.0629  0.0028  0.0008  0.0011  0.0046  0.0068  0.0005  0.0036 </r>
        <r>  0.0035  0.0035  0.0126  0.0021  0.0010  0.0145  0.0101  0.0037  0.0007 </r>
        <r>  0.0016  0.0037  0.0028  0.0040  0.0033  0.0027  0.0015  0.0123  0.0003 </r>
        <r>  0.0020  0.0005  0.0008  0.0049  0.0000  0.0000  0.0000  0.0000  0.0000 </r>
        <r>  0.0063  0.0025  0.0016  0.0011  0.0000  0.0000  0.0000  0.0000  0.0000 </r>
        <r>  0.0012  0.0017  0.0050  0.0004  0.0000  0.0000  0.0000  0.0000  0.0000 </r>
        <r>  0.0001  0.0007  0.0011  0.0003  0.0000  0.0000  0.0000  0.0000  0.0000 </r>
       </set>
       <set comment="band 58">
        <r>  0.0011  0.0034  0.0042  0.0053  0.0027  0.0051  0.0039  0.0119  0.0004 </r>
        <r>  0.0047  0.0083  0.0128  0.0009  0.0005  0.0141  0.0093  0.0025  0.0010 </r>
        <r>  0.0040  0.0575  0.0024  0.0022  0.0017  0.0049  0.0075  0.0018  0.0032 </r>
        <r>  0.0014  0.0155  0.0002  0.0051  0.0047  0.0003  0.0009  0.0030  0.0008 </r>
        <r>  0.0005  0.0002  0.0017  0.0008  0.0000  0.0000  0.0000  0.0000  0.0000 </r>
        <r>  0.0006  0.0016  0.0051  0.0002  0.0000  0.0000  0.0000  0.0000  0.0000 </r>
        <r>  0.0069  0.0026  0.0015  0.0013  0.0000  0.0000  0.0000  0.0000  0.0000 </r>
        <r>  0.0017  0.0010  0.0001  0.0044  0.0000  0.0000  0.0000  0.0000  0.0000 </r>
       </set>
       <set comment="band 59">
        <r>  0.0091  0.0504  0.0090  0.0016  0.0015  0.0084  0.0058  0.0031  0.0032 </r>
        <r>  0.0008  0.0035  0.0008  0.0106  0.0021  0.0007  0.0003  0.0076  0.0001 </r>
        <r>  0.0011  0.0108  0.0026  0.0006  0.0060  0.0035  0.0034  0.0082  0.0008 </r>
        <r>  0.0001  0.0196  0.0073  0.0007  0.0002  0.0118  0.0122  0.0001  0.0013 </r>
        <r>  0.0013  0.0020  0.0038  0.0004  0.0000  0.0000  0.0000  0.0000  0.0000 </r>
        <r>  0.0006  0.0009  0.0002  0.0044  0.0000  0.0000  0.0000  0.0000  0.0000 </r>
        <r>  0.0010  0.0000  0.0012  0.0012  0.0000  0.0000  0.0000  0.0000  0.0000 </r>
        <r>  0.0066  0.0025  0.0032  0.0008  0.0000  0.0000  0.0000  0.0000  0.0000 </r>
       </set>
       <set comment="band 60">
        <r>  0.0001  0.0163  0.0049  0.0001  0.0012  0.0083  0.0087  0.0014  0.0009 </r>
        <r>  0.0003  0.0101  0.0032  0.0011  0.0059  0.0050  0.0052  0.0086  0.0008 </r>
        <r>  0.0026  0.0129  0.0020  0.0085  0.0011  0.0015  0.0007  0.0055  0.0007 </r>
        <r>  0.0080  0.0460  0.0094  0.0035  0.0013  0.0096  0.0071  0.0038  0.0031 </r>
        <r>  0.0058  0.0027  0.0021  0.0006  0.0000  0.0000  0.0000  0.0000  0.0000 </r>
        <r>  0.0021  0.0004  0.0015  0.0011  0.0000  0.0000  0.0000  0.0000  0.0000 </r>
        <r>  0.0004  0.0010  0.0008  0.0038  0.0000  0.0000  0.0000  0.0000  0.0000 </r>
        <r>  0.0013  0.0012  0.0041  0.0012  0.0000  0.0000  0.0000  0.0000  0.0000 </r>
       </set>
      </set>
     </set>
    </set>
   </array>
  </projected>
 </calculation>
 <structure name="finalpos" >
  <crystal>
   <varray name="basis" >
    <v>       3.95685521       0.00000000       0.00000000 </v>
    <v>      -0.00000000       4.53281069       0.00000000 </v>
    <v>       0.00000000       0.00000000      11.39201851 </v>
   </varray>
   <i name="volume">    204.32354836 </i>
   <varray name="rec_basis" >
    <v>       0.25272595       0.00000000       0.00000000 </v>
    <v>       0.00000000       0.22061367       0.00000000 </v>
    <v>      -0.00000000      -0.00000000       0.08778076 </v>
   </varray>
  </crystal>
  <varray name="positions" >
   <v>       0.25000000       0.36953984       0.62163275 </v>
   <v>       0.75000000       0.63046016       0.37836725 </v>
   <v>       0.75000000       0.86953984       0.87836725 </v>
   <v>       0.25000000       0.13046016       0.12163275 </v>
   <v>       0.25000000       0.01059680       0.34749746 </v>
   <v>       0.75000000       0.98940320       0.65250254 </v>
   <v>       0.75000000       0.51059680       0.15250254 </v>
   <v>       0.25000000       0.48940320       0.84749746 </v>
  </varray>
 </structure>
</modeling>
