 vasp.6.4.2 20Jul23 (build Mar 15 2024 16:31:38) complex                        
  
 executed on             LinuxIFC date 2025.03.19  15:24:45
 running  120 mpi-ranks, on    3 nodes
 distrk:  each k-point on  120 cores,    1 groups
 distr:  one band on NCORE=  10 cores,   12 groups


--------------------------------------------------------------------------------------------------------


 INCAR:
   ALGO = Fast
   CSHIFT = 1e-05
   EDIFF = 1e-05
   ENAUG = 1360
   ENCUT = 680
   GGA = Ps
   ICHARG = 11
   ISMEAR = -5
   ISPIN = 1
   ISYM = 2
   LAECHG = True
   LASPH = True
   LCHARG = False
   LELF = False
   LMAXMIX = 4
   LMIXTAU = True
   LOPTICS = True
   LORBIT = 11
   LREAL = False
   LVTOT = True
   LWAVE = True
   NBANDS = 101
   NCORE = 10
   NEDOS = 2000
   NELM = 200
   NSW = 0
   PREC = Accurate
   SIGMA = 0.05

 POTCAR:    PAW_PBE Sb 06Sep2000                  
 POTCAR:    PAW_PBE Se 06Sep2000                  
 WARNING: For LVTOT=.TRUE., VASP.5.x writes the TOTAL local potential to the
     file LOCPOT. If you want only the Hartree contributions, use LVHAR=.TRUE.
     instead. 

 POTCAR:    PAW_PBE Sb 06Sep2000                  
   VRHFIN =Sb: s2p3                                                                                 
   LEXCH  = PE                                                                                      
   EATOM  =   149.9515 eV,   11.0211 Ry                                                             
                                                                                                    
   TITEL  = PAW_PBE Sb 06Sep2000                                                                    
   LULTRA =        F    use ultrasoft PP ?                                                          
   IUNSCR =        1    unscreen: 0-lin 1-nonlin 2-no                                               
   RPACOR =    2.200    partial core radius                                                         
   POMASS =  121.750; ZVAL   =    5.000    mass and valenz                                          
   RCORE  =    2.300    outmost cutoff radius                                                       
   RWIGS  =    2.980; RWIGS  =    1.577    wigner-seitz radius (au A)                               
   ENMAX  =  172.069; ENMIN  =  129.052 eV                                                          
   ICORE  =        3    local potential                                                             
   LCOR   =        T    correct aug charges                                                         
   LPAW   =        T    paw PP                                                                      
   EAUG   =  380.513                                                                                
   DEXC   =    0.000                                                                                
   RMAX   =    2.346    core radius for proj-oper                                                   
   RAUG   =    1.300    factor for augmentation sphere                                              
   RDEP   =    2.360    radius for radial grids                                                     
   RDEPT  =    2.192    core radius for aug-charge                                                  
                                                                                                    
   Atomic configuration                                                                             
   13 entries                                                                                       
     n  l   j            E        occ.                                                              
     1  0  0.50    -30298.2797   2.0000                                                             
     2  0  0.50     -4610.2252   2.0000                                                             
     2  1  1.50     -4138.3407   6.0000                                                             
     3  0  0.50      -903.8815   2.0000                                                             
     3  1  1.50      -750.1337   6.0000                                                             
     3  2  2.50      -515.7092  10.0000                                                             
     4  0  0.50      -148.8034   2.0000                                                             
     4  1  1.50      -101.7581   6.0000                                                             
     4  2  2.50       -33.5048  10.0000                                                             
     5  0  0.50       -12.8298   2.0000                                                             
     5  1  0.50        -4.8276   3.0000                                                             
     5  2  1.50        -4.0817   0.0000                                                             
     4  3  2.50        -4.0817   0.0000                                                             
   Description                                                                                      
     l       E           TYP  RCUT    TYP  RCUT                                                     
     0    -12.8297861     23  2.300                                                                 
     0     13.6058260     23  2.300                                                                 
     1     -4.8275512     23  2.300                                                                 
     1     -0.7245443     23  2.300                                                                 
     2     -4.0817478     23  2.300                                                                 
     3     -1.3605826     23  2.300                                                                 
  local pseudopotential read in
  partial core-charges read in
  partial kinetic energy density read in
  atomic valenz-charges read in
  non local Contribution for L=           0  read in
    real space projection operators read in
  non local Contribution for L=           0  read in
    real space projection operators read in
  non local Contribution for L=           1  read in
    real space projection operators read in
  non local Contribution for L=           1  read in
    real space projection operators read in
  non local Contribution for L=           2  read in
    real space projection operators read in
    PAW grid and wavefunctions read in
 
   number of l-projection  operators is LMAX  =           5
   number of lm-projection operators is LMMAX =          13
 
 POTCAR:    PAW_PBE Se 06Sep2000                  
   VRHFIN =Se: s2p4                                                                                 
   LEXCH  = PE                                                                                      
   EATOM  =   257.1286 eV,   18.8984 Ry                                                             
                                                                                                    
   TITEL  = PAW_PBE Se 06Sep2000                                                                    
   LULTRA =        F    use ultrasoft PP ?                                                          
   IUNSCR =        1    unscreen: 0-lin 1-nonlin 2-no                                               
   RPACOR =    1.900    partial core radius                                                         
   POMASS =   78.960; ZVAL   =    6.000    mass and valenz                                          
   RCORE  =    2.100    outmost cutoff radius                                                       
   RWIGS  =    2.200; RWIGS  =    1.164    wigner-seitz radius (au A)                               
   ENMAX  =  211.555; ENMIN  =  158.666 eV                                                          
   ICORE  =        3    local potential                                                             
   LCOR   =        T    correct aug charges                                                         
   LPAW   =        T    paw PP                                                                      
   EAUG   =  446.842                                                                                
   DEXC   =    0.000                                                                                
   RMAX   =    2.147    core radius for proj-oper                                                   
   RAUG   =    1.300    factor for augmentation sphere                                              
   RDEP   =    2.177    radius for radial grids                                                     
   RDEPT  =    1.928    core radius for aug-charge                                                  
                                                                                                    
   Atomic configuration                                                                             
   10 entries                                                                                       
     n  l   j            E        occ.                                                              
     1  0  0.50    -12503.4787   2.0000                                                             
     2  0  0.50     -1606.9547   2.0000                                                             
     2  1  1.50     -1413.3140   6.0000                                                             
     3  0  0.50      -213.4885   2.0000                                                             
     3  1  1.50      -152.9538   6.0000                                                             
     3  2  2.50       -53.1221  10.0000                                                             
     4  0  0.50       -17.2865   2.0000                                                             
     4  1  0.50        -6.5110   4.0000                                                             
     4  2  2.50        -6.8029   0.0000                                                             
     4  3  2.50        -6.8029   0.0000                                                             
   Description                                                                                      
     l       E           TYP  RCUT    TYP  RCUT                                                     
     0    -17.2865377     23  2.100                                                                 
     0    -15.3094411     23  2.100                                                                 
     1     -6.5110275     23  2.100                                                                 
     1     -0.0695192     23  2.100                                                                 
     2     -6.8029130     23  2.100                                                                 
     3     -1.3605826      7  2.100                                                                 
  local pseudopotential read in
  partial core-charges read in
  partial kinetic energy density read in
  atomic valenz-charges read in
  non local Contribution for L=           0  read in
    real space projection operators read in
  non local Contribution for L=           0  read in
    real space projection operators read in
  non local Contribution for L=           1  read in
    real space projection operators read in
  non local Contribution for L=           1  read in
    real space projection operators read in
  non local Contribution for L=           2  read in
    real space projection operators read in
    PAW grid and wavefunctions read in
 
   number of l-projection  operators is LMAX  =           5
   number of lm-projection operators is LMMAX =          13
 
 -----------------------------------------------------------------------------
|                                                                             |
|               ----> ADVICE to this user running VASP <----                  |
|                                                                             |
|     You have a (more or less) 'large supercell' and for larger cells it     |
|     might be more efficient to use real-space projection operators.         |
|     Therefore, try LREAL= Auto in the INCAR file.                           |
|     Mind: For very accurate calculation, you might also keep the            |
|     reciprocal projection scheme (i.e. LREAL=.FALSE.).                      |
|                                                                             |
 -----------------------------------------------------------------------------

 -----------------------------------------------------------------------------
|                                                                             |
|               ----> ADVICE to this user running VASP <----                  |
|                                                                             |
|     You enforced a specific xc type in the INCAR file but a different       |
|     type was found in the POTCAR file.                                      |
|     I HOPE YOU KNOW WHAT YOU ARE DOING!                                     |
|                                                                             |
 -----------------------------------------------------------------------------

  PAW_PBE Sb 06Sep2000                  :
 energy of atom  1       EATOM= -149.9515
 kinetic energy error for atom=    0.0002 (will be added to EATOM!!)
  PAW_PBE Se 06Sep2000                  :
 energy of atom  2       EATOM= -257.1286
 kinetic energy error for atom=    0.0004 (will be added to EATOM!!)
 
 
 POSCAR: Sb8 Se12
  positions in direct lattice
  No initial velocities read in
 exchange correlation table for  LEXCH =       14
   RHO(1)=    0.500       N(1)  =     2000
   RHO(2)=  100.500       N(2)  =     4000
 


--------------------------------------------------------------------------------------------------------


 ion  position               nearest neighbor table
   1  0.750  0.038  0.140-   9 2.59  13 2.81  13 2.81  10 2.99  10 2.99
   2  0.250  0.962  0.860-  10 2.59  14 2.81  14 2.81   9 2.99   9 2.99
   3  0.250  0.538  0.360-  11 2.59  15 2.81  15 2.81  12 2.99  12 2.99
   4  0.750  0.462  0.640-  12 2.59  16 2.81  16 2.81  11 2.99  11 2.99
   5  0.250  0.330  0.034-  13 2.66  20 2.68  20 2.68   9 3.27   9 3.27
   6  0.750  0.670  0.966-  14 2.66  19 2.68  19 2.68  10 3.27  10 3.27
   7  0.750  0.830  0.466-  15 2.66  18 2.68  18 2.68  11 3.27  11 3.27
   8  0.250  0.170  0.534-  16 2.66  17 2.68  17 2.68  12 3.27  12 3.27
   9  0.750  0.128  0.948-   1 2.59   2 2.99   2 2.99   5 3.27   5 3.27
  10  0.250  0.872  0.052-   2 2.59   1 2.99   1 2.99   6 3.27   6 3.27
  11  0.250  0.628  0.552-   3 2.59   4 2.99   4 2.99   7 3.27   7 3.27
  12  0.750  0.372  0.448-   4 2.59   3 2.99   3 2.99   8 3.27   8 3.27
  13  0.250  0.192  0.205-   5 2.66   1 2.81   1 2.81
  14  0.750  0.808  0.795-   6 2.66   2 2.81   2 2.81
  15  0.750  0.692  0.295-   7 2.66   3 2.81   3 2.81
  16  0.250  0.308  0.705-   8 2.66   4 2.81   4 2.81
  17  0.750  0.054  0.627-   8 2.68   8 2.68
  18  0.250  0.946  0.373-   7 2.68   7 2.68
  19  0.250  0.554  0.873-   6 2.68   6 2.68
  20  0.750  0.446  0.127-   5 2.68   5 2.68
 
  LATTYP: Found a simple orthorhombic cell.
 ALAT       =     4.0015568700
 B/A-ratio  =     2.9272680835
 C/A-ratio  =     3.0893158842
  
  Lattice vectors:
  
 A1 = (   4.0015568700,   0.0000000000,   0.0000000000)
 A2 = (  -0.0000000000,  11.7136297100,   0.0000000000)
 A3 = (   0.0000000000,   0.0000000000,  12.3620732000)


Analysis of symmetry for initial positions (statically):
=====================================================================
 Subroutine PRICEL returns:
 Original cell was already a primitive cell.
 

 Routine SETGRP: Setting up the symmetry group for a 
 simple orthorhombic supercell.


 Subroutine GETGRP returns: Found  8 space group operations
 (whereof  2 operations were pure point group operations)
 out of a pool of  8 trial point group operations.


The static configuration has the point symmetry S_2 .
 The point group associated with its full space group is D_2h.


Analysis of symmetry for dynamics (positions and initial velocities):
=====================================================================
 Subroutine PRICEL returns:
 Original cell was already a primitive cell.
 

 Routine SETGRP: Setting up the symmetry group for a 
 simple orthorhombic supercell.


 Subroutine GETGRP returns: Found  8 space group operations
 (whereof  2 operations were pure point group operations)
 out of a pool of  8 trial point group operations.


The dynamic configuration has the point symmetry S_2 .
 The point group associated with its full space group is D_2h.


 Subroutine INISYM returns: Found  8 space group operations
 (whereof  2 operations are pure point group operations),
 and found     1 'primitive' translations


----------------------------------------------------------------------------------------

                                     Primitive cell                                     

  volume of cell :     579.4444

  direct lattice vectors                    reciprocal lattice vectors
     4.001556870  0.000000000  0.000000000     0.249902733  0.000000000  0.000000000
    -0.000000000 11.713629710  0.000000000     0.000000000  0.085370634  0.000000000
     0.000000000  0.000000000 12.362073200    -0.000000000 -0.000000000  0.080892580

  length of vectors
     4.001556870 11.713629710 12.362073200     0.249902733  0.085370634  0.080892580

  position of ions in fractional coordinates (direct lattice)
     0.750000000  0.038094600  0.140322370
     0.250000000  0.961905400  0.859677630
     0.250000000  0.538094600  0.359677630
     0.750000000  0.461905400  0.640322370
     0.250000000  0.329591380  0.033812840
     0.750000000  0.670408620  0.966187160
     0.750000000  0.829591380  0.466187160
     0.250000000  0.170408620  0.533812840
     0.750000000  0.127525360  0.948345200
     0.250000000  0.872474640  0.051654800
     0.250000000  0.627525360  0.551654800
     0.750000000  0.372474640  0.448345200
     0.250000000  0.192100670  0.205331320
     0.750000000  0.807899330  0.794668680
     0.750000000  0.692100670  0.294668680
     0.250000000  0.307899330  0.705331320
     0.750000000  0.054098690  0.627349150
     0.250000000  0.945901310  0.372650850
     0.250000000  0.554098690  0.872650850
     0.750000000  0.445901310  0.127349150

  ion indices of the primitive-cell ions
   primitive index   ion index
                 1           1
                 2           2
                 3           3
                 4           4
                 5           5
                 6           6
                 7           7
                 8           8
                 9           9
                10          10
                11          11
                12          12
                13          13
                14          14
                15          15
                16          16
                17          17
                18          18
                19          19
                20          20

----------------------------------------------------------------------------------------

 
 
 KPOINTS: pymatgen with grid density = 856 / numbe

Automatic generation of k-mesh.
 Grid dimensions read from file:
 generate k-points for:    7    2    2

 Generating k-lattice:

  Cartesian coordinates                     Fractional coordinates (reciprocal lattice)
     0.035700390  0.000000000  0.000000000     0.142857143 -0.000000000  0.000000000
     0.000000000  0.042685317  0.000000000     0.000000000  0.500000000  0.000000000
    -0.000000000 -0.000000000  0.040446290    -0.000000000 -0.000000000  0.500000000

  Length of vectors
     0.035700390  0.042685317  0.040446290

  Shift w.r.t. Gamma in fractional coordinates (k-lattice)
     0.000000000  0.000000000  0.000000000

 TETIRR: Found     84 inequivalent tetrahedra from      168
 
 Subroutine IBZKPT returns following result:
 ===========================================
 
 Found     16 irreducible k-points:
 
 Following reciprocal coordinates:
            Coordinates               Weight
  0.000000  0.000000  0.000000      1.000000
  0.142857  0.000000  0.000000      2.000000
  0.285714  0.000000  0.000000      2.000000
  0.428571  0.000000  0.000000      2.000000
  0.000000  0.500000  0.000000      1.000000
  0.142857  0.500000  0.000000      2.000000
  0.285714  0.500000  0.000000      2.000000
  0.428571  0.500000  0.000000      2.000000
  0.000000 -0.000000  0.500000      1.000000
  0.142857 -0.000000  0.500000      2.000000
  0.285714 -0.000000  0.500000      2.000000
  0.428571  0.000000  0.500000      2.000000
  0.000000  0.500000  0.500000      1.000000
  0.142857  0.500000  0.500000      2.000000
  0.285714  0.500000  0.500000      2.000000
  0.428571  0.500000  0.500000      2.000000
 
 Following cartesian coordinates:
            Coordinates               Weight
  0.000000  0.000000  0.000000      1.000000
  0.035700  0.000000  0.000000      2.000000
  0.071401  0.000000  0.000000      2.000000
  0.107101  0.000000  0.000000      2.000000
  0.000000  0.042685  0.000000      1.000000
  0.035700  0.042685  0.000000      2.000000
  0.071401  0.042685  0.000000      2.000000
  0.107101  0.042685  0.000000      2.000000
 -0.000000 -0.000000  0.040446      1.000000
  0.035700 -0.000000  0.040446      2.000000
  0.071401  0.000000  0.040446      2.000000
  0.107101  0.000000  0.040446      2.000000
 -0.000000  0.042685  0.040446      1.000000
  0.035700  0.042685  0.040446      2.000000
  0.071401  0.042685  0.040446      2.000000
  0.107101  0.042685  0.040446      2.000000
 
 -----------------------------------------------------------------------------
|                                                                             |
|           W    W    AA    RRRRR   N    N  II  N    N   GGGG   !!!           |
|           W    W   A  A   R    R  NN   N  II  NN   N  G    G  !!!           |
|           W    W  A    A  R    R  N N  N  II  N N  N  G       !!!           |
|           W WW W  AAAAAA  RRRRR   N  N N  II  N  N N  G  GGG   !            |
|           WW  WW  A    A  R   R   N   NN  II  N   NN  G    G                |
|           W    W  A    A  R    R  N    N  II  N    N   GGGG   !!!           |
|                                                                             |
|     The number of bands has been changed from the values supplied in        |
|     the INCAR file. This is a result of running the parallel version.       |
|     The orbitals not found in the WAVECAR file will be initialized with     |
|     random numbers, which is usually adequate. For correlated               |
|     calculations, however, you should redo the groundstate calculation.     |
|     I found NBANDS = 101. Now, NBANDS = 108.                                |
|                                                                             |
 -----------------------------------------------------------------------------



--------------------------------------------------------------------------------------------------------




 Dimension of arrays:
   k-points           NKPTS =     16   k-points in BZ     NKDIM =     16   number of bands    NBANDS=    108
   number of dos      NEDOS =   2000   number of ions     NIONS =     20
   non local maximal  LDIM  =      5   non local SUM 2l+1 LMDIM =     13
   total plane-waves  NPLWV = 388800
   max r-space proj   IRMAX =      1   max aug-charges    IRDMAX=  37433
   dimension x,y,z NGX =    36 NGY =  100 NGZ =  108
   dimension x,y,z NGXF=    72 NGYF=  200 NGZF=  216
   support grid    NGXF=    72 NGYF=  200 NGZF=  216
   ions per type =               8  12
   NGX,Y,Z   is equivalent  to a cutoff of  14.96, 14.19, 14.52 a.u.
   NGXF,Y,Z  is equivalent  to a cutoff of  29.91, 28.39, 29.05 a.u.

 SYSTEM =  unknown system                          
 POSCAR =  Sb8 Se12                                

 Startparameter for this run:
   NWRITE =      2    write-flag & timer
   PREC   = accura    normal or accurate (medium, high low for compatibility)
   ISTART =      0    job   : 0-new  1-cont  2-samecut
   ICHARG =     11    charge: 1-file 2-atom 10-const
   ISPIN  =      1    spin polarized calculation?
   LNONCOLLINEAR =      F non collinear calculations
   LSORBIT =      F    spin-orbit coupling
   INIWAV =      1    electr: 0-lowe 1-rand  2-diag
   LASPH  =      T    aspherical Exc in radial PAW
 Electronic Relaxation 1
   ENCUT  =  680.0 eV  49.98 Ry    7.07 a.u.   8.51 24.91 26.28*2*pi/ulx,y,z
   ENINI  =  680.0     initial cutoff
   ENAUG  = 1360.0 eV  augmentation charge cutoff
   NELM   =    200;   NELMIN=  2; NELMDL= -5     # of ELM steps 
   EDIFF  = 0.1E-04   stopping-criterion for ELM
   LREAL  =      F    real-space projection
   NLSPLINE    = F    spline interpolate recip. space projectors
   LCOMPAT=      F    compatible to vasp.4.4
   GGA_COMPAT  = T    GGA compatible to vasp.4.4-vasp.4.6
   LMAXPAW     = -100 max onsite density
   LMAXMIX     =    4 max onsite mixed and CHGCAR
   VOSKOWN=      0    Vosko Wilk Nusair interpolation
   ROPT   =    0.00000   0.00000
 Ionic relaxation
   EDIFFG = 0.1E-03   stopping-criterion for IOM
   NSW    =      0    number of steps for IOM
   NBLOCK =      1;   KBLOCK =      1    inner block; outer block 
   IBRION =     -1    ionic relax: 0-MD 1-quasi-New 2-CG
   NFREE  =      0    steps in history (QN), initial steepest desc. (CG)
   ISIF   =      2    stress and relaxation
   IWAVPR =     10    prediction:  0-non 1-charg 2-wave 3-comb
   ISYM   =      2    0-nonsym 1-usesym 2-fastsym
   LCORR  =      T    Harris-Foulkes like correction to forces

   POTIM  = 0.5000    time-step for ionic-motion
   TEIN   =    0.0    initial temperature
   TEBEG  =    0.0;   TEEND  =   0.0 temperature during run
   SMASS  =  -3.00    Nose mass-parameter (am)
   estimated Nose-frequenzy (Omega)   =  0.10E-29 period in steps = 0.13E+47 mass=  -0.366E-27a.u.
   SCALEE = 1.0000    scale energy and forces
   NPACO  =    256;   APACO  = 10.0  distance and # of slots for P.C.
   PSTRESS=    0.0 pullay stress

  Mass of Ions in am
   POMASS = 121.75 78.96
  Ionic Valenz
   ZVAL   =   5.00  6.00
  Atomic Wigner-Seitz radii
   RWIGS  =  -1.00 -1.00
  virtual crystal weights 
   VCA    =   1.00  1.00
   NELECT =     112.0000    total number of electrons
   NUPDOWN=      -1.0000    fix difference up-down

 DOS related values:
   EMIN   =  10.00;   EMAX   =-10.00  energy-range for DOS
   EFERMI =   0.00;   METHOD = LEGACY      
   ISMEAR =    -5;   SIGMA  =   0.05  broadening in eV -4-tet -1-fermi 0-gaus

 Electronic relaxation 2 (details)
   IALGO  =     68    algorithm
   LDIAG  =      T    sub-space diagonalisation (order eigenvalues)
   LSUBROT=      F    optimize rotation matrix (better conditioning)
   TURBO    =      0    0=normal 1=particle mesh
   IRESTART =      0    0=no restart 2=restart with 2 vectors
   NREBOOT  =      0    no. of reboots
   NMIN     =      0    reboot dimension
   EREF     =   0.00    reference energy to select bands
   IMIX   =      4    mixing-type and parameters
     AMIX     =   0.40;   BMIX     =  1.00
     AMIX_MAG =   1.60;   BMIX_MAG =  1.00
     AMIN     =   0.10
     WC   =   100.;   INIMIX=   1;  MIXPRE=   1;  MAXMIX= -45

 Intra band minimization:
   WEIMIN = 0.0000     energy-eigenvalue tresh-hold
   EBREAK =  0.23E-07  absolut break condition
   DEPER  =   0.30     relativ break condition  

   TIME   =   0.40     timestep for ELM

  volume/ion in A,a.u.               =      28.97       195.51
  Fermi-wavevector in a.u.,A,eV,Ry     =   0.946550  1.788720 12.190234  0.895957
  Thomas-Fermi vector in A             =   2.074558
 
 Write flags
   LWAVE        =      T    write WAVECAR
   LDOWNSAMPLE  =      F    k-point downsampling of WAVECAR
   LCHARG       =      F    write CHGCAR
   LVTOT        =      T    write LOCPOT, total local potential
   LVHAR        =      F    write LOCPOT, Hartree potential only
   LELF         =      F    write electronic localiz. function (ELF)
   LORBIT       =     11    0 simple, 1 ext, 2 COOP (PROOUT), +10 PAW based schemes


 Dipole corrections
   LMONO  =      F    monopole corrections only (constant potential shift)
   LDIPOL =      F    correct potential (dipole corrections)
   IDIPOL =      0    1-x, 2-y, 3-z, 4-all directions 
   EPSILON=  1.0000000 bulk dielectric constant

 Exchange correlation treatment:
   GGA     =    PS    GGA type
   LEXCH   =    14    internal setting for exchange type
   LIBXC   =     F    Libxc                    
   VOSKOWN =     0    Vosko Wilk Nusair interpolation
   LHFCALC =     F    Hartree Fock is set to
   LHFONE  =     F    Hartree Fock one center treatment
   AEXX    =    0.0000 exact exchange contribution

 Linear response parameters
   LEPSILON=     F    determine dielectric tensor
   LRPA    =     F    only Hartree local field effects (RPA)
   LNABLA  =     F    use nabla operator in PAW spheres
   LVEL    =     F    velocity operator in full k-point grid
   CSHIFT  =0.0000    complex shift for real part using Kramers Kronig
   OMEGAMAX=  -1.0    maximum frequency
   DEG_THRESHOLD= 0.2000000E-02 threshold for treating states as degnerate
   RTIME   =   -0.100 relaxation time in fs
  (WPLASMAI=    0.000 imaginary part of plasma frequency in eV, 0.658/RTIME)
   DFIELD  = 0.0000000 0.0000000 0.0000000 field for delta impulse in time
 
  Optional k-point grid parameters
   LKPOINTS_OPT  =     F    use optional k-point grid
   KPOINTS_OPT_MODE=     1    mode for optional k-point grid
 
 Orbital magnetization related:
   ORBITALMAG=     F  switch on orbital magnetization
   LCHIMAG   =     F  perturbation theory with respect to B field
   DQ        =  0.001000  dq finite difference perturbation B field
   LLRAUG    =     F  two centre corrections for induced B field
   LBONE     =     F  B-component reconstruction in AE one-centre
   LVGVCALC  =     T  calculate vGv susceptibility
   LVGVAPPL  =     F  apply vGv susceptibility instead of pGv for G=0

 Random number generation:
   RANDOM_GENERATOR = DEFAULT
   PCG_SEED         = not used


--------------------------------------------------------------------------------------------------------


 Static calculation
 charge density and potential remain constant during run
 non-spin polarized calculation
 RMM-DIIS sequential band-by-band and
  variant of blocked Davidson during initial phase
 perform sub-space diagonalisation
    before iterative eigenvector-optimisation
 no mixing
 using additional bands           52
 reciprocal scheme for non local part
 use partial core corrections
 calculate Harris-corrections to forces 
   (improved forces if not selfconsistent)
 use gradient corrections 
 WARNING: stress and forces are not correct
  (second derivative of E(xc) not defined)
 use of overlap-Matrix (Vanderbilt PP)
 Fermi weights with tetrahedron method with Bloechl corrections


--------------------------------------------------------------------------------------------------------


  energy-cutoff  :      680.00
  volume of cell :      579.44
      direct lattice vectors                 reciprocal lattice vectors
     4.001556870  0.000000000  0.000000000     0.249902733  0.000000000  0.000000000
    -0.000000000 11.713629710  0.000000000     0.000000000  0.085370634  0.000000000
     0.000000000  0.000000000 12.362073200    -0.000000000 -0.000000000  0.080892580

  length of vectors
     4.001556870 11.713629710 12.362073200     0.249902733  0.085370634  0.080892580


 
 k-points in units of 2pi/SCALE and weight: pymatgen with grid density = 856 / numbe
   0.00000000  0.00000000  0.00000000       0.036
   0.03570039  0.00000000  0.00000000       0.071
   0.07140078  0.00000000  0.00000000       0.071
   0.10710117  0.00000000  0.00000000       0.071
   0.00000000  0.04268532  0.00000000       0.036
   0.03570039  0.04268532  0.00000000       0.071
   0.07140078  0.04268532  0.00000000       0.071
   0.10710117  0.04268532  0.00000000       0.071
  -0.00000000 -0.00000000  0.04044629       0.036
   0.03570039 -0.00000000  0.04044629       0.071
   0.07140078  0.00000000  0.04044629       0.071
   0.10710117  0.00000000  0.04044629       0.071
  -0.00000000  0.04268532  0.04044629       0.036
   0.03570039  0.04268532  0.04044629       0.071
   0.07140078  0.04268532  0.04044629       0.071
   0.10710117  0.04268532  0.04044629       0.071
 
 k-points in reciprocal lattice and weights: pymatgen with grid density = 856 / numbe
   0.00000000  0.00000000  0.00000000       0.036
   0.14285714  0.00000000  0.00000000       0.071
   0.28571429  0.00000000  0.00000000       0.071
   0.42857143  0.00000000  0.00000000       0.071
   0.00000000  0.50000000  0.00000000       0.036
   0.14285714  0.50000000  0.00000000       0.071
   0.28571429  0.50000000  0.00000000       0.071
   0.42857143  0.50000000  0.00000000       0.071
   0.00000000 -0.00000000  0.50000000       0.036
   0.14285714 -0.00000000  0.50000000       0.071
   0.28571429 -0.00000000  0.50000000       0.071
   0.42857143  0.00000000  0.50000000       0.071
   0.00000000  0.50000000  0.50000000       0.036
   0.14285714  0.50000000  0.50000000       0.071
   0.28571429  0.50000000  0.50000000       0.071
   0.42857143  0.50000000  0.50000000       0.071
 
 position of ions in fractional coordinates (direct lattice) 
   0.75000000  0.03809460  0.14032237
   0.25000000  0.96190540  0.85967763
   0.25000000  0.53809460  0.35967763
   0.75000000  0.46190540  0.64032237
   0.25000000  0.32959138  0.03381284
   0.75000000  0.67040862  0.96618716
   0.75000000  0.82959138  0.46618716
   0.25000000  0.17040862  0.53381284
   0.75000000  0.12752536  0.94834520
   0.25000000  0.87247464  0.05165480
   0.25000000  0.62752536  0.55165480
   0.75000000  0.37247464  0.44834520
   0.25000000  0.19210067  0.20533132
   0.75000000  0.80789933  0.79466868
   0.75000000  0.69210067  0.29466868
   0.25000000  0.30789933  0.70533132
   0.75000000  0.05409869  0.62734915
   0.25000000  0.94590131  0.37265085
   0.25000000  0.55409869  0.87265085
   0.75000000  0.44590131  0.12734915
 
 position of ions in cartesian coordinates  (Angst):
   3.00116765  0.44622604  1.73467541
   1.00038922 11.26740367 10.62739779
   1.00038922  6.30304089  4.44636119
   3.00116765  5.41058882  7.91571201
   1.00038922  3.86071138  0.41799680
   3.00116765  7.85291833 11.94407640
   3.00116765  9.71752624  5.76303980
   1.00038922  1.99610347  6.59903340
   3.00116765  1.49378485 11.72351278
   1.00038922 10.21984486  0.63856042
   1.00038922  7.35059970  6.81959702
   3.00116765  4.36303001  5.54247618
   1.00038922  2.25019612  2.53832081
   3.00116765  9.46343359  9.82375239
   3.00116765  8.10701097  3.64271579
   1.00038922  3.60661874  8.71935741
   3.00116765  0.63369202  7.75533611
   1.00038922 11.07993769  4.60673709
   1.00038922  6.49050688 10.78777369
   3.00116765  5.22312283  1.57429951
 


--------------------------------------------------------------------------------------------------------


 k-point   1 :   0.0000 0.0000 0.0000  plane waves:   23349
 k-point   2 :   0.1429 0.0000 0.0000  plane waves:   23351
 k-point   3 :   0.2857 0.0000 0.0000  plane waves:   23345
 k-point   4 :   0.4286 0.0000 0.0000  plane waves:   23255
 k-point   5 :   0.0000 0.5000 0.0000  plane waves:   23390
 k-point   6 :   0.1429 0.5000 0.0000  plane waves:   23368
 k-point   7 :   0.2857 0.5000 0.0000  plane waves:   23306
 k-point   8 :   0.4286 0.5000 0.0000  plane waves:   23310
 k-point   9 :   0.0000-0.0000 0.5000  plane waves:   23420
 k-point  10 :   0.1429-0.0000 0.5000  plane waves:   23384
 k-point  11 :   0.2857-0.0000 0.5000  plane waves:   23328
 k-point  12 :   0.4286 0.0000 0.5000  plane waves:   23286
 k-point  13 :   0.0000 0.5000 0.5000  plane waves:   23332
 k-point  14 :   0.1429 0.5000 0.5000  plane waves:   23352
 k-point  15 :   0.2857 0.5000 0.5000  plane waves:   23364
 k-point  16 :   0.4286 0.5000 0.5000  plane waves:   23300

 maximum and minimum number of plane-waves per node :      2370     2307

 maximum number of plane-waves:     23420
 maximum index in each direction: 
   IXMAX=    8   IYMAX=   24   IZMAX=   26
   IXMIN=   -8   IYMIN=  -25   IZMIN=  -26


 parallel 3D FFT for wavefunctions:
    minimum data exchange during FFTs selected (reduces bandwidth)
 parallel 3D FFT for charge:
    minimum data exchange during FFTs selected (reduces bandwidth)


 total amount of memory used by VASP MPI-rank0    51069. kBytes
=======================================================================

   base      :      30000. kBytes
   nonl-proj :       8667. kBytes
   fftplans  :       2660. kBytes
   grid      :       4169. kBytes
   one-center:         16. kBytes
   wavefun   :       5557. kBytes
 
     INWAV:  cpu time      0.0000: real time      0.0001
 initial charge density was supplied:
 number of electron     111.9999996 magnetization 
 keeping initial charge density in first step


--------------------------------------------------------------------------------------------------------


 Maximum index for augmentation-charges          349 (set IRDMAX)


--------------------------------------------------------------------------------------------------------


 First call to EWALD:  gamma=   0.213
 Maximum number of real-space cells 5x 2x 2
 Maximum number of reciprocal cells 2x 4x 4

    FEWALD:  cpu time      0.0027: real time      0.0027


--------------------------------------- Ionic step        1  -------------------------------------------




--------------------------------------- Iteration      1(   1)  ---------------------------------------


    POTLOK:  cpu time      0.0436: real time      0.0458
    SETDIJ:  cpu time      0.1322: real time      0.1338
     EDDAV:  cpu time      1.7205: real time      1.7302
 BZINTS: Fermi energy:   13.632221;  112.000000 electrons
         Band energy: 0.545462E+03;  BLOECHL correction:   -0.049522
       DOS:  cpu time      0.0266: real time      0.0270
    --------------------------------------------
      LOOP:  cpu time      1.9228: real time      1.9368

 eigenvalue-minimisations  :  3456
 total energy-change (2. order) : 0.6366755E+03  (-0.4645300E+04)
 number of electron     111.9999996 magnetization 
 augmentation part      111.9999996 magnetization 

 Free energy of the ion-electron system (eV)
  ---------------------------------------------------
  alpha Z        PSCENC =       116.37456510
  Ewald energy   TEWEN  =     -4031.12465643
  -Hartree energ DENC   =      -505.92239639
  -exchange      EXHF   =         0.00000000
  -V(xc)+E(xc)   XCENC  =      -361.29518050
  PAW double counting   =      6046.73013445    -5455.83328702
  entropy T*S    EENTRO =         0.00000000
  eigenvalues    EBANDS =       545.46246348
  atomic energy  EATOM  =      4282.28387907
  Solvation  Ediel_sol  =         0.00000000
  ---------------------------------------------------
  free energy    TOTEN  =       636.67552175 eV

  energy without entropy =      636.67552175  energy(sigma->0) =      636.67552175


--------------------------------------------------------------------------------------------------------




--------------------------------------- Iteration      1(   2)  ---------------------------------------


     EDDAV:  cpu time      1.9811: real time      1.9880
 BZINTS: Fermi energy:    5.085232;  112.000000 electrons
         Band energy:-0.107169E+03;  BLOECHL correction:    0.000000
       DOS:  cpu time      0.0158: real time      0.0158
    --------------------------------------------
      LOOP:  cpu time      1.9968: real time      2.0038

 eigenvalue-minimisations  :  4296
 total energy-change (2. order) :-0.6526314E+03  (-0.6074643E+03)
 number of electron     111.9999996 magnetization 
 augmentation part      111.9999996 magnetization 

 Free energy of the ion-electron system (eV)
  ---------------------------------------------------
  alpha Z        PSCENC =       116.37456510
  Ewald energy   TEWEN  =     -4031.12465643
  -Hartree energ DENC   =      -505.92239639
  -exchange      EXHF   =         0.00000000
  -V(xc)+E(xc)   XCENC  =      -361.29518050
  PAW double counting   =      6046.73013445    -5455.83328702
  entropy T*S    EENTRO =         0.00000000
  eigenvalues    EBANDS =      -107.16895551
  atomic energy  EATOM  =      4282.28387907
  Solvation  Ediel_sol  =         0.00000000
  ---------------------------------------------------
  free energy    TOTEN  =       -15.95589724 eV

  energy without entropy =      -15.95589724  energy(sigma->0) =      -15.95589724


--------------------------------------------------------------------------------------------------------




--------------------------------------- Iteration      1(   3)  ---------------------------------------


     EDDAV:  cpu time      1.7834: real time      1.7959
 BZINTS: Fermi energy:    3.829296;  112.000000 electrons
         Band energy:-0.177523E+03;  BLOECHL correction:    0.000000
       DOS:  cpu time      0.0150: real time      0.0150
    --------------------------------------------
      LOOP:  cpu time      1.7984: real time      1.8109

 eigenvalue-minimisations  :  4176
 total energy-change (2. order) :-0.7035389E+02  (-0.6889824E+02)
 number of electron     111.9999996 magnetization 
 augmentation part      111.9999996 magnetization 

 Free energy of the ion-electron system (eV)
  ---------------------------------------------------
  alpha Z        PSCENC =       116.37456510
  Ewald energy   TEWEN  =     -4031.12465643
  -Hartree energ DENC   =      -505.92239639
  -exchange      EXHF   =         0.00000000
  -V(xc)+E(xc)   XCENC  =      -361.29518050
  PAW double counting   =      6046.73013445    -5455.83328702
  entropy T*S    EENTRO =         0.00000000
  eigenvalues    EBANDS =      -177.52284626
  atomic energy  EATOM  =      4282.28387907
  Solvation  Ediel_sol  =         0.00000000
  ---------------------------------------------------
  free energy    TOTEN  =       -86.30978799 eV

  energy without entropy =      -86.30978799  energy(sigma->0) =      -86.30978799


--------------------------------------------------------------------------------------------------------




--------------------------------------- Iteration      1(   4)  ---------------------------------------


     EDDAV:  cpu time      1.9372: real time      1.9577
 BZINTS: Fermi energy:    3.809387;  112.000000 electrons
         Band energy:-0.178752E+03;  BLOECHL correction:    0.000000
       DOS:  cpu time      0.0151: real time      0.0153
    --------------------------------------------
      LOOP:  cpu time      1.9523: real time      1.9729

 eigenvalue-minimisations  :  4068
 total energy-change (2. order) :-0.1229398E+01  (-0.1226177E+01)
 number of electron     111.9999996 magnetization 
 augmentation part      111.9999996 magnetization 

 Free energy of the ion-electron system (eV)
  ---------------------------------------------------
  alpha Z        PSCENC =       116.37456510
  Ewald energy   TEWEN  =     -4031.12465643
  -Hartree energ DENC   =      -505.92239639
  -exchange      EXHF   =         0.00000000
  -V(xc)+E(xc)   XCENC  =      -361.29518050
  PAW double counting   =      6046.73013445    -5455.83328702
  entropy T*S    EENTRO =         0.00000000
  eigenvalues    EBANDS =      -178.75224413
  atomic energy  EATOM  =      4282.28387907
  Solvation  Ediel_sol  =         0.00000000
  ---------------------------------------------------
  free energy    TOTEN  =       -87.53918586 eV

  energy without entropy =      -87.53918586  energy(sigma->0) =      -87.53918586


--------------------------------------------------------------------------------------------------------




--------------------------------------- Iteration      1(   5)  ---------------------------------------


     EDDAV:  cpu time      1.7045: real time      1.7191
 BZINTS: Fermi energy:    3.811643;  112.000000 electrons
         Band energy:-0.178764E+03;  BLOECHL correction:    0.000000
       DOS:  cpu time      0.0150: real time      0.0151
    --------------------------------------------
      LOOP:  cpu time      1.7195: real time      1.7341

 eigenvalue-minimisations  :  4044
 total energy-change (2. order) :-0.1184077E-01  (-0.1183981E-01)
 number of electron     111.9999996 magnetization 
 augmentation part      111.9999996 magnetization 

 Free energy of the ion-electron system (eV)
  ---------------------------------------------------
  alpha Z        PSCENC =       116.37456510
  Ewald energy   TEWEN  =     -4031.12465643
  -Hartree energ DENC   =      -505.92239639
  -exchange      EXHF   =         0.00000000
  -V(xc)+E(xc)   XCENC  =      -361.29518050
  PAW double counting   =      6046.73013445    -5455.83328702
  entropy T*S    EENTRO =         0.00000000
  eigenvalues    EBANDS =      -178.76408490
  atomic energy  EATOM  =      4282.28387907
  Solvation  Ediel_sol  =         0.00000000
  ---------------------------------------------------
  free energy    TOTEN  =       -87.55102663 eV

  energy without entropy =      -87.55102663  energy(sigma->0) =      -87.55102663


--------------------------------------------------------------------------------------------------------




--------------------------------------- Iteration      1(   6)  ---------------------------------------


    EDDIAG:  cpu time      0.3607: real time      0.3770
  RMM-DIIS:  cpu time      0.9563: real time      0.9587
    ORTHCH:  cpu time      0.0630: real time      0.0632
 BZINTS: Fermi energy:    3.802103;  112.000000 electrons
         Band energy:-0.178764E+03;  BLOECHL correction:    0.000000
       DOS:  cpu time      0.0148: real time      0.0148
    --------------------------------------------
      LOOP:  cpu time      1.3949: real time      1.4138

 eigenvalue-minimisations  :  3635
 total energy-change (2. order) :-0.2323925E-03  (-0.2323924E-03)
 number of electron     111.9999996 magnetization 
 augmentation part      111.9999996 magnetization 

 Free energy of the ion-electron system (eV)
  ---------------------------------------------------
  alpha Z        PSCENC =       116.37456510
  Ewald energy   TEWEN  =     -4031.12465643
  -Hartree energ DENC   =      -505.92239639
  -exchange      EXHF   =         0.00000000
  -V(xc)+E(xc)   XCENC  =      -361.29518050
  PAW double counting   =      6046.73013445    -5455.83328702
  entropy T*S    EENTRO =         0.00000000
  eigenvalues    EBANDS =      -178.76431730
  atomic energy  EATOM  =      4282.28387907
  Solvation  Ediel_sol  =         0.00000000
  ---------------------------------------------------
  free energy    TOTEN  =       -87.55125902 eV

  energy without entropy =      -87.55125902  energy(sigma->0) =      -87.55125902


--------------------------------------------------------------------------------------------------------




--------------------------------------- Iteration      1(   7)  ---------------------------------------


    EDDIAG:  cpu time      0.3749: real time      0.3885
  RMM-DIIS:  cpu time      1.1775: real time      1.1805
    ORTHCH:  cpu time      0.0629: real time      0.0631
 BZINTS: Fermi energy:    3.808884;  112.000000 electrons
         Band energy:-0.178764E+03;  BLOECHL correction:    0.000000
       DOS:  cpu time      0.0151: real time      0.0151
    --------------------------------------------
      LOOP:  cpu time      1.6304: real time      1.6471

 eigenvalue-minimisations  :  4664
 total energy-change (2. order) :-0.5441689E-04  (-0.5371349E-04)
 number of electron     111.9999996 magnetization 
 augmentation part      111.9999996 magnetization 

 Free energy of the ion-electron system (eV)
  ---------------------------------------------------
  alpha Z        PSCENC =       116.37456510
  Ewald energy   TEWEN  =     -4031.12465643
  -Hartree energ DENC   =      -505.92239639
  -exchange      EXHF   =         0.00000000
  -V(xc)+E(xc)   XCENC  =      -361.29518050
  PAW double counting   =      6046.73013445    -5455.83328702
  entropy T*S    EENTRO =         0.00000000
  eigenvalues    EBANDS =      -178.76437171
  atomic energy  EATOM  =      4282.28387907
  Solvation  Ediel_sol  =         0.00000000
  ---------------------------------------------------
  free energy    TOTEN  =       -87.55131344 eV

  energy without entropy =      -87.55131344  energy(sigma->0) =      -87.55131344


--------------------------------------------------------------------------------------------------------




--------------------------------------- Iteration      1(   8)  ---------------------------------------


    EDDIAG:  cpu time      0.3759: real time      0.3911
  RMM-DIIS:  cpu time      1.1505: real time      1.1533
    ORTHCH:  cpu time      0.0649: real time      0.0651
 BZINTS: Fermi energy:    3.806415;  112.000000 electrons
         Band energy:-0.178764E+03;  BLOECHL correction:    0.000000
       DOS:  cpu time      0.0148: real time      0.0148
    --------------------------------------------
      LOOP:  cpu time      1.6061: real time      1.6244

 eigenvalue-minimisations  :  4099
 total energy-change (2. order) :-0.6685161E-05  (-0.6625264E-05)
 number of electron     111.9999996 magnetization 
 augmentation part      111.9999996 magnetization 

 Free energy of the ion-electron system (eV)
  ---------------------------------------------------
  alpha Z        PSCENC =       116.37456510
  Ewald energy   TEWEN  =     -4031.12465643
  -Hartree energ DENC   =      -505.92239639
  -exchange      EXHF   =         0.00000000
  -V(xc)+E(xc)   XCENC  =      -361.29518050
  PAW double counting   =      6046.73013445    -5455.83328702
  entropy T*S    EENTRO =         0.00000000
  eigenvalues    EBANDS =      -178.76437840
  atomic energy  EATOM  =      4282.28387907
  Solvation  Ediel_sol  =         0.00000000
  ---------------------------------------------------
  free energy    TOTEN  =       -87.55132012 eV

  energy without entropy =      -87.55132012  energy(sigma->0) =      -87.55132012


--------------------------------------------------------------------------------------------------------




 average (electrostatic) potential at core
  the test charge radii are     1.1712  1.0808
  (the norm of the test charge is              1.0000)
       1 -88.8117       2 -88.8117       3 -88.8117       4 -88.8117       5 -88.8808
       6 -88.8808       7 -88.8808       8 -88.8808       9 -53.8168      10 -53.8168
      11 -53.8168      12 -53.8168      13 -53.9067      14 -53.9067      15 -53.9067
      16 -53.9067      17 -53.8309      18 -53.8309      19 -53.8309      20 -53.8309
 
 
 
 E-fermi :   3.8064     XC(G=0):  -9.1650     alpha+bet : -9.3892

 Fermi energy:         3.8064149209

 k-point     1 :       0.0000    0.0000    0.0000
  band No.  band energies     occupation 
      1     -10.1841      2.00000
      2      -9.9774      2.00000
      3      -9.6510      2.00000
      4      -9.5383      2.00000
      5      -9.4269      2.00000
      6      -9.2752      2.00000
      7      -8.7649      2.00000
      8      -8.5978      2.00000
      9      -8.5143      2.00000
     10      -8.3833      2.00000
     11      -8.3521      2.00000
     12      -8.2939      2.00000
     13      -5.1419      2.00000
     14      -4.9618      2.00000
     15      -4.8532      2.00000
     16      -4.4537      2.00000
     17      -4.3730      2.00000
     18      -4.3371      2.00000
     19      -3.3771      2.00000
     20      -3.0939      2.00000
     21      -0.6978      2.00000
     22      -0.5826      2.00000
     23      -0.1713      2.00000
     24       0.0009      2.00000
     25       0.2999      2.00000
     26       0.4278      2.00000
     27       0.5338      2.00000
     28       0.6406      2.00000
     29       0.8706      2.00000
     30       0.9069      2.00000
     31       1.2121      2.00000
     32       1.3049      2.00000
     33       1.3647      2.00000
     34       1.3688      2.00000
     35       1.5404      2.00000
     36       1.6188      2.00000
     37       1.6534      2.00000
     38       1.6819      2.00000
     39       1.9217      2.00000
     40       2.0354      2.00000
     41       2.3167      2.00000
     42       2.4440      2.00000
     43       2.4731      2.00000
     44       2.6469      2.00000
     45       2.7494      2.00000
     46       2.8953      2.00000
     47       2.9006      2.00000
     48       3.0660      2.00000
     49       3.0802      2.00000
     50       3.1352      2.00000
     51       3.2023      2.00000
     52       3.2104      2.00000
     53       3.5066      2.00000
     54       3.6630      2.00000
     55       3.6736      2.00000
     56       3.7200      2.00000
     57       4.8821      0.00000
     58       5.0405      0.00000
     59       5.1208      0.00000
     60       5.1482      0.00000
     61       5.5415      0.00000
     62       5.5850      0.00000
     63       5.9890      0.00000
     64       6.0285      0.00000
     65       6.2139      0.00000
     66       6.2273      0.00000
     67       6.2694      0.00000
     68       6.5013      0.00000
     69       6.5715      0.00000
     70       6.5917      0.00000
     71       6.6674      0.00000
     72       6.7520      0.00000
     73       6.8860      0.00000
     74       6.9664      0.00000
     75       7.3553      0.00000
     76       7.3991      0.00000
     77       7.5924      0.00000
     78       8.0449      0.00000
     79       8.1483      0.00000
     80       8.3281      0.00000
     81       8.3858      0.00000
     82       8.6541      0.00000
     83       9.7234      0.00000
     84       9.9623      0.00000
     85      10.0302      0.00000
     86      10.3753      0.00000
     87      10.6090      0.00000
     88      10.6481      0.00000
     89      11.0337      0.00000
     90      11.0419      0.00000
     91      11.0426      0.00000
     92      11.1781      0.00000
     93      11.5284      0.00000
     94      11.5743      0.00000
     95      11.6346      0.00000
     96      11.7194      0.00000
     97      11.7406      0.00000
     98      11.7408      0.00000
     99      12.0487      0.00000
    100      12.1382      0.00000
    101      12.2721      0.00000
    102      12.4090      0.00000
    103      12.5526      0.00000
    104      12.7128      0.00000
    105      12.7801      0.00000
    106      13.0206      0.00000
    107      13.0379      0.00000
    108      13.0772      0.00000

 k-point     2 :       0.1429    0.0000    0.0000
  band No.  band energies     occupation 
      1     -10.0507      2.00000
      2      -9.8498      2.00000
      3      -9.5328      2.00000
      4      -9.4237      2.00000
      5      -9.3057      2.00000
      6      -9.1675      2.00000
      7      -8.6786      2.00000
      8      -8.5532      2.00000
      9      -8.4648      2.00000
     10      -8.3450      2.00000
     11      -8.3022      2.00000
     12      -8.2780      2.00000
     13      -5.2029      2.00000
     14      -5.0448      2.00000
     15      -4.8323      2.00000
     16      -4.5087      2.00000
     17      -4.4222      2.00000
     18      -4.3873      2.00000
     19      -3.5135      2.00000
     20      -3.3147      2.00000
     21      -0.6578      2.00000
     22      -0.4914      2.00000
     23      -0.2063      2.00000
     24      -0.1544      2.00000
     25      -0.1343      2.00000
     26       0.0468      2.00000
     27       0.2053      2.00000
     28       0.2589      2.00000
     29       0.3740      2.00000
     30       0.5280      2.00000
     31       0.7288      2.00000
     32       0.8330      2.00000
     33       1.0267      2.00000
     34       1.1617      2.00000
     35       1.4021      2.00000
     36       1.6429      2.00000
     37       1.6539      2.00000
     38       1.7544      2.00000
     39       1.7869      2.00000
     40       1.8472      2.00000
     41       1.9491      2.00000
     42       1.9605      2.00000
     43       2.3723      2.00000
     44       2.4319      2.00000
     45       2.6102      2.00000
     46       2.7964      2.00000
     47       2.8156      2.00000
     48       2.9905      2.00000
     49       3.1238      2.00000
     50       3.2537      2.00000
     51       3.2706      2.00000
     52       3.3355      2.00000
     53       3.5574      2.00000
     54       3.6107      2.00000
     55       3.6285      2.00000
     56       3.6928      2.00000
     57       4.9979      0.00000
     58       5.3303      0.00000
     59       5.3790      0.00000
     60       5.8294      0.00000
     61       5.8398      0.00000
     62       5.9032      0.00000
     63       6.0003      0.00000
     64       6.0129      0.00000
     65       6.2028      0.00000
     66       6.2578      0.00000
     67       6.3486      0.00000
     68       6.4474      0.00000
     69       6.5729      0.00000
     70       6.9393      0.00000
     71       6.9421      0.00000
     72       7.2183      0.00000
     73       7.2350      0.00000
     74       7.3946      0.00000
     75       7.5526      0.00000
     76       7.5954      0.00000
     77       7.6444      0.00000
     78       7.9303      0.00000
     79       8.2219      0.00000
     80       8.3094      0.00000
     81       8.7770      0.00000
     82       9.1517      0.00000
     83       9.8678      0.00000
     84       9.9455      0.00000
     85       9.9620      0.00000
     86       9.9778      0.00000
     87      10.3049      0.00000
     88      10.3268      0.00000
     89      10.6298      0.00000
     90      10.7633      0.00000
     91      10.7835      0.00000
     92      10.9746      0.00000
     93      11.1509      0.00000
     94      11.3899      0.00000
     95      11.5096      0.00000
     96      11.5881      0.00000
     97      11.8347      0.00000
     98      12.0220      0.00000
     99      12.1999      0.00000
    100      12.2325      0.00000
    101      12.3763      0.00000
    102      12.5500      0.00000
    103      12.5534      0.00000
    104      12.8066      0.00000
    105      12.9961      0.00000
    106      13.1667      0.00000
    107      13.2676      0.00000
    108      13.3846      0.00000

 k-point     3 :       0.2857    0.0000    0.0000
  band No.  band energies     occupation 
      1      -9.6728      2.00000
      2      -9.4919      2.00000
      3      -9.2124      2.00000
      4      -9.1145      2.00000
      5      -8.9755      2.00000
      6      -8.8858      2.00000
      7      -8.4898      2.00000
      8      -8.4744      2.00000
      9      -8.4060      2.00000
     10      -8.2997      2.00000
     11      -8.2826      2.00000
     12      -8.2097      2.00000
     13      -5.3249      2.00000
     14      -5.2556      2.00000
     15      -4.8376      2.00000
     16      -4.7364      2.00000
     17      -4.6367      2.00000
     18      -4.5353      2.00000
     19      -3.9753      2.00000
     20      -3.9476      2.00000
     21      -0.8764      2.00000
     22      -0.8289      2.00000
     23      -0.7884      2.00000
     24      -0.7029      2.00000
     25      -0.4052      2.00000
     26      -0.2235      2.00000
     27      -0.1857      2.00000
     28      -0.1120      2.00000
     29       0.2038      2.00000
     30       0.2510      2.00000
     31       0.4779      2.00000
     32       0.6164      2.00000
     33       0.6655      2.00000
     34       0.7776      2.00000
     35       1.0273      2.00000
     36       1.0890      2.00000
     37       1.1285      2.00000
     38       1.2118      2.00000
     39       1.4421      2.00000
     40       1.7491      2.00000
     41       1.7601      2.00000
     42       1.9450      2.00000
     43       2.1392      2.00000
     44       2.2260      2.00000
     45       2.3203      2.00000
     46       2.4930      2.00000
     47       2.5830      2.00000
     48       2.6891      2.00000
     49       2.8436      2.00000
     50       2.9666      2.00000
     51       2.9987      2.00000
     52       3.0107      2.00000
     53       3.3623      2.00000
     54       3.3802      2.00000
     55       3.3972      2.00000
     56       3.4030      2.00000
     57       5.1314      0.00000
     58       5.4777      0.00000
     59       5.6482      0.00000
     60       5.8478      0.00000
     61       6.0246      0.00000
     62       6.2215      0.00000
     63       6.2870      0.00000
     64       6.3972      0.00000
     65       6.4904      0.00000
     66       6.6091      0.00000
     67       6.7148      0.00000
     68       6.7419      0.00000
     69       7.0223      0.00000
     70       7.1706      0.00000
     71       7.2242      0.00000
     72       7.2892      0.00000
     73       7.4448      0.00000
     74       7.4691      0.00000
     75       7.7785      0.00000
     76       7.9277      0.00000
     77       8.2531      0.00000
     78       8.3598      0.00000
     79       8.4248      0.00000
     80       8.4765      0.00000
     81       9.1100      0.00000
     82       9.2716      0.00000
     83       9.3573      0.00000
     84       9.7294      0.00000
     85       9.9737      0.00000
     86      10.1323      0.00000
     87      10.3937      0.00000
     88      10.4858      0.00000
     89      10.6911      0.00000
     90      11.0764      0.00000
     91      11.1898      0.00000
     92      11.2464      0.00000
     93      11.4782      0.00000
     94      11.5738      0.00000
     95      11.7615      0.00000
     96      11.8595      0.00000
     97      11.8622      0.00000
     98      11.8657      0.00000
     99      12.0626      0.00000
    100      12.1598      0.00000
    101      12.3026      0.00000
    102      12.5343      0.00000
    103      12.7992      0.00000
    104      12.8296      0.00000
    105      12.9233      0.00000
    106      13.0884      0.00000
    107      13.2543      0.00000
    108      13.3524      0.00000

 k-point     4 :       0.4286    0.0000    0.0000
  band No.  band energies     occupation 
      1      -9.1342      2.00000
      2      -8.9984      2.00000
      3      -8.8151      2.00000
      4      -8.7469      2.00000
      5      -8.6010      2.00000
      6      -8.5976      2.00000
      7      -8.5606      2.00000
      8      -8.5476      2.00000
      9      -8.5086      2.00000
     10      -8.3129      2.00000
     11      -8.3085      2.00000
     12      -8.2553      2.00000
     13      -5.2734      2.00000
     14      -5.2493      2.00000
     15      -5.0387      2.00000
     16      -4.9606      2.00000
     17      -4.9168      2.00000
     18      -4.7380      2.00000
     19      -4.6482      2.00000
     20      -4.6345      2.00000
     21      -1.1656      2.00000
     22      -1.1491      2.00000
     23      -1.1252      2.00000
     24      -1.0439      2.00000
     25      -0.2550      2.00000
     26      -0.1882      2.00000
     27      -0.1263      2.00000
     28      -0.0636      2.00000
     29       0.0422      2.00000
     30       0.1506      2.00000
     31       0.3655      2.00000
     32       0.5019      2.00000
     33       0.6141      2.00000
     34       0.6604      2.00000
     35       0.6647      2.00000
     36       0.8286      2.00000
     37       0.9165      2.00000
     38       1.0862      2.00000
     39       1.0997      2.00000
     40       1.2133      2.00000
     41       1.4532      2.00000
     42       1.5435      2.00000
     43       1.5448      2.00000
     44       1.7361      2.00000
     45       2.4791      2.00000
     46       2.5267      2.00000
     47       2.5274      2.00000
     48       2.5383      2.00000
     49       2.5939      2.00000
     50       2.5978      2.00000
     51       2.7199      2.00000
     52       2.7565      2.00000
     53       3.2182      2.00000
     54       3.2753      2.00000
     55       3.3470      2.00000
     56       3.5740      2.00000
     57       5.6085      0.00000
     58       5.6098      0.00000
     59       5.6387      0.00000
     60       5.8107      0.00000
     61       5.8458      0.00000
     62       5.8806      0.00000
     63       5.9956      0.00000
     64       6.1007      0.00000
     65       6.2726      0.00000
     66       6.5417      0.00000
     67       6.8520      0.00000
     68       6.9751      0.00000
     69       7.0495      0.00000
     70       7.2012      0.00000
     71       7.3399      0.00000
     72       7.5057      0.00000
     73       7.5337      0.00000
     74       7.5392      0.00000
     75       7.5964      0.00000
     76       7.7100      0.00000
     77       8.3473      0.00000
     78       8.6477      0.00000
     79       8.7192      0.00000
     80       8.7430      0.00000
     81       8.9521      0.00000
     82       9.0050      0.00000
     83       9.0783      0.00000
     84       9.3228      0.00000
     85      10.0923      0.00000
     86      10.1554      0.00000
     87      10.2856      0.00000
     88      10.4500      0.00000
     89      10.9633      0.00000
     90      11.0124      0.00000
     91      11.4968      0.00000
     92      11.7837      0.00000
     93      12.0397      0.00000
     94      12.0566      0.00000
     95      12.3798      0.00000
     96      12.4381      0.00000
     97      12.4927      0.00000
     98      12.6830      0.00000
     99      12.7487      0.00000
    100      12.9179      0.00000
    101      13.4279      0.00000
    102      13.5623      0.00000
    103      13.5724      0.00000
    104      13.5958      0.00000
    105      13.7108      0.00000
    106      13.7343      0.00000
    107      13.7870      0.00000
    108      13.8720      0.00000

 k-point     5 :       0.0000    0.5000    0.0000
  band No.  band energies     occupation 
      1     -10.0493      2.00000
      2     -10.0493      2.00000
      3      -9.7659      2.00000
      4      -9.7659      2.00000
      5      -9.0816      2.00000
      6      -9.0816      2.00000
      7      -8.8608      2.00000
      8      -8.8608      2.00000
      9      -8.3877      2.00000
     10      -8.3877      2.00000
     11      -8.3334      2.00000
     12      -8.3334      2.00000
     13      -5.0308      2.00000
     14      -5.0308      2.00000
     15      -4.9091      2.00000
     16      -4.9091      2.00000
     17      -3.9953      2.00000
     18      -3.9953      2.00000
     19      -3.3503      2.00000
     20      -3.3503      2.00000
     21      -0.5282      2.00000
     22      -0.5282      2.00000
     23      -0.4042      2.00000
     24      -0.4042      2.00000
     25       0.2373      2.00000
     26       0.2373      2.00000
     27       0.8338      2.00000
     28       0.8338      2.00000
     29       1.0371      2.00000
     30       1.0371      2.00000
     31       1.2267      2.00000
     32       1.2267      2.00000
     33       1.4250      2.00000
     34       1.4250      2.00000
     35       1.6319      2.00000
     36       1.6319      2.00000
     37       1.7884      2.00000
     38       1.7884      2.00000
     39       2.0309      2.00000
     40       2.0309      2.00000
     41       2.0954      2.00000
     42       2.0954      2.00000
     43       2.5251      2.00000
     44       2.5251      2.00000
     45       2.9398      2.00000
     46       2.9398      2.00000
     47       2.9912      2.00000
     48       2.9912      2.00000
     49       3.0662      2.00000
     50       3.0662      2.00000
     51       3.0927      2.00000
     52       3.0927      2.00000
     53       3.5170      2.00000
     54       3.5170      2.00000
     55       3.7001      2.00000
     56       3.7001      2.00000
     57       4.6873      0.00000
     58       4.6873      0.00000
     59       5.4906      0.00000
     60       5.4906      0.00000
     61       5.9381      0.00000
     62       5.9381      0.00000
     63       5.9762      0.00000
     64       5.9762      0.00000
     65       6.1021      0.00000
     66       6.1021      0.00000
     67       6.1465      0.00000
     68       6.1465      0.00000
     69       6.3186      0.00000
     70       6.3186      0.00000
     71       6.9932      0.00000
     72       6.9932      0.00000
     73       7.0220      0.00000
     74       7.0220      0.00000
     75       7.6171      0.00000
     76       7.6171      0.00000
     77       7.7409      0.00000
     78       7.7409      0.00000
     79       7.9651      0.00000
     80       7.9651      0.00000
     81       8.4566      0.00000
     82       8.4566      0.00000
     83       9.7706      0.00000
     84       9.7706      0.00000
     85      10.3547      0.00000
     86      10.3547      0.00000
     87      10.6609      0.00000
     88      10.6609      0.00000
     89      10.9763      0.00000
     90      10.9763      0.00000
     91      11.3765      0.00000
     92      11.3765      0.00000
     93      11.4893      0.00000
     94      11.4893      0.00000
     95      11.7102      0.00000
     96      11.7102      0.00000
     97      11.9075      0.00000
     98      11.9076      0.00000
     99      11.9503      0.00000
    100      11.9504      0.00000
    101      12.3524      0.00000
    102      12.3528      0.00000
    103      12.4794      0.00000
    104      12.4803      0.00000
    105      12.5876      0.00000
    106      12.5907      0.00000
    107      12.8124      0.00000
    108      12.8309      0.00000

 k-point     6 :       0.1429    0.5000    0.0000
  band No.  band energies     occupation 
      1      -9.9209      2.00000
      2      -9.9209      2.00000
      3      -9.6390      2.00000
      4      -9.6390      2.00000
      5      -8.9853      2.00000
      6      -8.9853      2.00000
      7      -8.7740      2.00000
      8      -8.7740      2.00000
      9      -8.3504      2.00000
     10      -8.3504      2.00000
     11      -8.3058      2.00000
     12      -8.3058      2.00000
     13      -5.0622      2.00000
     14      -5.0622      2.00000
     15      -4.9531      2.00000
     16      -4.9531      2.00000
     17      -4.0631      2.00000
     18      -4.0631      2.00000
     19      -3.5318      2.00000
     20      -3.5318      2.00000
     21      -0.4551      2.00000
     22      -0.4551      2.00000
     23      -0.3776      2.00000
     24      -0.3776      2.00000
     25      -0.1986      2.00000
     26      -0.1986      2.00000
     27       0.3138      2.00000
     28       0.3138      2.00000
     29       0.6482      2.00000
     30       0.6482      2.00000
     31       0.9349      2.00000
     32       0.9349      2.00000
     33       1.1024      2.00000
     34       1.1024      2.00000
     35       1.3657      2.00000
     36       1.3657      2.00000
     37       1.6684      2.00000
     38       1.6684      2.00000
     39       1.8127      2.00000
     40       1.8127      2.00000
     41       1.9146      2.00000
     42       1.9146      2.00000
     43       2.2399      2.00000
     44       2.2399      2.00000
     45       2.6584      2.00000
     46       2.6584      2.00000
     47       2.9739      2.00000
     48       2.9739      2.00000
     49       3.2855      2.00000
     50       3.2855      2.00000
     51       3.4135      2.00000
     52       3.4135      2.00000
     53       3.5442      2.00000
     54       3.5442      2.00000
     55       3.6499      2.00000
     56       3.6499      2.00000
     57       5.3537      0.00000
     58       5.3537      0.00000
     59       5.6758      0.00000
     60       5.6758      0.00000
     61       5.7609      0.00000
     62       5.7609      0.00000
     63       6.0271      0.00000
     64       6.0271      0.00000
     65       6.2152      0.00000
     66       6.2152      0.00000
     67       6.2988      0.00000
     68       6.2988      0.00000
     69       6.6153      0.00000
     70       6.6153      0.00000
     71       6.9325      0.00000
     72       6.9325      0.00000
     73       7.2311      0.00000
     74       7.2311      0.00000
     75       7.6960      0.00000
     76       7.6960      0.00000
     77       7.9979      0.00000
     78       7.9979      0.00000
     79       8.2785      0.00000
     80       8.2785      0.00000
     81       8.8761      0.00000
     82       8.8761      0.00000
     83       9.8268      0.00000
     84       9.8268      0.00000
     85      10.0715      0.00000
     86      10.0715      0.00000
     87      10.3496      0.00000
     88      10.3496      0.00000
     89      10.6781      0.00000
     90      10.6781      0.00000
     91      11.0583      0.00000
     92      11.0583      0.00000
     93      11.4523      0.00000
     94      11.4524      0.00000
     95      11.7636      0.00000
     96      11.7637      0.00000
     97      11.8603      0.00000
     98      11.8604      0.00000
     99      12.0242      0.00000
    100      12.0243      0.00000
    101      12.3570      0.00000
    102      12.3576      0.00000
    103      12.5973      0.00000
    104      12.6061      0.00000
    105      12.8450      0.00000
    106      12.8773      0.00000
    107      12.9790      0.00000
    108      13.0303      0.00000

 k-point     7 :       0.2857    0.5000    0.0000
  band No.  band energies     occupation 
      1      -9.5595      2.00000
      2      -9.5595      2.00000
      3      -9.2886      2.00000
      4      -9.2886      2.00000
      5      -8.7486      2.00000
      6      -8.7486      2.00000
      7      -8.5632      2.00000
      8      -8.5632      2.00000
      9      -8.3408      2.00000
     10      -8.3408      2.00000
     11      -8.2570      2.00000
     12      -8.2570      2.00000
     13      -5.1808      2.00000
     14      -5.1808      2.00000
     15      -5.0700      2.00000
     16      -5.0700      2.00000
     17      -4.3247      2.00000
     18      -4.3247      2.00000
     19      -4.0488      2.00000
     20      -4.0488      2.00000
     21      -0.9148      2.00000
     22      -0.9148      2.00000
     23      -0.6643      2.00000
     24      -0.6643      2.00000
     25      -0.3006      2.00000
     26      -0.3006      2.00000
     27      -0.0109      2.00000
     28      -0.0109      2.00000
     29       0.0375      2.00000
     30       0.0375      2.00000
     31       0.4888      2.00000
     32       0.4888      2.00000
     33       0.8504      2.00000
     34       0.8504      2.00000
     35       1.0378      2.00000
     36       1.0378      2.00000
     37       1.2070      2.00000
     38       1.2070      2.00000
     39       1.4303      2.00000
     40       1.4303      2.00000
     41       1.8329      2.00000
     42       1.8329      2.00000
     43       2.0868      2.00000
     44       2.0868      2.00000
     45       2.5108      2.00000
     46       2.5108      2.00000
     47       2.6282      2.00000
     48       2.6282      2.00000
     49       2.9373      2.00000
     50       2.9373      2.00000
     51       3.1544      2.00000
     52       3.1544      2.00000
     53       3.3633      2.00000
     54       3.3633      2.00000
     55       3.4471      2.00000
     56       3.4471      2.00000
     57       5.2766      0.00000
     58       5.2766      0.00000
     59       5.4830      0.00000
     60       5.4830      0.00000
     61       6.0886      0.00000
     62       6.0886      0.00000
     63       6.4142      0.00000
     64       6.4142      0.00000
     65       6.5867      0.00000
     66       6.5867      0.00000
     67       6.8160      0.00000
     68       6.8160      0.00000
     69       7.1148      0.00000
     70       7.1148      0.00000
     71       7.1665      0.00000
     72       7.1665      0.00000
     73       7.6452      0.00000
     74       7.6452      0.00000
     75       7.8834      0.00000
     76       7.8834      0.00000
     77       8.2949      0.00000
     78       8.2949      0.00000
     79       8.3044      0.00000
     80       8.3044      0.00000
     81       9.0437      0.00000
     82       9.0437      0.00000
     83       9.6890      0.00000
     84       9.6890      0.00000
     85      10.2189      0.00000
     86      10.2189      0.00000
     87      10.4622      0.00000
     88      10.4622      0.00000
     89      10.9013      0.00000
     90      10.9013      0.00000
     91      10.9989      0.00000
     92      10.9989      0.00000
     93      11.4751      0.00000
     94      11.4751      0.00000
     95      11.7880      0.00000
     96      11.7880      0.00000
     97      11.8902      0.00000
     98      11.8902      0.00000
     99      12.4319      0.00000
    100      12.4320      0.00000
    101      12.7148      0.00000
    102      12.7152      0.00000
    103      12.7503      0.00000
    104      12.7517      0.00000
    105      13.0498      0.00000
    106      13.0649      0.00000
    107      13.1563      0.00000
    108      13.1723      0.00000

 k-point     8 :       0.4286    0.5000    0.0000
  band No.  band energies     occupation 
      1      -9.0545      2.00000
      2      -9.0545      2.00000
      3      -8.8383      2.00000
      4      -8.8383      2.00000
      5      -8.5915      2.00000
      6      -8.5915      2.00000
      7      -8.5314      2.00000
      8      -8.5314      2.00000
      9      -8.3756      2.00000
     10      -8.3756      2.00000
     11      -8.3014      2.00000
     12      -8.3014      2.00000
     13      -5.1883      2.00000
     14      -5.1883      2.00000
     15      -5.1477      2.00000
     16      -5.1477      2.00000
     17      -4.7416      2.00000
     18      -4.7416      2.00000
     19      -4.6506      2.00000
     20      -4.6506      2.00000
     21      -1.1942      2.00000
     22      -1.1942      2.00000
     23      -0.9501      2.00000
     24      -0.9501      2.00000
     25      -0.3932      2.00000
     26      -0.3932      2.00000
     27      -0.2204      2.00000
     28      -0.2204      2.00000
     29       0.0865      2.00000
     30       0.0865      2.00000
     31       0.3519      2.00000
     32       0.3519      2.00000
     33       0.6324      2.00000
     34       0.6324      2.00000
     35       0.9020      2.00000
     36       0.9020      2.00000
     37       1.0472      2.00000
     38       1.0472      2.00000
     39       1.3450      2.00000
     40       1.3450      2.00000
     41       1.6375      2.00000
     42       1.6375      2.00000
     43       1.8118      2.00000
     44       1.8118      2.00000
     45       2.2931      2.00000
     46       2.2931      2.00000
     47       2.4912      2.00000
     48       2.4912      2.00000
     49       2.5912      2.00000
     50       2.5912      2.00000
     51       2.7862      2.00000
     52       2.7862      2.00000
     53       3.0973      2.00000
     54       3.0973      2.00000
     55       3.2463      2.00000
     56       3.2463      2.00000
     57       5.1935      0.00000
     58       5.1935      0.00000
     59       5.7721      0.00000
     60       5.7721      0.00000
     61       6.1550      0.00000
     62       6.1550      0.00000
     63       6.5055      0.00000
     64       6.5055      0.00000
     65       6.6540      0.00000
     66       6.6540      0.00000
     67       6.8504      0.00000
     68       6.8504      0.00000
     69       6.9657      0.00000
     70       6.9657      0.00000
     71       7.2162      0.00000
     72       7.2162      0.00000
     73       7.5733      0.00000
     74       7.5733      0.00000
[...]
   26.096742    0.656395    0.655395    0.650696    0.000000   -0.000000   -0.000000
   26.111289    0.656809    0.655811    0.651120    0.000000   -0.000000   -0.000000
   26.125836    0.657222    0.656225    0.651544    0.000000   -0.000000   -0.000000
   26.140382    0.657635    0.656639    0.651966    0.000000   -0.000000   -0.000000
   26.154929    0.658046    0.657053    0.652388    0.000000   -0.000000   -0.000000
   26.169476    0.658457    0.657465    0.652809    0.000000   -0.000000   -0.000000
   26.184022    0.658867    0.657877    0.653230    0.000000   -0.000000   -0.000000
   26.198569    0.659276    0.658287    0.653649    0.000000   -0.000000   -0.000000
   26.213116    0.659685    0.658697    0.654068    0.000000   -0.000000   -0.000000
   26.227662    0.660092    0.659107    0.654486    0.000000   -0.000000   -0.000000
   26.242209    0.660499    0.659515    0.654903    0.000000   -0.000000   -0.000000
   26.256756    0.660905    0.659923    0.655320    0.000000   -0.000000   -0.000000
   26.271303    0.661311    0.660330    0.655735    0.000000   -0.000000   -0.000000
   26.285849    0.661715    0.660736    0.656150    0.000000   -0.000000   -0.000000
   26.300396    0.662119    0.661142    0.656564    0.000000   -0.000000   -0.000000
   26.314943    0.662522    0.661546    0.656977    0.000000   -0.000000   -0.000000
   26.329489    0.662925    0.661950    0.657390    0.000000   -0.000000   -0.000000
   26.344036    0.663326    0.662354    0.657801    0.000000   -0.000000   -0.000000
   26.358583    0.663727    0.662756    0.658212    0.000000   -0.000000   -0.000000
   26.373129    0.664127    0.663158    0.658623    0.000000   -0.000000   -0.000000
   26.387676    0.664527    0.663559    0.659032    0.000000   -0.000000   -0.000000
   26.402223    0.664926    0.663959    0.659441    0.000000   -0.000000   -0.000000
   26.416769    0.665323    0.664359    0.659848    0.000000   -0.000000   -0.000000
   26.431316    0.665721    0.664757    0.660255    0.000000   -0.000000   -0.000000
   26.445863    0.666117    0.665155    0.660662    0.000000   -0.000000   -0.000000
   26.460409    0.666513    0.665552    0.661067    0.000000   -0.000000   -0.000000
   26.474956    0.666908    0.665949    0.661472    0.000000   -0.000000   -0.000000
   26.489503    0.667302    0.666345    0.661876    0.000000   -0.000000   -0.000000
   26.504049    0.667696    0.666740    0.662279    0.000000   -0.000000   -0.000000
   26.518596    0.668088    0.667134    0.662682    0.000000   -0.000000   -0.000000
   26.533143    0.668480    0.667528    0.663084    0.000000   -0.000000   -0.000000
   26.547689    0.668872    0.667921    0.663485    0.000000   -0.000000   -0.000000
   26.562236    0.669262    0.668313    0.663885    0.000000   -0.000000   -0.000000
   26.576783    0.669652    0.668704    0.664285    0.000000   -0.000000   -0.000000
   26.591329    0.670042    0.669095    0.664684    0.000000   -0.000000   -0.000000
   26.605876    0.670430    0.669485    0.665082    0.000000   -0.000000   -0.000000
   26.620423    0.670818    0.669874    0.665479    0.000000   -0.000000   -0.000000
   26.634969    0.671205    0.670263    0.665876    0.000000   -0.000000   -0.000000
   26.649516    0.671591    0.670651    0.666271    0.000000   -0.000000   -0.000000
   26.664063    0.671977    0.671038    0.666667    0.000000   -0.000000   -0.000000
   26.678610    0.672362    0.671424    0.667061    0.000000   -0.000000   -0.000000
   26.693156    0.672746    0.671810    0.667455    0.000000   -0.000000   -0.000000
   26.707703    0.673130    0.672195    0.667848    0.000000   -0.000000   -0.000000
   26.722250    0.673512    0.672579    0.668240    0.000000   -0.000000   -0.000000
   26.736796    0.673895    0.672963    0.668631    0.000000   -0.000000   -0.000000
   26.751343    0.674276    0.673346    0.669022    0.000000   -0.000000   -0.000000
   26.765890    0.674657    0.673728    0.669412    0.000000   -0.000000   -0.000000
   26.780436    0.675037    0.674109    0.669801    0.000000   -0.000000   -0.000000
   26.794983    0.675416    0.674490    0.670190    0.000000   -0.000000   -0.000000
   26.809530    0.675795    0.674870    0.670578    0.000000   -0.000000   -0.000000
   26.824076    0.676173    0.675250    0.670965    0.000000   -0.000000   -0.000000
   26.838623    0.676550    0.675628    0.671352    0.000000   -0.000000   -0.000000
   26.853170    0.676927    0.676006    0.671737    0.000000   -0.000000   -0.000000
   26.867716    0.677303    0.676384    0.672122    0.000000   -0.000000   -0.000000
   26.882263    0.677678    0.676760    0.672507    0.000000   -0.000000   -0.000000
   26.896810    0.678052    0.677136    0.672891    0.000000   -0.000000   -0.000000
   26.911356    0.678426    0.677512    0.673274    0.000000   -0.000000   -0.000000
   26.925903    0.678800    0.677886    0.673656    0.000000   -0.000000   -0.000000
   26.940450    0.679172    0.678260    0.674037    0.000000   -0.000000   -0.000000
   26.954996    0.679544    0.678634    0.674418    0.000000   -0.000000   -0.000000
   26.969543    0.679915    0.679006    0.674798    0.000000   -0.000000   -0.000000
   26.984090    0.680286    0.679378    0.675178    0.000000   -0.000000   -0.000000
   26.998636    0.680656    0.679749    0.675557    0.000000   -0.000000   -0.000000
   27.013183    0.681025    0.680120    0.675935    0.000000   -0.000000   -0.000000
   27.027730    0.681393    0.680490    0.676312    0.000000   -0.000000   -0.000000
   27.042276    0.681761    0.680859    0.676689    0.000000   -0.000000   -0.000000
   27.056823    0.682128    0.681228    0.677065    0.000000   -0.000000   -0.000000
   27.071370    0.682495    0.681596    0.677440    0.000000   -0.000000   -0.000000
   27.085917    0.682861    0.681963    0.677815    0.000000   -0.000000   -0.000000
   27.100463    0.683226    0.682329    0.678189    0.000000   -0.000000   -0.000000
   27.115010    0.683591    0.682695    0.678562    0.000000   -0.000000   -0.000000
   27.129557    0.683955    0.683061    0.678935    0.000000   -0.000000   -0.000000
   27.144103    0.684318    0.683425    0.679307    0.000000   -0.000000   -0.000000
   27.158650    0.684681    0.683789    0.679678    0.000000   -0.000000   -0.000000
   27.173197    0.685043    0.684153    0.680049    0.000000   -0.000000   -0.000000
   27.187743    0.685404    0.684515    0.680419    0.000000   -0.000000   -0.000000
   27.202290    0.685765    0.684877    0.680788    0.000000   -0.000000   -0.000000
   27.216837    0.686125    0.685239    0.681157    0.000000   -0.000000   -0.000000
   27.231383    0.686484    0.685600    0.681525    0.000000   -0.000000   -0.000000
   27.245930    0.686843    0.685960    0.681892    0.000000   -0.000000   -0.000000
   27.260477    0.687201    0.686319    0.682259    0.000000   -0.000000   -0.000000
   27.275023    0.687558    0.686678    0.682625    0.000000   -0.000000   -0.000000
   27.289570    0.687915    0.687036    0.682991    0.000000   -0.000000   -0.000000
   27.304117    0.688272    0.687394    0.683355    0.000000   -0.000000   -0.000000
   27.318663    0.688627    0.687751    0.683719    0.000000   -0.000000   -0.000000
   27.333210    0.688982    0.688107    0.684083    0.000000   -0.000000   -0.000000
   27.347757    0.689337    0.688463    0.684445    0.000000   -0.000000   -0.000000
   27.362303    0.689690    0.688818    0.684808    0.000000   -0.000000   -0.000000
   27.376850    0.690043    0.689172    0.685169    0.000000   -0.000000   -0.000000
   27.391397    0.690396    0.689526    0.685530    0.000000   -0.000000   -0.000000
   27.405943    0.690748    0.689879    0.685890    0.000000   -0.000000   -0.000000
   27.420490    0.691099    0.690232    0.686250    0.000000   -0.000000   -0.000000
   27.435037    0.691450    0.690583    0.686608    0.000000   -0.000000   -0.000000
   27.449584    0.691800    0.690935    0.686967    0.000000   -0.000000   -0.000000
   27.464130    0.692149    0.691285    0.687324    0.000000   -0.000000   -0.000000
   27.478677    0.692498    0.691635    0.687681    0.000000   -0.000000   -0.000000
   27.493224    0.692846    0.691985    0.688038    0.000000   -0.000000   -0.000000
   27.507770    0.693193    0.692334    0.688393    0.000000   -0.000000   -0.000000
   27.522317    0.693540    0.692682    0.688749    0.000000   -0.000000   -0.000000
   27.536864    0.693887    0.693030    0.689103    0.000000   -0.000000   -0.000000
   27.551410    0.694232    0.693377    0.689457    0.000000   -0.000000   -0.000000
   27.565957    0.694577    0.693723    0.689810    0.000000   -0.000000   -0.000000
   27.580504    0.694922    0.694069    0.690163    0.000000   -0.000000   -0.000000
   27.595050    0.695266    0.694414    0.690515    0.000000   -0.000000   -0.000000
   27.609597    0.695609    0.694758    0.690866    0.000000   -0.000000   -0.000000
   27.624144    0.695952    0.695102    0.691217    0.000000   -0.000000   -0.000000
   27.638690    0.696294    0.695446    0.691567    0.000000   -0.000000   -0.000000
   27.653237    0.696636    0.695788    0.691916    0.000000   -0.000000   -0.000000
   27.667784    0.696976    0.696131    0.692265    0.000000   -0.000000   -0.000000
   27.682330    0.697317    0.696472    0.692613    0.000000   -0.000000   -0.000000
   27.696877    0.697657    0.696813    0.692961    0.000000   -0.000000   -0.000000
   27.711424    0.697996    0.697154    0.693308    0.000000   -0.000000   -0.000000
   27.725970    0.698334    0.697493    0.693655    0.000000   -0.000000   -0.000000
   27.740517    0.698672    0.697833    0.694000    0.000000   -0.000000   -0.000000
   27.755064    0.699010    0.698171    0.694346    0.000000   -0.000000   -0.000000
   27.769610    0.699346    0.698509    0.694690    0.000000   -0.000000   -0.000000
   27.784157    0.699683    0.698847    0.695034    0.000000   -0.000000   -0.000000
   27.798704    0.700018    0.699183    0.695378    0.000000   -0.000000   -0.000000
   27.813250    0.700353    0.699520    0.695720    0.000000   -0.000000   -0.000000
   27.827797    0.700688    0.699855    0.696063    0.000000   -0.000000   -0.000000
   27.842344    0.701022    0.700190    0.696404    0.000000   -0.000000   -0.000000
   27.856891    0.701355    0.700525    0.696745    0.000000   -0.000000   -0.000000
   27.871437    0.701688    0.700859    0.697086    0.000000   -0.000000   -0.000000
   27.885984    0.702020    0.701192    0.697426    0.000000   -0.000000   -0.000000
   27.900531    0.702351    0.701525    0.697765    0.000000   -0.000000   -0.000000
   27.915077    0.702682    0.701857    0.698103    0.000000   -0.000000   -0.000000
   27.929624    0.703013    0.702189    0.698442    0.000000   -0.000000   -0.000000
   27.944171    0.703343    0.702520    0.698779    0.000000   -0.000000   -0.000000
   27.958717    0.703672    0.702850    0.699116    0.000000   -0.000000   -0.000000
   27.973264    0.704001    0.703180    0.699452    0.000000   -0.000000   -0.000000
   27.987811    0.704329    0.703510    0.699788    0.000000   -0.000000   -0.000000
   28.002357    0.704657    0.703839    0.700123    0.000000   -0.000000   -0.000000
   28.016904    0.704984    0.704167    0.700458    0.000000   -0.000000   -0.000000
   28.031451    0.705310    0.704494    0.700792    0.000000   -0.000000   -0.000000
   28.045997    0.705636    0.704822    0.701125    0.000000   -0.000000   -0.000000
   28.060544    0.705962    0.705148    0.701458    0.000000   -0.000000   -0.000000
   28.075091    0.706286    0.705474    0.701790    0.000000   -0.000000   -0.000000
   28.089637    0.706611    0.705800    0.702122    0.000000   -0.000000   -0.000000
   28.104184    0.706934    0.706124    0.702453    0.000000   -0.000000   -0.000000
   28.118731    0.707258    0.706449    0.702784    0.000000   -0.000000   -0.000000
   28.133277    0.707580    0.706773    0.703114    0.000000   -0.000000   -0.000000
   28.147824    0.707902    0.707096    0.703443    0.000000   -0.000000   -0.000000
   28.162371    0.708224    0.707418    0.703772    0.000000   -0.000000   -0.000000
   28.176917    0.708545    0.707741    0.704100    0.000000   -0.000000   -0.000000
   28.191464    0.708865    0.708062    0.704428    0.000000   -0.000000   -0.000000
   28.206011    0.709185    0.708383    0.704755    0.000000   -0.000000   -0.000000
   28.220558    0.709504    0.708704    0.705082    0.000000   -0.000000   -0.000000
   28.235104    0.709823    0.709023    0.705408    0.000000   -0.000000   -0.000000
   28.249651    0.710141    0.709343    0.705733    0.000000   -0.000000   -0.000000
   28.264198    0.710459    0.709662    0.706058    0.000000   -0.000000   -0.000000
   28.278744    0.710776    0.709980    0.706382    0.000000   -0.000000   -0.000000
   28.293291    0.711093    0.710298    0.706706    0.000000   -0.000000   -0.000000
   28.307838    0.711409    0.710615    0.707029    0.000000   -0.000000   -0.000000
   28.322384    0.711725    0.710932    0.707352    0.000000   -0.000000   -0.000000
   28.336931    0.712040    0.711248    0.707674    0.000000   -0.000000   -0.000000
   28.351478    0.712354    0.711563    0.707996    0.000000   -0.000000   -0.000000
   28.366024    0.712668    0.711879    0.708317    0.000000   -0.000000   -0.000000
   28.380571    0.712982    0.712193    0.708637    0.000000   -0.000000   -0.000000
   28.395118    0.713295    0.712507    0.708957    0.000000   -0.000000   -0.000000
   28.409664    0.713607    0.712821    0.709277    0.000000   -0.000000   -0.000000
   28.424211    0.713919    0.713134    0.709596    0.000000   -0.000000   -0.000000
   28.438758    0.714230    0.713446    0.709914    0.000000   -0.000000   -0.000000
   28.453304    0.714541    0.713758    0.710232    0.000000   -0.000000   -0.000000
   28.467851    0.714851    0.714069    0.710549    0.000000   -0.000000   -0.000000
   28.482398    0.715161    0.714380    0.710866    0.000000   -0.000000   -0.000000
   28.496944    0.715470    0.714691    0.711182    0.000000   -0.000000   -0.000000
   28.511491    0.715779    0.715000    0.711498    0.000000   -0.000000   -0.000000
   28.526038    0.716087    0.715310    0.711813    0.000000   -0.000000   -0.000000
   28.540584    0.716395    0.715618    0.712128    0.000000   -0.000000   -0.000000
   28.555131    0.716702    0.715927    0.712442    0.000000   -0.000000   -0.000000
   28.569678    0.717009    0.716234    0.712755    0.000000   -0.000000   -0.000000
   28.584224    0.717315    0.716542    0.713068    0.000000   -0.000000   -0.000000
   28.598771    0.717621    0.716848    0.713381    0.000000   -0.000000   -0.000000
   28.613318    0.717926    0.717155    0.713693    0.000000   -0.000000   -0.000000
   28.627865    0.718230    0.717460    0.714004    0.000000   -0.000000   -0.000000
   28.642411    0.718535    0.717766    0.714315    0.000000   -0.000000   -0.000000
   28.656958    0.718838    0.718070    0.714625    0.000000   -0.000000   -0.000000
   28.671505    0.719141    0.718374    0.714935    0.000000   -0.000000   -0.000000
   28.686051    0.719444    0.718678    0.715244    0.000000   -0.000000   -0.000000
   28.700598    0.719746    0.718981    0.715553    0.000000   -0.000000   -0.000000
   28.715145    0.720048    0.719284    0.715862    0.000000   -0.000000   -0.000000
   28.729691    0.720349    0.719586    0.716169    0.000000   -0.000000   -0.000000
   28.744238    0.720649    0.719888    0.716477    0.000000   -0.000000   -0.000000
   28.758785    0.720949    0.720189    0.716783    0.000000   -0.000000   -0.000000
   28.773331    0.721249    0.720489    0.717090    0.000000   -0.000000   -0.000000
   28.787878    0.721548    0.720790    0.717395    0.000000   -0.000000   -0.000000
   28.802425    0.721847    0.721089    0.717701    0.000000   -0.000000   -0.000000
   28.816971    0.722145    0.721388    0.718005    0.000000   -0.000000   -0.000000
   28.831518    0.722443    0.721687    0.718310    0.000000   -0.000000   -0.000000
   28.846065    0.722740    0.721985    0.718613    0.000000   -0.000000   -0.000000
   28.860611    0.723036    0.722283    0.718916    0.000000   -0.000000   -0.000000
   28.875158    0.723332    0.722580    0.719219    0.000000   -0.000000   -0.000000
   28.889705    0.723628    0.722877    0.719521    0.000000   -0.000000   -0.000000
   28.904251    0.723923    0.723173    0.719823    0.000000   -0.000000   -0.000000
   28.918798    0.724218    0.723469    0.720124    0.000000   -0.000000   -0.000000
   28.933345    0.724512    0.723764    0.720425    0.000000   -0.000000   -0.000000
   28.947891    0.724806    0.724059    0.720725    0.000000   -0.000000   -0.000000
   28.962438    0.725099    0.724353    0.721025    0.000000   -0.000000   -0.000000
   28.976985    0.725392    0.724647    0.721324    0.000000   -0.000000   -0.000000
   28.991531    0.725684    0.724940    0.721623    0.000000   -0.000000   -0.000000
   29.006078    0.725976    0.725233    0.721921    0.000000   -0.000000   -0.000000
   29.020625    0.726267    0.725525    0.722219    0.000000   -0.000000   -0.000000
   29.035172    0.726558    0.725817    0.722516    0.000000   -0.000000   -0.000000
   29.049718    0.726849    0.726108    0.722812    0.000000   -0.000000   -0.000000
   29.064265    0.727139    0.726399    0.723109    0.000000   -0.000000   -0.000000
   29.078812    0.727428    0.726690    0.723404    0.000000   -0.000000   -0.000000
 
 The outermost node in the dielectric function lies at epsilon=  17.0


--------------------------------------------------------------------------------------------------------


    OPTICS:  cpu time     21.7643: real time     21.8280
    4ORBIT:  cpu time      0.0000: real time      0.0000



 total charge

# of ion       s       p       d       tot
------------------------------------------
    1        1.290   0.940   0.060   2.289
    2        1.290   0.940   0.060   2.289
    3        1.290   0.940   0.060   2.289
    4        1.290   0.940   0.060   2.289
    5        1.285   0.950   0.057   2.291
    6        1.285   0.950   0.057   2.291
    7        1.285   0.950   0.057   2.291
    8        1.285   0.950   0.057   2.291
    9        1.484   2.277   0.028   3.789
   10        1.484   2.277   0.028   3.789
   11        1.484   2.277   0.028   3.789
   12        1.484   2.277   0.028   3.789
   13        1.488   2.269   0.029   3.786
   14        1.488   2.269   0.029   3.786
   15        1.488   2.269   0.029   3.786
   16        1.488   2.269   0.029   3.786
   17        1.483   2.275   0.025   3.783
   18        1.483   2.275   0.025   3.783
   19        1.483   2.275   0.025   3.783
   20        1.483   2.275   0.025   3.783
--------------------------------------------------
tot         28.118  34.841   0.791  63.750
 
 BZINTS: Fermi energy:    3.806415;  112.000000 electrons
         Band energy:-0.178764E+03;  BLOECHL correction:    0.000000

 total amount of memory used by VASP MPI-rank0    51069. kBytes
=======================================================================

   base      :      30000. kBytes
   nonl-proj :       8667. kBytes
   fftplans  :       2660. kBytes
   grid      :       4169. kBytes
   one-center:         16. kBytes
   wavefun   :       5557. kBytes
 
  
  
 General timing and accounting informations for this job:
 ========================================================
  
                  Total CPU time used (sec):       89.532
                            User time (sec):       84.782
                          System time (sec):        4.750
                         Elapsed time (sec):       90.647
  
                   Maximum memory used (kb):      263112.
                   Average memory used (kb):          N/A
  
                          Minor page faults:        68178
                          Major page faults:            0
                 Voluntary context switches:         2448
