 vasp.6.4.2 20Jul23 (build Mar 15 2024 16:31:38) complex                        
  
 executed on             LinuxIFC date 2025.03.26  18:29:06
 running  120 mpi-ranks, on    3 nodes
 distrk:  each k-point on  120 cores,    1 groups
 distr:  one band on NCORE=  10 cores,   12 groups


--------------------------------------------------------------------------------------------------------


 INCAR:
   ALGO = Normal
   EDIFF = 1e-05
   ENAUG = 1360
   ENCUT = 680
   GGA = Pe
   HFSCREEN = 0.2
   ISMEAR = 0
   ISPIN = 2
   LAECHG = True
   LASPH = True
   LCHARG = True
   LDAU = False
   LELF = False
   LHFCALC = True
   LMAXMIX = 4
   LMIXTAU = True
   LORBIT = 11
   LREAL = False
   LVTOT = True
   LWAVE = True
   MAGMOM = 20*0.6
   NCORE = 10
   NELM = 200
   NSW = 0
   PREC = Accurate
   PRECFOCK = Accurate
   SIGMA = 0.01

 POTCAR:    PAW_PBE Sb 06Sep2000                  
 POTCAR:    PAW_PBE S 06Sep2000                   
 WARNING: For LVTOT=.TRUE., VASP.5.x writes the TOTAL local potential to the
     file LOCPOT. If you want only the Hartree contributions, use LVHAR=.TRUE.
     instead. 

 POTCAR:    PAW_PBE Sb 06Sep2000                  
   VRHFIN =Sb: s2p3                                                                                 
   LEXCH  = PE                                                                                      
   EATOM  =   149.9515 eV,   11.0211 Ry                                                             
                                                                                                    
   TITEL  = PAW_PBE Sb 06Sep2000                                                                    
   LULTRA =        F    use ultrasoft PP ?                                                          
   IUNSCR =        1    unscreen: 0-lin 1-nonlin 2-no                                               
   RPACOR =    2.200    partial core radius                                                         
   POMASS =  121.750; ZVAL   =    5.000    mass and valenz                                          
   RCORE  =    2.300    outmost cutoff radius                                                       
   RWIGS  =    2.980; RWIGS  =    1.577    wigner-seitz radius (au A)                               
   ENMAX  =  172.069; ENMIN  =  129.052 eV                                                          
   ICORE  =        3    local potential                                                             
   LCOR   =        T    correct aug charges                                                         
   LPAW   =        T    paw PP                                                                      
   EAUG   =  380.513                                                                                
   DEXC   =    0.000                                                                                
   RMAX   =    2.346    core radius for proj-oper                                                   
   RAUG   =    1.300    factor for augmentation sphere                                              
   RDEP   =    2.360    radius for radial grids                                                     
   RDEPT  =    2.192    core radius for aug-charge                                                  
                                                                                                    
   Atomic configuration                                                                             
   13 entries                                                                                       
     n  l   j            E        occ.                                                              
     1  0  0.50    -30298.2797   2.0000                                                             
     2  0  0.50     -4610.2252   2.0000                                                             
     2  1  1.50     -4138.3407   6.0000                                                             
     3  0  0.50      -903.8815   2.0000                                                             
     3  1  1.50      -750.1337   6.0000                                                             
     3  2  2.50      -515.7092  10.0000                                                             
     4  0  0.50      -148.8034   2.0000                                                             
     4  1  1.50      -101.7581   6.0000                                                             
     4  2  2.50       -33.5048  10.0000                                                             
     5  0  0.50       -12.8298   2.0000                                                             
     5  1  0.50        -4.8276   3.0000                                                             
     5  2  1.50        -4.0817   0.0000                                                             
     4  3  2.50        -4.0817   0.0000                                                             
   Description                                                                                      
     l       E           TYP  RCUT    TYP  RCUT                                                     
     0    -12.8297861     23  2.300                                                                 
     0     13.6058260     23  2.300                                                                 
     1     -4.8275512     23  2.300                                                                 
     1     -0.7245443     23  2.300                                                                 
     2     -4.0817478     23  2.300                                                                 
     3     -1.3605826     23  2.300                                                                 
  local pseudopotential read in
  partial core-charges read in
  partial kinetic energy density read in
  atomic valenz-charges read in
  non local Contribution for L=           0  read in
    real space projection operators read in
  non local Contribution for L=           0  read in
    real space projection operators read in
  non local Contribution for L=           1  read in
    real space projection operators read in
  non local Contribution for L=           1  read in
    real space projection operators read in
  non local Contribution for L=           2  read in
    real space projection operators read in
    PAW grid and wavefunctions read in
 
   number of l-projection  operators is LMAX  =           5
   number of lm-projection operators is LMMAX =          13
 
 POTCAR:    PAW_PBE S 06Sep2000                   
   VRHFIN =S : s2p4                                                                                 
   LEXCH  = PE                                                                                      
   EATOM  =   276.8230 eV,   20.3459 Ry                                                             
                                                                                                    
   TITEL  = PAW_PBE S 06Sep2000                                                                     
   LULTRA =        F    use ultrasoft PP ?                                                          
   IUNSCR =        1    unscreen: 0-lin 1-nonlin 2-no                                               
   RPACOR =    1.500    partial core radius                                                         
   POMASS =   32.066; ZVAL   =    6.000    mass and valenz                                          
   RCORE  =    1.900    outmost cutoff radius                                                       
   RWIGS  =    2.200; RWIGS  =    1.164    wigner-seitz radius (au A)                               
   ENMAX  =  258.689; ENMIN  =  194.016 eV                                                          
   ICORE  =        2    local potential                                                             
   LCOR   =        T    correct aug charges                                                         
   LPAW   =        T    paw PP                                                                      
   EAUG   =  335.092                                                                                
   DEXC   =    0.000                                                                                
   RMAX   =    1.942    core radius for proj-oper                                                   
   RAUG   =    1.300    factor for augmentation sphere                                              
   RDEP   =    1.954    radius for radial grids                                                     
   RDEPT  =    1.744    core radius for aug-charge                                                  
                                                                                                    
   Atomic configuration                                                                             
    6 entries                                                                                       
     n  l   j            E        occ.                                                              
     1  0  0.50     -2405.8406   2.0000                                                             
     2  0  0.50      -211.7007   2.0000                                                             
     2  1  1.50      -156.4958   6.0000                                                             
     3  0  0.50       -17.2562   2.0000                                                             
     3  1  0.50        -7.0085   4.0000                                                             
     3  2  1.50        -6.8029   0.0000                                                             
   Description                                                                                      
     l       E           TYP  RCUT    TYP  RCUT                                                     
     0    -17.2561641     23  1.900                                                                 
     0    -15.8743224     23  1.900                                                                 
     1     -7.0085400     23  1.900                                                                 
     1     -2.7779785     23  1.900                                                                 
     2     -6.8029130     23  1.900                                                                 
  local pseudopotential read in
  partial core-charges read in
  partial kinetic energy density read in
  atomic valenz-charges read in
  non local Contribution for L=           0  read in
    real space projection operators read in
  non local Contribution for L=           0  read in
    real space projection operators read in
  non local Contribution for L=           1  read in
    real space projection operators read in
  non local Contribution for L=           1  read in
    real space projection operators read in
    PAW grid and wavefunctions read in
 
   number of l-projection  operators is LMAX  =           4
   number of lm-projection operators is LMMAX =           8
 
 -----------------------------------------------------------------------------
|                                                                             |
|               ----> ADVICE to this user running VASP <----                  |
|                                                                             |
|     You have a (more or less) 'large supercell' and for larger cells it     |
|     might be more efficient to use real-space projection operators.         |
|     Therefore, try LREAL= Auto in the INCAR file.                           |
|     Mind: For very accurate calculation, you might also keep the            |
|     reciprocal projection scheme (i.e. LREAL=.FALSE.).                      |
|                                                                             |
 -----------------------------------------------------------------------------

  PAW_PBE Sb 06Sep2000                  :
 energy of atom  1       EATOM= -149.9515
 kinetic energy error for atom=    0.0002 (will be added to EATOM!!)
  PAW_PBE S 06Sep2000                   :
 energy of atom  2       EATOM= -276.8230
 kinetic energy error for atom=    0.0008 (will be added to EATOM!!)
 
 
 POSCAR: Sb8 S12
  positions in direct lattice
  No initial velocities read in
 exchange correlation table for  LEXCH =        8
   RHO(1)=    0.500       N(1)  =     2000
   RHO(2)=  100.500       N(2)  =     4000
 


--------------------------------------------------------------------------------------------------------


 ion  position               nearest neighbor table
   1  0.750  0.466  0.857-  13 2.46  20 2.69  20 2.69  14 2.84  14 2.84
   2  0.250  0.534  0.143-  14 2.46  19 2.69  19 2.69  13 2.84  13 2.84
   3  0.250  0.966  0.643-  15 2.46  18 2.69  18 2.69  16 2.84  16 2.84
   4  0.750  0.034  0.357-  16 2.46  17 2.69  17 2.69  15 2.84  15 2.84
   5  0.250  0.173  0.967-  20 2.52   9 2.54   9 2.54  13 3.18  13 3.18  10 3.25
   6  0.750  0.827  0.033-  19 2.52  10 2.54  10 2.54  14 3.18  14 3.18   9 3.25
   7  0.750  0.673  0.533-  18 2.52  11 2.54  11 2.54  15 3.18  15 3.18  12 3.25
   8  0.250  0.327  0.467-  17 2.52  12 2.54  12 2.54  16 3.18  16 3.18  11 3.25
   9  0.750  0.061  0.876-   5 2.54   5 2.54   6 3.25
  10  0.250  0.939  0.124-   6 2.54   6 2.54   5 3.25
  11  0.250  0.561  0.624-   7 2.54   7 2.54   8 3.25
  12  0.750  0.439  0.376-   8 2.54   8 2.54   7 3.25
  13  0.750  0.379  0.049-   1 2.46   2 2.84   2 2.84   5 3.18   5 3.18
  14  0.250  0.621  0.951-   2 2.46   1 2.84   1 2.84   6 3.18   6 3.18
  15  0.250  0.879  0.451-   3 2.46   4 2.84   4 2.84   7 3.18   7 3.18
  16  0.750  0.121  0.549-   4 2.46   3 2.84   3 2.84   8 3.18   8 3.18
  17  0.250  0.189  0.300-   8 2.52   4 2.69   4 2.69
  18  0.750  0.811  0.700-   7 2.52   3 2.69   3 2.69
  19  0.750  0.689  0.200-   6 2.52   2 2.69   2 2.69
  20  0.250  0.311  0.800-   5 2.52   1 2.69   1 2.69
 
  LATTYP: Found a simple orthorhombic cell.
 ALAT       =     3.8447329100
 B/A-ratio  =     2.9565489739
 C/A-ratio  =     3.0691646796
  
  Lattice vectors:
  
 A1 = (   3.8447329100,   0.0000000000,   0.0000000000)
 A2 = (  -0.0000000000,  11.3671411400,   0.0000000000)
 A3 = (   0.0000000000,   0.0000000000,  11.8001184500)


Analysis of symmetry for initial positions (statically):
=====================================================================
 Subroutine PRICEL returns:
 Original cell was already a primitive cell.
 

 Routine SETGRP: Setting up the symmetry group for a 
 simple orthorhombic supercell.


 Subroutine GETGRP returns: Found  8 space group operations
 (whereof  2 operations were pure point group operations)
 out of a pool of  8 trial point group operations.


The static configuration has the point symmetry S_2 .
 The point group associated with its full space group is D_2h.


Analysis of symmetry for dynamics (positions and initial velocities):
=====================================================================
 Subroutine PRICEL returns:
 Original cell was already a primitive cell.
 

 Routine SETGRP: Setting up the symmetry group for a 
 simple orthorhombic supercell.


 Subroutine GETGRP returns: Found  8 space group operations
 (whereof  2 operations were pure point group operations)
 out of a pool of  8 trial point group operations.


The dynamic configuration has the point symmetry S_2 .
 The point group associated with its full space group is D_2h.


Analysis of structural, dynamic, and magnetic symmetry:
=====================================================================
 Subroutine PRICEL returns:
 Original cell was already a primitive cell.
 

 Routine SETGRP: Setting up the symmetry group for a 
 simple orthorhombic supercell.


 Subroutine GETGRP returns: Found  8 space group operations
 (whereof  2 operations were pure point group operations)
 out of a pool of  8 trial point group operations.


The overall configuration has the point symmetry S_2 .
 The point group associated with its full space group is D_2h.


 Subroutine INISYM returns: Found  8 space group operations
 (whereof  2 operations are pure point group operations),
 and found     1 'primitive' translations


----------------------------------------------------------------------------------------

                                     Primitive cell                                     

  volume of cell :     515.7079

  direct lattice vectors                    reciprocal lattice vectors
     3.844732910  0.000000000  0.000000000     0.260096091  0.000000000  0.000000000
    -0.000000000 11.367141140  0.000000000     0.000000000  0.087972867  0.000000000
     0.000000000  0.000000000 11.800118450    -0.000000000 -0.000000000  0.084744912

  length of vectors
     3.844732910 11.367141140 11.800118450     0.260096091  0.087972867  0.084744912

  position of ions in fractional coordinates (direct lattice)
     0.750000000  0.465583620  0.857350400
     0.250000000  0.534416380  0.142649600
     0.250000000  0.965583620  0.642649600
     0.750000000  0.034416380  0.357350400
     0.250000000  0.173082670  0.966943600
     0.750000000  0.826917330  0.033056400
     0.750000000  0.673082670  0.533056400
     0.250000000  0.326917330  0.466943600
     0.750000000  0.061469490  0.875927160
     0.250000000  0.938530510  0.124072840
     0.250000000  0.561469490  0.624072840
     0.750000000  0.438530510  0.375927160
     0.750000000  0.379232040  0.048541450
     0.250000000  0.620767960  0.951458550
     0.250000000  0.879232040  0.451458550
     0.750000000  0.120767960  0.548541450
     0.250000000  0.188547610  0.300249270
     0.750000000  0.811452390  0.699750730
     0.750000000  0.688547610  0.199750730
     0.250000000  0.311452390  0.800249270

  ion indices of the primitive-cell ions
   primitive index   ion index
                 1           1
                 2           2
                 3           3
                 4           4
                 5           5
                 6           6
                 7           7
                 8           8
                 9           9
                10          10
                11          11
                12          12
                13          13
                14          14
                15          15
                16          16
                17          17
                18          18
                19          19
                20          20

----------------------------------------------------------------------------------------

 
 
 KPOINTS: k-points for static calculation at speci

Read explicit list of k-points.

 Found      3 k-points:

 Following reciprocal coordinates:
            Coordinates               Weight
  0.000000  0.000000  0.000000      0.333333
  0.000000  0.500000  0.000000      0.333333
  0.000000  0.000000  0.500000      0.333333

 Following cartesian coordinates:
            Coordinates               Weight
  0.000000  0.000000  0.000000      0.333333
  0.000000  0.043986  0.000000      0.333333
 -0.000000 -0.000000  0.042372      0.333333
 
 
 Subroutine IBZKPT_HF returns following result:
 ==============================================
 
 Found      3 k-points in 1st BZ
 the following      3 k-points will be used (e.g. in the exchange kernel)
 Following reciprocal coordinates:   # in IRBZ
  0.000000  0.000000  0.000000    0.33333333   1 t-inv F
  0.000000  0.500000  0.000000    0.33333333   2 t-inv F
  0.000000  0.000000  0.500000    0.33333333   3 t-inv F


--------------------------------------------------------------------------------------------------------




 Dimension of arrays:
   k-points           NKPTS =      3   k-points in BZ     NKDIM =      3   number of bands    NBANDS=     84
   number of dos      NEDOS =    301   number of ions     NIONS =     20
   non local maximal  LDIM  =      5   non local SUM 2l+1 LMDIM =     13
   total plane-waves  NPLWV = 352800
   max r-space proj   IRMAX =      1   max aug-charges    IRDMAX=  38161
   dimension x,y,z NGX =    36 NGY =   98 NGZ =  100
   dimension x,y,z NGXF=    72 NGYF=  196 NGZF=  200
   support grid    NGXF=    72 NGYF=  196 NGZF=  200
   ions per type =               8  12
   NGX,Y,Z   is equivalent  to a cutoff of  15.57, 14.33, 14.09 a.u.
   NGXF,Y,Z  is equivalent  to a cutoff of  31.13, 28.67, 28.18 a.u.

 SYSTEM =  unknown system                          
 POSCAR =  Sb8 S12                                 

 Startparameter for this run:
   NWRITE =      2    write-flag & timer
   PREC   = accura    normal or accurate (medium, high low for compatibility)
   ISTART =      0    job   : 0-new  1-cont  2-samecut
   ICHARG =      2    charge: 1-file 2-atom 10-const
   ISPIN  =      2    spin polarized calculation?
   LNONCOLLINEAR =      F non collinear calculations
   LSORBIT =      F    spin-orbit coupling
   INIWAV =      1    electr: 0-lowe 1-rand  2-diag
   LASPH  =      T    aspherical Exc in radial PAW
 Electronic Relaxation 1
   ENCUT  =  680.0 eV  49.98 Ry    7.07 a.u.   8.17 24.17 25.09*2*pi/ulx,y,z
   ENINI  =  680.0     initial cutoff
   ENAUG  = 1360.0 eV  augmentation charge cutoff
   NELM   =    200;   NELMIN=  2; NELMDL= -5     # of ELM steps 
   EDIFF  = 0.1E-04   stopping-criterion for ELM
   LREAL  =      F    real-space projection
   NLSPLINE    = F    spline interpolate recip. space projectors
   LCOMPAT=      F    compatible to vasp.4.4
   GGA_COMPAT  = T    GGA compatible to vasp.4.4-vasp.4.6
   LMAXPAW     = -100 max onsite density
   LMAXMIX     =    4 max onsite mixed and CHGCAR
   VOSKOWN=      0    Vosko Wilk Nusair interpolation
   ROPT   =    0.00000   0.00000
 Ionic relaxation
   EDIFFG = 0.1E-03   stopping-criterion for IOM
   NSW    =      0    number of steps for IOM
   NBLOCK =      1;   KBLOCK =      1    inner block; outer block 
   IBRION =     -1    ionic relax: 0-MD 1-quasi-New 2-CG
   NFREE  =      0    steps in history (QN), initial steepest desc. (CG)
   ISIF   =      0    stress and relaxation
   IWAVPR =     10    prediction:  0-non 1-charg 2-wave 3-comb
   ISYM   =      3    0-nonsym 1-usesym 2-fastsym
   LCORR  =      T    Harris-Foulkes like correction to forces

   POTIM  = 0.5000    time-step for ionic-motion
   TEIN   =    0.0    initial temperature
   TEBEG  =    0.0;   TEEND  =   0.0 temperature during run
   SMASS  =  -3.00    Nose mass-parameter (am)
   estimated Nose-frequenzy (Omega)   =  0.10E-29 period in steps = 0.13E+47 mass=  -0.338E-27a.u.
   SCALEE = 1.0000    scale energy and forces
   NPACO  =    256;   APACO  = 10.0  distance and # of slots for P.C.
   PSTRESS=    0.0 pullay stress

  Mass of Ions in am
   POMASS = 121.75 32.07
  Ionic Valenz
   ZVAL   =   5.00  6.00
  Atomic Wigner-Seitz radii
   RWIGS  =  -1.00 -1.00
  virtual crystal weights 
   VCA    =   1.00  1.00
   NELECT =     112.0000    total number of electrons
   NUPDOWN=      -1.0000    fix difference up-down

 DOS related values:
   EMIN   =  10.00;   EMAX   =-10.00  energy-range for DOS
   EFERMI =   0.00;   METHOD = LEGACY      
   ISMEAR =     0;   SIGMA  =   0.01  broadening in eV -4-tet -1-fermi 0-gaus

 Electronic relaxation 2 (details)
   IALGO  =     38    algorithm
   LDIAG  =      T    sub-space diagonalisation (order eigenvalues)
   LSUBROT=      F    optimize rotation matrix (better conditioning)
   TURBO    =      0    0=normal 1=particle mesh
   IRESTART =      0    0=no restart 2=restart with 2 vectors
   NREBOOT  =      0    no. of reboots
   NMIN     =      0    reboot dimension
   EREF     =   0.00    reference energy to select bands
   IMIX   =      1    mixing-type and parameters
     AMIX     =   0.40;   BMIX     =  1.00
     AMIX_MAG =   1.60;   BMIX_MAG =  1.00
     AMIN     =   0.10
     WC   =   100.;   INIMIX=   1;  MIXPRE=   1;  MAXMIX= -45

 Intra band minimization:
   WEIMIN = 0.0000     energy-eigenvalue tresh-hold
   EBREAK =  0.30E-07  absolut break condition
   DEPER  =   0.30     relativ break condition  

   TIME   =   0.40     timestep for ELM

  volume/ion in A,a.u.               =      25.79       174.01
  Fermi-wavevector in a.u.,A,eV,Ry     =   0.984040  1.859567 13.175003  0.968335
  Thomas-Fermi vector in A             =   2.115243
 
 Write flags
   LWAVE        =      T    write WAVECAR
   LDOWNSAMPLE  =      F    k-point downsampling of WAVECAR
   LCHARG       =      T    write CHGCAR
   LVTOT        =      T    write LOCPOT, total local potential
   LVHAR        =      F    write LOCPOT, Hartree potential only
   LELF         =      F    write electronic localiz. function (ELF)
   LORBIT       =     11    0 simple, 1 ext, 2 COOP (PROOUT), +10 PAW based schemes


 Dipole corrections
   LMONO  =      F    monopole corrections only (constant potential shift)
   LDIPOL =      F    correct potential (dipole corrections)
   IDIPOL =      0    1-x, 2-y, 3-z, 4-all directions 
   EPSILON=  1.0000000 bulk dielectric constant

 Exchange correlation treatment:
   GGA     =    PE    GGA type
   LEXCH   =     8    internal setting for exchange type
   LIBXC   =     F    Libxc                    
   VOSKOWN =     0    Vosko Wilk Nusair interpolation
   EXXOEP  =     0    0=HF, 1=EXX-LHF (local Hartree Fock) 2=EXX OEP
   LHFCALC =     T    Hartree Fock is set to
   LSYMGRAD=     F    symmetrize gradient (conserves proper symmetry)
   PRECFOCK=accur.    Normal, Fast or Accurate (Low or Medium for compatibility)
   LRHFCALC=     F    long range Hartree Fock
   LRSCOR  =     F    long range correlation only (use DFT for short range part)
   LTHOMAS =     F    Thomas Fermi screening in HF
   LMODELHF=     F    short range full HF, long range fraction AEXX
   FOCKCORR=     1    mode to apply convergence corrections
   LFOCKACE=     T    use Adeptively-Compressed-Exchange operator
   ENCUT4O =  -1.0   cutoff for four orbital integrals eV
   LMAXFOCK=     4    L truncation for augmentation on plane wave grid
   LMAXFOCKAE=  -1    L truncation for all-electron charge restoration on plane wave grid
   NMAXFOCKAE=   1    number of basis functions for all-electron charge restoration
   LFOCKAEDFT=     F  apply the AE augmentation even for DFT
   NKREDX  =     1    reduce k-point grid by
   NKREDY  =     1    reduce k-point grid by
   NKREDZ  =     1    reduce k-point grid by
   SHIFTRED=     F    shift reduced grid of Gamma
   HFKIDENT=     F    idential grid for each k-point
   ODDONLY =     F    use only odd q-grid points
   EVENONLY=     F    use only even q-grid points
   HFALPHA =   -1.0000 decay constant for conv. correction
   MCALPHA =    0.0000 extent of test-charge in conv. correction in multipole expansion
   AEXX    =    0.2500 exact exchange contribution
   HFSCREEN=    0.2000 screening length (either q_TF or 0.3 A-1)
   HFSCREENC=   0.2000 screening length for correlation (either q_TF or 0.3 A-1)
   HFRCUT  =    0.0000 spherical cutoff for potential kernel
   ALDAX   =    0.7500 LDA exchange part
   AGGAX   =    0.7500 GGA exchange part
   ALDAC   =    1.0000 LDA correlation
   AGGAC   =    1.0000 GGA correlation
   ENCUTFOCK=  -1.0 apply spherical cutoff to Coloumb kernel
   NBANDSGWLOW=     1    first orbital included in HF term
   NBLOCK_FOCK=    64    blocking factor in FOCK_ACC

 Linear response parameters
   LEPSILON=     F    determine dielectric tensor
   LRPA    =     F    only Hartree local field effects (RPA)
   LNABLA  =     F    use nabla operator in PAW spheres
   LVEL    =     F    velocity operator in full k-point grid
   CSHIFT  =0.1000    complex shift for real part using Kramers Kronig
   OMEGAMAX=  -1.0    maximum frequency
   DEG_THRESHOLD= 0.2000000E-02 threshold for treating states as degnerate
   RTIME   =   -0.100 relaxation time in fs
  (WPLASMAI=    0.000 imaginary part of plasma frequency in eV, 0.658/RTIME)
   DFIELD  = 0.0000000 0.0000000 0.0000000 field for delta impulse in time
 
  Optional k-point grid parameters
   LKPOINTS_OPT  =     F    use optional k-point grid
   KPOINTS_OPT_MODE=     1    mode for optional k-point grid
 
 Orbital magnetization related:
   ORBITALMAG=     F  switch on orbital magnetization
   LCHIMAG   =     F  perturbation theory with respect to B field
   DQ        =  0.001000  dq finite difference perturbation B field
   LLRAUG    =     F  two centre corrections for induced B field
   LBONE     =     F  B-component reconstruction in AE one-centre
   LVGVCALC  =     T  calculate vGv susceptibility
   LVGVAPPL  =     F  apply vGv susceptibility instead of pGv for G=0

 Random number generation:
   RANDOM_GENERATOR = DEFAULT
   PCG_SEED         = not used


--------------------------------------------------------------------------------------------------------


 Static calculation
 charge density and potential will be updated during run
 spin polarized calculation
 Variant of blocked Davidson
 Davidson routine will perform the subspace rotation
 perform sub-space diagonalisation
    after iterative eigenvector-optimisation
 Kerker-like  mixing scheme
 using additional bands           28
 reciprocal scheme for non local part
 use partial core corrections
 calculate Harris-corrections to forces 
   (improved forces if not selfconsistent)
 use gradient corrections 
 use of overlap-Matrix (Vanderbilt PP)
 Gauss-broadening in eV      SIGMA  =   0.01


--------------------------------------------------------------------------------------------------------


  energy-cutoff  :      680.00
  volume of cell :      515.71
      direct lattice vectors                 reciprocal lattice vectors
     3.844732910  0.000000000  0.000000000     0.260096091  0.000000000  0.000000000
    -0.000000000 11.367141140  0.000000000     0.000000000  0.087972867  0.000000000
     0.000000000  0.000000000 11.800118450    -0.000000000 -0.000000000  0.084744912

  length of vectors
     3.844732910 11.367141140 11.800118450     0.260096091  0.087972867  0.084744912


 
 k-points in units of 2pi/SCALE and weight: k-points for static calculation at speci
   0.00000000  0.00000000  0.00000000       0.333
   0.00000000  0.04398643  0.00000000       0.333
  -0.00000000 -0.00000000  0.04237246       0.333
 
 k-points in reciprocal lattice and weights: k-points for static calculation at speci
   0.00000000  0.00000000  0.00000000       0.333
   0.00000000  0.50000000  0.00000000       0.333
   0.00000000  0.00000000  0.50000000       0.333
 
 position of ions in fractional coordinates (direct lattice) 
   0.75000000  0.46558362  0.85735040
   0.25000000  0.53441638  0.14264960
   0.25000000  0.96558362  0.64264960
   0.75000000  0.03441638  0.35735040
   0.25000000  0.17308267  0.96694360
   0.75000000  0.82691733  0.03305640
   0.75000000  0.67308267  0.53305640
   0.25000000  0.32691733  0.46694360
   0.75000000  0.06146949  0.87592716
   0.25000000  0.93853051  0.12407284
   0.25000000  0.56146949  0.62407284
   0.75000000  0.43853051  0.37592716
   0.75000000  0.37923204  0.04854145
   0.25000000  0.62076796  0.95145855
   0.25000000  0.87923204  0.45145855
   0.75000000  0.12076796  0.54854145
   0.25000000  0.18854761  0.30024927
   0.75000000  0.81145239  0.69975073
   0.75000000  0.68854761  0.19975073
   0.25000000  0.31145239  0.80024927
 
 position of ions in cartesian coordinates  (Angst):
   2.88354968  5.29235472 10.11683627
   0.96118323  6.07478642  1.68328218
   0.96118323 10.97592529  7.58334140
   2.88354968  0.39121585  4.21677705
   0.96118323  1.96745514 11.41004901
   2.88354968  9.39968600  0.39006944
   2.88354968  7.65102571  6.29012866
   0.96118323  3.71611543  5.50998979
   2.88354968  0.69873237 10.33604424
   0.96118323 10.66840877  1.46407421
   0.96118323  6.38230294  7.36413343
   2.88354968  4.98483820  4.43598502
   2.88354968  4.31078412  0.57279486
   0.96118323  7.05635702 11.22732359
   0.96118323  9.99435469  5.32726437
   2.88354968  1.37278645  6.47285408
   0.96118323  2.14324729  3.54297695
   2.88354968  9.22389385  8.25714150
   2.88354968  7.82681786  2.35708227
   0.96118323  3.54032328  9.44303618
 


--------------------------------------------------------------------------------------------------------


 k-point   1 :   0.0000 0.0000 0.0000  plane waves:   20719
 k-point   2 :   0.0000 0.5000 0.0000  plane waves:   20736
 k-point   3 :   0.0000 0.0000 0.5000  plane waves:   20762

 maximum and minimum number of plane-waves per node :      2093     2050

 maximum number of plane-waves:     20762
 maximum index in each direction: 
   IXMAX=    8   IYMAX=   24   IZMAX=   25
   IXMIN=   -8   IYMIN=  -24   IZMIN=  -25


 parallel 3D FFT for wavefunctions:
    minimum data exchange during FFTs selected (reduces bandwidth)
 parallel 3D FFT for charge:
    minimum data exchange during FFTs selected (reduces bandwidth)

 
 Radii for the augmentation spheres in the non-local exchange
 for species   1 augmentation radius   1.464 (default was   1.171)
       energy cutoff for augmentation   2720.0
 for species   2 augmentation radius   1.212 (default was   0.970)
       energy cutoff for augmentation   2720.0

 real space projection operators:
  total allocation   :      18359.59 KBytes
  max/ min on nodes  :       2081.11       1538.80

 Maximum index for augmentation-charges in exchange         1109
  SETUP_FOCK is finished

 total amount of memory used by VASP MPI-rank0    49160. kBytes
=======================================================================

   base      :      30000. kBytes
   nonl-proj :       1971. kBytes
   fftplans  :       3637. kBytes
   grid      :       6309. kBytes
   one-center:         32. kBytes
   HF        :         67. kBytes
   nonlr-proj:       5725. kBytes
   wavefun   :       1419. kBytes
 
     INWAV:  cpu time      0.0000: real time      0.0001
 initial charge density was supplied:
 charge density of overlapping atoms calculated
 number of electron     112.0000000 magnetization      12.0000000
 keeping initial charge density in first step


--------------------------------------------------------------------------------------------------------


 Maximum index for augmentation-charges          411 (set IRDMAX)


--------------------------------------------------------------------------------------------------------


 First call to EWALD:  gamma=   0.221
 Maximum number of real-space cells 5x 2x 2
 Maximum number of reciprocal cells 2x 4x 4

    FEWALD:  cpu time      0.0031: real time      0.0042


--------------------------------------- Ionic step        1  -------------------------------------------




--------------------------------------- Iteration      1(   1)  ---------------------------------------


    POTLOK:  cpu time      0.0837: real time      0.1386
    SETDIJ:  cpu time      0.3991: real time      0.4004
     EDDAV:  cpu time      0.7591: real time      1.9703
       DOS:  cpu time      0.0039: real time      0.0040
    --------------------------------------------
      LOOP:  cpu time      1.2458: real time      2.5134

 eigenvalue-minimisations  :  1008
 total energy-change (2. order) :-0.9932821E+04  (-0.4970253E+04)
 number of electron     112.0000000 magnetization      12.0000000
 augmentation part      112.0000000 magnetization      12.0000000

 Free energy of the ion-electron system (eV)
  ---------------------------------------------------
  alpha Z        PSCENC =        44.85403091
  Ewald energy   TEWEN  =     -4141.68316538
  -Hartree energ DENC   =      -625.64737553
  -exchange      EXHF   =         0.00000000
  -V(xc)+E(xc)   XCENC  =      -221.70043745
  PAW double counting   =      3918.68903453   -14101.98906641
  entropy T*S    EENTRO =        -0.00236310
  eigenvalues    EBANDS =       703.99851271
  atomic energy  EATOM  =      4490.65986132
  Solvation  Ediel_sol  =         0.00000000
  ---------------------------------------------------
  free energy    TOTEN  =     -9932.82096840 eV

  energy without entropy =    -9932.81860530  energy(sigma->0) =    -9932.81978685
  exchange ACFDT corr.  =         0.00000000  see jH, gK, PRB 81, 115126


--------------------------------------------------------------------------------------------------------




--------------------------------------- Iteration      1(   2)  ---------------------------------------


     EDDAV:  cpu time      0.5299: real time      0.5672
       DOS:  cpu time      0.0002: real time      0.0002
    --------------------------------------------
      LOOP:  cpu time      0.5300: real time      0.5673

 eigenvalue-minimisations  :  1392
 total energy-change (2. order) :-0.8023631E+03  (-0.7628249E+03)
 number of electron     112.0000000 magnetization      12.0000000
 augmentation part      112.0000000 magnetization      12.0000000

 Free energy of the ion-electron system (eV)
  ---------------------------------------------------
  alpha Z        PSCENC =        44.85403091
  Ewald energy   TEWEN  =     -4141.68316538
  -Hartree energ DENC   =      -625.64737553
  -exchange      EXHF   =         0.00000000
  -V(xc)+E(xc)   XCENC  =      -221.70043745
  PAW double counting   =      3918.68903453   -14101.98906641
  entropy T*S    EENTRO =        -0.00000000
  eigenvalues    EBANDS =       -98.36692315
  atomic energy  EATOM  =      4490.65986132
  Solvation  Ediel_sol  =         0.00000000
  ---------------------------------------------------
  free energy    TOTEN  =    -10735.18404117 eV

  energy without entropy =   -10735.18404117  energy(sigma->0) =   -10735.18404117
  exchange ACFDT corr.  =         0.00000000  see jH, gK, PRB 81, 115126


--------------------------------------------------------------------------------------------------------




--------------------------------------- Iteration      1(   3)  ---------------------------------------


     EDDAV:  cpu time      0.4794: real time      0.4970
       DOS:  cpu time      0.0002: real time      0.0002
    --------------------------------------------
      LOOP:  cpu time      0.4796: real time      0.4971

 eigenvalue-minimisations  :  1236
 total energy-change (2. order) :-0.9403661E+02  (-0.9154503E+02)
 number of electron     112.0000000 magnetization      12.0000000
 augmentation part      112.0000000 magnetization      12.0000000

 Free energy of the ion-electron system (eV)
  ---------------------------------------------------
  alpha Z        PSCENC =        44.85403091
  Ewald energy   TEWEN  =     -4141.68316538
  -Hartree energ DENC   =      -625.64737553
  -exchange      EXHF   =         0.00000000
  -V(xc)+E(xc)   XCENC  =      -221.70043745
  PAW double counting   =      3918.68903453   -14101.98906641
  entropy T*S    EENTRO =        -0.00000000
  eigenvalues    EBANDS =      -192.40353677
  atomic energy  EATOM  =      4490.65986132
  Solvation  Ediel_sol  =         0.00000000
  ---------------------------------------------------
  free energy    TOTEN  =    -10829.22065478 eV

  energy without entropy =   -10829.22065478  energy(sigma->0) =   -10829.22065478
  exchange ACFDT corr.  =         0.00000000  see jH, gK, PRB 81, 115126


--------------------------------------------------------------------------------------------------------




--------------------------------------- Iteration      1(   4)  ---------------------------------------


     EDDAV:  cpu time      0.4594: real time      0.4785
       DOS:  cpu time      0.0002: real time      0.0002
    --------------------------------------------
      LOOP:  cpu time      0.4596: real time      0.4787

 eigenvalue-minimisations  :  1152
 total energy-change (2. order) :-0.2715963E+01  (-0.2696115E+01)
 number of electron     112.0000000 magnetization      12.0000000
 augmentation part      112.0000000 magnetization      12.0000000

 Free energy of the ion-electron system (eV)
  ---------------------------------------------------
  alpha Z        PSCENC =        44.85403091
  Ewald energy   TEWEN  =     -4141.68316538
  -Hartree energ DENC   =      -625.64737553
  -exchange      EXHF   =         0.00000000
  -V(xc)+E(xc)   XCENC  =      -221.70043745
  PAW double counting   =      3918.68903453   -14101.98906641
  entropy T*S    EENTRO =        -0.00000000
  eigenvalues    EBANDS =      -195.11949992
  atomic energy  EATOM  =      4490.65986132
  Solvation  Ediel_sol  =         0.00000000
  ---------------------------------------------------
  free energy    TOTEN  =    -10831.93661794 eV

  energy without entropy =   -10831.93661794  energy(sigma->0) =   -10831.93661794
  exchange ACFDT corr.  =         0.00000000  see jH, gK, PRB 81, 115126


--------------------------------------------------------------------------------------------------------




--------------------------------------- Iteration      1(   5)  ---------------------------------------


    POTLOK:  cpu time      0.1223: real time      0.1391
    SETDIJ:  cpu time      0.9174: real time      0.9196
     EDDAV:  cpu time     21.9039: real time     22.0548
       DOS:  cpu time      0.0004: real time      0.0004
    CHARGE:  cpu time      0.0283: real time      0.0289
    MIXING:  cpu time      0.0007: real time      0.0007
    --------------------------------------------
      LOOP:  cpu time     22.9730: real time     23.1434

 eigenvalue-minimisations  :  1008
 total energy-change (2. order) : 0.1073984E+05  (-0.4168824E+01)
 number of electron     111.9999998 magnetization      -7.2000000
 augmentation part      -16.5418059 magnetization      -7.1944695

 Free energy of the ion-electron system (eV)
  ---------------------------------------------------
  alpha Z        PSCENC =        44.85403091
  Ewald energy   TEWEN  =     -4141.68316538
  -Hartree energ DENC   =      -625.64737553
  -exchange      EXHF   =       195.49299683
  -V(xc)+E(xc)   XCENC  =      -184.13134575
  PAW double counting   =      3875.25835164    -3498.46959558
  entropy T*S    EENTRO =        -0.00000000
  eigenvalues    EBANDS =      -248.42656936
  atomic energy  EATOM  =      4490.65986132
  Solvation  Ediel_sol  =         0.00000000
  ---------------------------------------------------
  free energy    TOTEN  =       -92.09281090 eV

  energy without entropy =      -92.09281090  energy(sigma->0) =      -92.09281090
  exchange ACFDT corr.  =         0.00000000  see jH, gK, PRB 81, 115126


--------------------------------------------------------------------------------------------------------




--------------------------------------- Iteration      1(   6)  ---------------------------------------


    POTLOK:  cpu time      0.1297: real time      0.1411
    SETDIJ:  cpu time      0.9055: real time      0.9078
     EDDAV:  cpu time     22.4391: real time     22.4961
       DOS:  cpu time      0.0004: real time      0.0004
    CHARGE:  cpu time      0.0320: real time      0.0321
    MIXING:  cpu time      0.0013: real time      0.0013
    --------------------------------------------
      LOOP:  cpu time     23.5080: real time     23.5788

 eigenvalue-minimisations  :  1080
 total energy-change (2. order) : 0.1061217E+02  (-0.1538511E+01)
 number of electron     111.9999997 magnetization       4.3200000
 augmentation part      -16.0337709 magnetization       4.2910915

 Free energy of the ion-electron system (eV)
  ---------------------------------------------------
  alpha Z        PSCENC =        44.85403091
  Ewald energy   TEWEN  =     -4141.68316538
  -Hartree energ DENC   =      -685.60810739
  -exchange      EXHF   =       195.96763776
  -V(xc)+E(xc)   XCENC  =      -180.43528414
  PAW double counting   =      7366.02839410    -6991.20771990
  entropy T*S    EENTRO =        -0.00000000
  eigenvalues    EBANDS =      -180.05628745
  atomic energy  EATOM  =      4490.65986132
  Solvation  Ediel_sol  =         0.00000000
  ---------------------------------------------------
  free energy    TOTEN  =       -81.48064018 eV

  energy without entropy =      -81.48064018  energy(sigma->0) =      -81.48064018
  exchange ACFDT corr.  =         0.00000000  see jH, gK, PRB 81, 115126


--------------------------------------------------------------------------------------------------------




--------------------------------------- Iteration      1(   7)  ---------------------------------------


    POTLOK:  cpu time      0.1432: real time      0.1608
    SETDIJ:  cpu time      0.9134: real time      0.9157
     EDDAV:  cpu time     22.0112: real time     22.0852
       DOS:  cpu time      0.0003: real time      0.0003
    CHARGE:  cpu time      0.0271: real time      0.0271
    MIXING:  cpu time      0.0004: real time      0.0004
    --------------------------------------------
      LOOP:  cpu time     23.0955: real time     23.1895

 eigenvalue-minimisations  :  1116
 total energy-change (2. order) :-0.1420683E+01  (-0.8094870E+00)
 number of electron     111.9999997 magnetization      -2.5920000
 augmentation part      -15.8552771 magnetization      -2.5767618

 Free energy of the ion-electron system (eV)
  ---------------------------------------------------
  alpha Z        PSCENC =        44.85403091
  Ewald energy   TEWEN  =     -4141.68316538
  -Hartree energ DENC   =      -703.15971583
  -exchange      EXHF   =       189.04694883
  -V(xc)+E(xc)   XCENC  =      -179.35448063
  PAW double counting   =     12303.65551202   -11929.25463518
  entropy T*S    EENTRO =        -0.00000000
  eigenvalues    EBANDS =      -157.66567885
  atomic energy  EATOM  =      4490.65986132
  Solvation  Ediel_sol  =         0.00000000
  ---------------------------------------------------
  free energy    TOTEN  =       -82.90132279 eV

  energy without entropy =      -82.90132279  energy(sigma->0) =      -82.90132279
  exchange ACFDT corr.  =         0.00000000  see jH, gK, PRB 81, 115126


--------------------------------------------------------------------------------------------------------




--------------------------------------- Iteration      1(   8)  ---------------------------------------


    POTLOK:  cpu time      0.1252: real time      0.1405
    SETDIJ:  cpu time      0.9025: real time      0.9048
     EDDAV:  cpu time     22.5456: real time     22.6238
       DOS:  cpu time      0.0004: real time      0.0004
    CHARGE:  cpu time      0.0310: real time      0.0311
    MIXING:  cpu time      0.0010: real time      0.0010
    --------------------------------------------
      LOOP:  cpu time     23.6057: real time     23.7015

 eigenvalue-minimisations  :  1176
 total energy-change (2. order) :-0.2253686E+00  (-0.5299048E-01)
 number of electron     111.9999997 magnetization       1.5552000
 augmentation part      -15.8817940 magnetization       1.5432757

 Free energy of the ion-electron system (eV)
  ---------------------------------------------------
  alpha Z        PSCENC =        44.85403091
  Ewald energy   TEWEN  =     -4141.68316538
  -Hartree energ DENC   =      -698.76075461
  -exchange      EXHF   =       185.10153854
  -V(xc)+E(xc)   XCENC  =      -179.41229475
  PAW double counting   =     16868.04480157   -16493.46419534
  entropy T*S    EENTRO =        -0.00000000
  eigenvalues    EBANDS =      -158.46651369
  atomic energy  EATOM  =      4490.65986132
  Solvation  Ediel_sol  =         0.00000000
  ---------------------------------------------------
  free energy    TOTEN  =       -83.12669143 eV

  energy without entropy =      -83.12669143  energy(sigma->0) =      -83.12669143
  exchange ACFDT corr.  =         0.00000000  see jH, gK, PRB 81, 115126


--------------------------------------------------------------------------------------------------------




--------------------------------------- Iteration      1(   9)  ---------------------------------------


    POTLOK:  cpu time      0.1364: real time      0.1509
    SETDIJ:  cpu time      0.9520: real time      0.9544
     EDDAV:  cpu time     22.3282: real time     22.4024
       DOS:  cpu time      0.0003: real time      0.0003
    CHARGE:  cpu time      0.0286: real time      0.0287
    MIXING:  cpu time      0.0007: real time      0.0007
    --------------------------------------------
      LOOP:  cpu time     23.4461: real time     23.5374

 eigenvalue-minimisations  :  1140
 total energy-change (2. order) : 0.6512940E-01  (-0.2186024E-01)
 number of electron     111.9999996 magnetization      -0.9331200
 augmentation part      -15.9192750 magnetization      -0.9277839

 Free energy of the ion-electron system (eV)
  ---------------------------------------------------
  alpha Z        PSCENC =        44.85403091
  Ewald energy   TEWEN  =     -4141.68316538
  -Hartree energ DENC   =      -695.02266674
  -exchange      EXHF   =       184.91333360
  -V(xc)+E(xc)   XCENC  =      -179.50028167
  PAW double counting   =     19878.44413356   -19503.76291779
  entropy T*S    EENTRO =        -0.00000000
  eigenvalues    EBANDS =      -161.96388983
  atomic energy  EATOM  =      4490.65986132
  Solvation  Ediel_sol  =         0.00000000
  ---------------------------------------------------
  free energy    TOTEN  =       -83.06156203 eV

  energy without entropy =      -83.06156203  energy(sigma->0) =      -83.06156203
  exchange ACFDT corr.  =         0.00000000  see jH, gK, PRB 81, 115126


--------------------------------------------------------------------------------------------------------




--------------------------------------- Iteration      1(  10)  ---------------------------------------


    POTLOK:  cpu time      0.1368: real time      0.1529
    SETDIJ:  cpu time      0.9044: real time      0.9067
     EDDAV:  cpu time     22.2342: real time     22.3081
       DOS:  cpu time      0.0003: real time      0.0003
    CHARGE:  cpu time      0.0283: real time      0.0284
    MIXING:  cpu time      0.0005: real time      0.0005
    --------------------------------------------
      LOOP:  cpu time     23.3045: real time     23.3969

 eigenvalue-minimisations  :  1152
 total energy-change (2. order) :-0.2718571E-01  (-0.1024530E-01)
 number of electron     111.9999996 magnetization       0.5598720
 augmentation part      -15.9403130 magnetization       0.5545547

 Free energy of the ion-electron system (eV)
  ---------------------------------------------------
  alpha Z        PSCENC =        44.85403091
  Ewald energy   TEWEN  =     -4141.68316538
  -Hartree energ DENC   =      -694.98524636
  -exchange      EXHF   =       185.49773302
  -V(xc)+E(xc)   XCENC  =      -179.41551283
  PAW double counting   =     21529.98908667   -21155.32493667
  entropy T*S    EENTRO =        -0.00000000
  eigenvalues    EBANDS =      -162.68059841
  atomic energy  EATOM  =      4490.65986132
  Solvation  Ediel_sol  =         0.00000000
  ---------------------------------------------------
  free energy    TOTEN  =       -83.08874774 eV

  energy without entropy =      -83.08874774  energy(sigma->0) =      -83.08874774
  exchange ACFDT corr.  =         0.00000000  see jH, gK, PRB 81, 115126


--------------------------------------------------------------------------------------------------------




--------------------------------------- Iteration      1(  11)  ---------------------------------------


    POTLOK:  cpu time      0.1322: real time      0.1450
    SETDIJ:  cpu time      0.9086: real time      0.9109
     EDDAV:  cpu time     22.5264: real time     22.6300
       DOS:  cpu time      0.0003: real time      0.0003
    CHARGE:  cpu time      0.0257: real time      0.0257
    MIXING:  cpu time      0.0010: real time      0.0010
    --------------------------------------------
      LOOP:  cpu time     23.5943: real time     23.7129

 eigenvalue-minimisations  :  1188
 total energy-change (2. order) :-0.6096413E-02  (-0.1325159E-02)
 number of electron     111.9999996 magnetization      -0.3359232
 augmentation part      -15.9451374 magnetization      -0.3340089

 Free energy of the ion-electron system (eV)
  ---------------------------------------------------
  alpha Z        PSCENC =        44.85403091
  Ewald energy   TEWEN  =     -4141.68316538
  -Hartree energ DENC   =      -696.39306183
  -exchange      EXHF   =       185.80783913
  -V(xc)+E(xc)   XCENC  =      -179.28289329
  PAW double counting   =     22469.24115526   -22094.62046495
  entropy T*S    EENTRO =        -0.00000000
  eigenvalues    EBANDS =      -161.67814531
  atomic energy  EATOM  =      4490.65986132
  Solvation  Ediel_sol  =         0.00000000
  ---------------------------------------------------
  free energy    TOTEN  =       -83.09484416 eV

  energy without entropy =      -83.09484416  energy(sigma->0) =      -83.09484416
  exchange ACFDT corr.  =         0.00000000  see jH, gK, PRB 81, 115126


--------------------------------------------------------------------------------------------------------




--------------------------------------- Iteration      1(  12)  ---------------------------------------


    POTLOK:  cpu time      0.1324: real time      0.1438
    SETDIJ:  cpu time      0.9053: real time      0.9076
     EDDAV:  cpu time     22.2231: real time     22.2970
       DOS:  cpu time      0.0003: real time      0.0003
    CHARGE:  cpu time      0.0264: real time      0.0265
    MIXING:  cpu time      0.0004: real time      0.0004
    --------------------------------------------
      LOOP:  cpu time     23.2881: real time     23.3757

 eigenvalue-minimisations  :  1164
 total energy-change (2. order) :-0.2093364E-02  (-0.6737273E-03)
 number of electron     111.9999996 magnetization       0.2015539
 augmentation part      -15.9465651 magnetization       0.1998151

 Free energy of the ion-electron system (eV)
  ---------------------------------------------------
  alpha Z        PSCENC =        44.85403091
  Ewald energy   TEWEN  =     -4141.68316538
  -Hartree energ DENC   =      -697.42856956
  -exchange      EXHF   =       185.80404182
  -V(xc)+E(xc)   XCENC  =      -179.19390023
  PAW double counting   =     23057.86376261   -22683.26854846
  entropy T*S    EENTRO =        -0.00000000
  eigenvalues    EBANDS =      -160.70445055
  atomic energy  EATOM  =      4490.65986132
  Solvation  Ediel_sol  =         0.00000000
  ---------------------------------------------------
  free energy    TOTEN  =       -83.09693752 eV

  energy without entropy =      -83.09693752  energy(sigma->0) =      -83.09693752
  exchange ACFDT corr.  =         0.00000000  see jH, gK, PRB 81, 115126


--------------------------------------------------------------------------------------------------------




--------------------------------------- Iteration      1(  13)  ---------------------------------------


    POTLOK:  cpu time      0.1319: real time      0.1480
    SETDIJ:  cpu time      0.9097: real time      0.9120
     EDDAV:  cpu time     22.5559: real time     22.6319
       DOS:  cpu time      0.0003: real time      0.0003
    CHARGE:  cpu time      0.0283: real time      0.0284
    MIXING:  cpu time      0.0006: real time      0.0006
    --------------------------------------------
      LOOP:  cpu time     23.6267: real time     23.7213

 eigenvalue-minimisations  :  1152
 total energy-change (2. order) :-0.1530250E-02  (-0.1972107E-03)
 number of electron     111.9999996 magnetization      -0.1209324
 augmentation part      -15.9468150 magnetization      -0.1202099

 Free energy of the ion-electron system (eV)
  ---------------------------------------------------
  alpha Z        PSCENC =        44.85403091
  Ewald energy   TEWEN  =     -4141.68316538
  -Hartree energ DENC   =      -697.88258035
  -exchange      EXHF   =       185.73210886
  -V(xc)+E(xc)   XCENC  =      -179.15194268
  PAW double counting   =     23437.52677023   -23062.93916243
  entropy T*S    EENTRO =        -0.00000000
  eigenvalues    EBANDS =      -160.21438825
  atomic energy  EATOM  =      4490.65986132
  Solvation  Ediel_sol  =         0.00000000
  ---------------------------------------------------
  free energy    TOTEN  =       -83.09846777 eV

  energy without entropy =      -83.09846777  energy(sigma->0) =      -83.09846777
  exchange ACFDT corr.  =         0.00000000  see jH, gK, PRB 81, 115126


--------------------------------------------------------------------------------------------------------




--------------------------------------- Iteration      1(  14)  ---------------------------------------


    POTLOK:  cpu time      0.1333: real time      0.1489
    SETDIJ:  cpu time      0.9375: real time      0.9398
     EDDAV:  cpu time     22.3995: real time     22.4741
       DOS:  cpu time      0.0003: real time      0.0003
    CHARGE:  cpu time      0.0314: real time      0.0315
    MIXING:  cpu time      0.0008: real time      0.0008
    --------------------------------------------
      LOOP:  cpu time     23.5028: real time     23.5955

 eigenvalue-minimisations  :  1164
 total energy-change (2. order) :-0.6200210E-03  (-0.4816926E-04)
 number of electron     111.9999996 magnetization       0.0725594
 augmentation part      -15.9475583 magnetization       0.0720216

 Free energy of the ion-electron system (eV)
  ---------------------------------------------------
  alpha Z        PSCENC =        44.85403091
  Ewald energy   TEWEN  =     -4141.68316538
  -Hartree energ DENC   =      -698.05783276
  -exchange      EXHF   =       185.69734842
  -V(xc)+E(xc)   XCENC  =      -179.13243795
  PAW double counting   =     23671.91107038   -23297.32506638
  entropy T*S    EENTRO =        -0.00000000
  eigenvalues    EBANDS =      -160.02289636
  atomic energy  EATOM  =      4490.65986132
  Solvation  Ediel_sol  =         0.00000000
  ---------------------------------------------------
  free energy    TOTEN  =       -83.09908779 eV

  energy without entropy =      -83.09908779  energy(sigma->0) =      -83.09908779
  exchange ACFDT corr.  =         0.00000000  see jH, gK, PRB 81, 115126


--------------------------------------------------------------------------------------------------------




--------------------------------------- Iteration      1(  15)  ---------------------------------------


    POTLOK:  cpu time      0.1578: real time      0.1718
    SETDIJ:  cpu time      0.9026: real time      0.9047
     EDDAV:  cpu time     22.3191: real time     22.3756
       DOS:  cpu time      0.0003: real time      0.0003
    CHARGE:  cpu time      0.0266: real time      0.0266
    MIXING:  cpu time      0.0004: real time      0.0004
    --------------------------------------------
      LOOP:  cpu time     23.4067: real time     23.4795

 eigenvalue-minimisations  :  1164
 total energy-change (2. order) :-0.3003778E-03  (-0.2198861E-04)
 number of electron     111.9999996 magnetization      -0.0435356
 augmentation part      -15.9482604 magnetization      -0.0432353

 Free energy of the ion-electron system (eV)
  ---------------------------------------------------
  alpha Z        PSCENC =        44.85403091
  Ewald energy   TEWEN  =     -4141.68316538
  -Hartree energ DENC   =      -698.16408701
  -exchange      EXHF   =       185.69402118
  -V(xc)+E(xc)   XCENC  =      -179.12059391
  PAW double counting   =     23809.11643115   -23434.53127689
  entropy T*S    EENTRO =        -0.00000000
  eigenvalues    EBANDS =      -159.92460952
  atomic energy  EATOM  =      4490.65986132
  Solvation  Ediel_sol  =         0.00000000
  ---------------------------------------------------
  free energy    TOTEN  =       -83.09938817 eV

  energy without entropy =      -83.09938817  energy(sigma->0) =      -83.09938817
  exchange ACFDT corr.  =         0.00000000  see jH, gK, PRB 81, 115126


--------------------------------------------------------------------------------------------------------




--------------------------------------- Iteration      1(  16)  ---------------------------------------


    POTLOK:  cpu time      0.1304: real time      0.1460
    SETDIJ:  cpu time      0.9080: real time      0.9103
     EDDAV:  cpu time     22.6064: real time     22.6816
       DOS:  cpu time      0.0003: real time      0.0003
    CHARGE:  cpu time      0.0266: real time      0.0267
    MIXING:  cpu time      0.0004: real time      0.0004
    --------------------------------------------
      LOOP:  cpu time     23.6723: real time     23.7654

 eigenvalue-minimisations  :  1164
 total energy-change (2. order) :-0.1417866E-03  (-0.6817317E-05)
 number of electron     111.9999996 magnetization       0.0261214
 augmentation part      -15.9485490 magnetization       0.0259647

 Free energy of the ion-electron system (eV)
  ---------------------------------------------------
  alpha Z        PSCENC =        44.85403091
  Ewald energy   TEWEN  =     -4141.68316538
  -Hartree energ DENC   =      -698.25756908
  -exchange      EXHF   =       185.69890917
  -V(xc)+E(xc)   XCENC  =      -179.11177730
  PAW double counting   =     23888.21818618   -23513.63415347
  entropy T*S    EENTRO =        -0.00000000
  eigenvalues    EBANDS =      -159.84385230
  atomic energy  EATOM  =      4490.65986132
  Solvation  Ediel_sol  =         0.00000000
  ---------------------------------------------------
  free energy    TOTEN  =       -83.09952995 eV

  energy without entropy =      -83.09952995  energy(sigma->0) =      -83.09952995
  exchange ACFDT corr.  =         0.00000000  see jH, gK, PRB 81, 115126


--------------------------------------------------------------------------------------------------------




--------------------------------------- Iteration      1(  17)  ---------------------------------------


    POTLOK:  cpu time      0.1370: real time      0.1463
    SETDIJ:  cpu time      0.9067: real time      0.9089
     EDDAV:  cpu time     22.3557: real time     22.4302
       DOS:  cpu time      0.0003: real time      0.0002
    CHARGE:  cpu time      0.0269: real time      0.0270
    MIXING:  cpu time      0.0005: real time      0.0005
    --------------------------------------------
      LOOP:  cpu time     23.4270: real time     23.5132

 eigenvalue-minimisations  :  1080
 total energy-change (2. order) :-0.6791232E-04  (-0.2984721E-05)
 number of electron     111.9999996 magnetization      -0.0156728
 augmentation part      -15.9486549 magnetization      -0.0155701

 Free energy of the ion-electron system (eV)
  ---------------------------------------------------
  alpha Z        PSCENC =        44.85403091
  Ewald energy   TEWEN  =     -4141.68316538
  -Hartree energ DENC   =      -698.33084609
  -exchange      EXHF   =       185.70101618
  -V(xc)+E(xc)   XCENC  =      -179.10550690
  PAW double counting   =     23935.12398314   -23560.54078084
  entropy T*S    EENTRO =        -0.00000000
  eigenvalues    EBANDS =      -159.77819019
  atomic energy  EATOM  =      4490.65986132
  Solvation  Ediel_sol  =         0.00000000
  ---------------------------------------------------
  free energy    TOTEN  =       -83.09959787 eV

  energy without entropy =      -83.09959787  energy(sigma->0) =      -83.09959787
  exchange ACFDT corr.  =         0.00000000  see jH, gK, PRB 81, 115126


--------------------------------------------------------------------------------------------------------




--------------------------------------- Iteration      1(  18)  ---------------------------------------


    POTLOK:  cpu time      0.1322: real time      0.1482
    SETDIJ:  cpu time      0.9019: real time      0.9042
     EDDAV:  cpu time     22.5773: real time     22.6526
       DOS:  cpu time      0.0004: real time      0.0004
    CHARGE:  cpu time      0.0306: real time      0.0306
    MIXING:  cpu time      0.0006: real time      0.0006
    --------------------------------------------
      LOOP:  cpu time     23.6429: real time     23.7366

 eigenvalue-minimisations  :   840
 total energy-change (2. order) :-0.3354127E-04  (-0.1260900E-05)
 number of electron     111.9999996 magnetization       0.0094037
 augmentation part      -15.9486982 magnetization       0.0093546

 Free energy of the ion-electron system (eV)
  ---------------------------------------------------
  alpha Z        PSCENC =        44.85403091
  Ewald energy   TEWEN  =     -4141.68316538
  -Hartree energ DENC   =      -698.37923828
  -exchange      EXHF   =       185.70052159
  -V(xc)+E(xc)   XCENC  =      -179.10150672
  PAW double counting   =     23964.05306778   -23589.47027780
  entropy T*S    EENTRO =        -0.00000000
  eigenvalues    EBANDS =      -159.73292482
  atomic energy  EATOM  =      4490.65986132
  Solvation  Ediel_sol  =         0.00000000
  ---------------------------------------------------
  free energy    TOTEN  =       -83.09963141 eV

  energy without entropy =      -83.09963141  energy(sigma->0) =      -83.09963141
  exchange ACFDT corr.  =         0.00000000  see jH, gK, PRB 81, 115126


--------------------------------------------------------------------------------------------------------




--------------------------------------- Iteration      1(  19)  ---------------------------------------


    POTLOK:  cpu time      0.1502: real time      0.1647
    SETDIJ:  cpu time      0.9451: real time      0.9475
     EDDAV:  cpu time     22.3193: real time     22.3936
       DOS:  cpu time      0.0003: real time      0.0003
    CHARGE:  cpu time      0.0282: real time      0.0283
    MIXING:  cpu time      0.0007: real time      0.0007
    --------------------------------------------
      LOOP:  cpu time     23.4438: real time     23.5351

 eigenvalue-minimisations  :   828
 total energy-change (2. order) :-0.1644561E-04  (-0.5298826E-06)
 number of electron     111.9999996 magnetization      -0.0056422
 augmentation part      -15.9487235 magnetization      -0.0056055

 Free energy of the ion-electron system (eV)
  ---------------------------------------------------
  alpha Z        PSCENC =        44.85403091
  Ewald energy   TEWEN  =     -4141.68316538
  -Hartree energ DENC   =      -698.40891339
  -exchange      EXHF   =       185.69966352
  -V(xc)+E(xc)   XCENC  =      -179.09908316
  PAW double counting   =     23981.57751309   -23606.99484028
  entropy T*S    EENTRO =        -0.00000000
  eigenvalues    EBANDS =      -159.70471448
  atomic energy  EATOM  =      4490.65986132
  Solvation  Ediel_sol  =         0.00000000
  ---------------------------------------------------
  free energy    TOTEN  =       -83.09964785 eV

  energy without entropy =      -83.09964785  energy(sigma->0) =      -83.09964785
  exchange ACFDT corr.  =         0.00000000  see jH, gK, PRB 81, 115126


--------------------------------------------------------------------------------------------------------




--------------------------------------- Iteration      1(  20)  ---------------------------------------


    POTLOK:  cpu time      0.1404: real time      0.1535
    SETDIJ:  cpu time      0.9030: real time      0.9052
     EDDAV:  cpu time     22.3661: real time     22.4410
       DOS:  cpu time      0.0003: real time      0.0003
    --------------------------------------------
      LOOP:  cpu time     23.4099: real time     23.5000

 eigenvalue-minimisations  :   696
 total energy-change (2. order) :-0.8211618E-05  (-0.2586265E-06)
 number of electron     111.9999996 magnetization      -0.0056422
 augmentation part      -15.9487235 magnetization      -0.0056055

 Free energy of the ion-electron system (eV)
  ---------------------------------------------------
  alpha Z        PSCENC =        44.85403091
  Ewald energy   TEWEN  =     -4141.68316538
  -Hartree energ DENC   =      -698.42730740
  -exchange      EXHF   =       185.69920667
  -V(xc)+E(xc)   XCENC  =      -179.09760166
  PAW double counting   =     23992.25758833   -23617.67491828
  entropy T*S    EENTRO =        -0.00000000
  eigenvalues    EBANDS =      -159.68735059
  atomic energy  EATOM  =      4490.65986132
  Solvation  Ediel_sol  =         0.00000000
  ---------------------------------------------------
  free energy    TOTEN  =       -83.09965607 eV

  energy without entropy =      -83.09965607  energy(sigma->0) =      -83.09965607
  exchange ACFDT corr.  =         0.00000000  see jH, gK, PRB 81, 115126


--------------------------------------------------------------------------------------------------------




 average (electrostatic) potential at core
  the test charge radii are     1.1712  0.9698
  (the norm of the test charge is              1.0000)
       1 -84.6680       2 -84.6680       3 -84.6680       4 -84.6680       5 -84.7609
       6 -84.7609       7 -84.7609       8 -84.7609       9 -81.9873      10 -81.9873
      11 -81.9873      12 -81.9873      13 -82.1739      14 -82.1739      15 -82.1739
      16 -82.1739      17 -82.2712      18 -82.2712      19 -82.2712      20 -82.2712
 
 
 
 E-fermi :   4.5318     XC(G=0):  -7.5320     alpha+bet :-10.3158

 Fermi energy:         4.5317836467

 spin component 1

 k-point     1 :       0.0000    0.0000    0.0000
  band No.  band energies     occupation 
      1     -11.2748      1.00000
      2     -11.0953      1.00000
      3     -10.5042      1.00000
      4     -10.4066      1.00000
      5     -10.1910      1.00000
      6     -10.0533      1.00000
      7      -9.2643      1.00000
      8      -9.0428      1.00000
      9      -8.9959      1.00000
     10      -8.8025      1.00000
     11      -8.7904      1.00000
     12      -8.7253      1.00000
     13      -5.5269      1.00000
     14      -5.2986      1.00000
     15      -5.0997      1.00000
     16      -4.5899      1.00000
     17      -4.3934      1.00000
     18      -4.3060      1.00000
     19      -3.0863      1.00000
     20      -2.5560      1.00000
     21      -0.6722      1.00000
     22      -0.6323      1.00000
     23      -0.2219      1.00000
     24      -0.0962      1.00000
     25       0.2245      1.00000
     26       0.3149      1.00000
     27       0.4827      1.00000
     28       0.5615      1.00000
     29       0.5994      1.00000
     30       1.0500      1.00000
     31       1.0523      1.00000
     32       1.1922      1.00000
     33       1.2075      1.00000
     34       1.4500      1.00000
     35       1.4597      1.00000
     36       1.8225      1.00000
     37       1.8433      1.00000
     38       1.9249      1.00000
     39       2.0255      1.00000
     40       2.1980      1.00000
     41       2.2739      1.00000
     42       2.8905      1.00000
     43       2.9003      1.00000
     44       2.9167      1.00000
     45       2.9636      1.00000
     46       2.9895      1.00000
     47       3.0452      1.00000
     48       3.0502      1.00000
     49       3.0998      1.00000
     50       3.3798      1.00000
     51       3.7965      1.00000
     52       4.0003      1.00000
     53       4.1525      1.00000
     54       4.1816      1.00000
     55       4.3096      1.00000
     56       4.4635      1.00000
     57       6.3197      0.00000
     58       6.4023      0.00000
     59       6.5033      0.00000
     60       6.7495      0.00000
     61       7.0393      0.00000
     62       7.0897      0.00000
     63       7.4938      0.00000
     64       7.6392      0.00000
     65       7.7302      0.00000
     66       7.7818      0.00000
     67       7.7900      0.00000
     68       8.0553      0.00000
     69       8.2412      0.00000
     70       8.3014      0.00000
     71       8.3701      0.00000
     72       8.4255      0.00000
     73       8.5954      0.00000
     74       8.7610      0.00000
     75       8.9701      0.00000
     76       9.1440      0.00000
     77       9.4313      0.00000
     78       9.7768      0.00000
     79      10.0973      0.00000
     80      10.1848      0.00000
     81      10.3429      0.00000
     82      10.3604      0.00000
     83      11.5991      0.00000
     84      11.8220      0.00000

 k-point     2 :       0.0000    0.5000    0.0000
  band No.  band energies     occupation 
      1     -11.1571      1.00000
      2     -11.1571      1.00000
      3     -10.6437      1.00000
      4     -10.6437      1.00000
      5      -9.7790      1.00000
      6      -9.7790      1.00000
      7      -9.4499      1.00000
      8      -9.4499      1.00000
      9      -8.8020      1.00000
     10      -8.8020      1.00000
     11      -8.7412      1.00000
     12      -8.7412      1.00000
     13      -5.3851      1.00000
     14      -5.3851      1.00000
     15      -5.1345      1.00000
     16      -5.1345      1.00000
     17      -3.9335      1.00000
     18      -3.9335      1.00000
     19      -2.9574      1.00000
     20      -2.9574      1.00000
     21      -0.6254      1.00000
     22      -0.6254      1.00000
     23      -0.4222      1.00000
     24      -0.4222      1.00000
     25       0.1788      1.00000
     26       0.1788      1.00000
     27       0.4973      1.00000
     28       0.4973      1.00000
     29       0.8395      1.00000
     30       0.8395      1.00000
     31       1.4792      1.00000
     32       1.4792      1.00000
     33       1.5929      1.00000
     34       1.5929      1.00000
     35       1.6610      1.00000
     36       1.6610      1.00000
     37       1.8602      1.00000
     38       1.8602      1.00000
     39       2.0513      1.00000
     40       2.0513      1.00000
     41       2.3515      1.00000
     42       2.3515      1.00000
     43       2.9369      1.00000
     44       2.9369      1.00000
     45       2.9788      1.00000
     46       2.9788      1.00000
     47       3.0130      1.00000
     48       3.0130      1.00000
     49       3.3810      1.00000
     50       3.3810      1.00000
     51       3.7354      1.00000
     52       3.7354      1.00000
     53       4.1634      1.00000
     54       4.1634      1.00000
     55       4.3355      1.00000
     56       4.3355      1.00000
     57       6.2115      0.00000
     58       6.2115      0.00000
     59       7.1048      0.00000
     60       7.1048      0.00000
     61       7.3635      0.00000
     62       7.3635      0.00000
     63       7.4871      0.00000
     64       7.4871      0.00000
     65       7.5948      0.00000
     66       7.5948      0.00000
     67       7.5948      0.00000
     68       7.5948      0.00000
     69       7.9275      0.00000
     70       7.9275      0.00000
     71       8.6666      0.00000
     72       8.6666      0.00000
     73       8.7764      0.00000
     74       8.7764      0.00000
     75       9.4061      0.00000
     76       9.4061      0.00000
     77       9.6850      0.00000
     78       9.6850      0.00000
     79       9.6890      0.00000
     80       9.6890      0.00000
     81      10.2709      0.00000
     82      10.2709      0.00000
     83      11.6201      0.00000
     84      11.6201      0.00000

 k-point     3 :       0.0000    0.0000    0.5000
  band No.  band energies     occupation 
      1     -11.1936      1.00000
      2     -11.1936      1.00000
      3     -10.4438      1.00000
      4     -10.4438      1.00000
      5     -10.1380      1.00000
      6     -10.1380      1.00000
      7      -9.1464      1.00000
      8      -9.1464      1.00000
      9      -8.8702      1.00000
     10      -8.8702      1.00000
     11      -8.7796      1.00000
     12      -8.7796      1.00000
     13      -5.4866      1.00000
     14      -5.4866      1.00000
     15      -4.7775      1.00000
     16      -4.7775      1.00000
     17      -4.3843      1.00000
     18      -4.3843      1.00000
     19      -2.7522      1.00000
     20      -2.7522      1.00000
     21      -0.6280      1.00000
     22      -0.6280      1.00000
     23      -0.1596      1.00000
     24      -0.1596      1.00000
     25       0.3401      1.00000
     26       0.3401      1.00000
     27       0.4192      1.00000
     28       0.4192      1.00000
     29       0.5987      1.00000
     30       0.5987      1.00000
     31       1.1471      1.00000
     32       1.1471      1.00000
     33       1.3089      1.00000
     34       1.3089      1.00000
     35       1.5394      1.00000
     36       1.5394      1.00000
     37       2.1463      1.00000
     38       2.1463      1.00000
     39       2.1748      1.00000
     40       2.1748      1.00000
     41       2.6369      1.00000
     42       2.6369      1.00000
     43       2.9047      1.00000
     44       2.9047      1.00000
     45       2.9325      1.00000
     46       2.9325      1.00000
     47       3.0566      1.00000
     48       3.0566      1.00000
     49       3.2522      1.00000
     50       3.2522      1.00000
     51       3.7857      1.00000
     52       3.7857      1.00000
     53       4.2506      1.00000
     54       4.2506      1.00000
     55       4.3829      1.00000
     56       4.3829      1.00000
     57       6.3640      0.00000
     58       6.3640      0.00000
     59       6.7215      0.00000
     60       6.7215      0.00000
     61       6.9967      0.00000
     62       6.9967      0.00000
     63       7.5272      0.00000
     64       7.5272      0.00000
     65       7.6541      0.00000
     66       7.6541      0.00000
     67       8.0183      0.00000
     68       8.0183      0.00000
     69       8.2452      0.00000
     70       8.2452      0.00000
     71       8.4953      0.00000
     72       8.4953      0.00000
     73       8.5133      0.00000
     74       8.5133      0.00000
     75       9.1297      0.00000
     76       9.1297      0.00000
     77       9.8110      0.00000
     78       9.8110      0.00000
     79      10.0453      0.00000
     80      10.0453      0.00000
     81      10.2594      0.00000
     82      10.2594      0.00000
     83      11.5829      0.00000
     84      11.5829      0.00000
 Fermi energy:         4.5317836467

 spin component 2

 k-point     1 :       0.0000    0.0000    0.0000
  band No.  band energies     occupation 
      1     -11.2750      1.00000
      2     -11.0954      1.00000
      3     -10.5043      1.00000
      4     -10.4068      1.00000
      5     -10.1911      1.00000
      6     -10.0534      1.00000
      7      -9.2644      1.00000
      8      -9.0429      1.00000
      9      -8.9960      1.00000
     10      -8.8027      1.00000
     11      -8.7905      1.00000
     12      -8.7254      1.00000
     13      -5.5270      1.00000
     14      -5.2988      1.00000
     15      -5.0999      1.00000
     16      -4.5901      1.00000
     17      -4.3936      1.00000
     18      -4.3062      1.00000
     19      -3.0865      1.00000
     20      -2.5561      1.00000
     21      -0.6724      1.00000
     22      -0.6324      1.00000
     23      -0.2220      1.00000
     24      -0.0963      1.00000
     25       0.2243      1.00000
     26       0.3147      1.00000
     27       0.4826      1.00000
     28       0.5614      1.00000
     29       0.5992      1.00000
     30       1.0498      1.00000
     31       1.0522      1.00000
     32       1.1921      1.00000
     33       1.2074      1.00000
     34       1.4499      1.00000
     35       1.4596      1.00000
     36       1.8223      1.00000
     37       1.8432      1.00000
     38       1.9248      1.00000
     39       2.0254      1.00000
     40       2.1979      1.00000
     41       2.2738      1.00000
     42       2.8903      1.00000
     43       2.9001      1.00000
     44       2.9166      1.00000
     45       2.9635      1.00000
     46       2.9893      1.00000
     47       3.0450      1.00000
     48       3.0501      1.00000
     49       3.0997      1.00000
     50       3.3797      1.00000
     51       3.7964      1.00000
     52       4.0002      1.00000
     53       4.1524      1.00000
     54       4.1814      1.00000
     55       4.3095      1.00000
     56       4.4634      1.00000
     57       6.3195      0.00000
     58       6.4021      0.00000
     59       6.5031      0.00000
     60       6.7493      0.00000
     61       7.0392      0.00000
     62       7.0896      0.00000
     63       7.4936      0.00000
[...]
     13      -5.4868      1.00000
     14      -5.4868      1.00000
     15      -4.7776      1.00000
     16      -4.7776      1.00000
     17      -4.3844      1.00000
     18      -4.3844      1.00000
     19      -2.7523      1.00000
     20      -2.7523      1.00000
     21      -0.6281      1.00000
     22      -0.6281      1.00000
     23      -0.1597      1.00000
     24      -0.1597      1.00000
     25       0.3400      1.00000
     26       0.3400      1.00000
     27       0.4191      1.00000
     28       0.4191      1.00000
     29       0.5985      1.00000
     30       0.5985      1.00000
     31       1.1469      1.00000
     32       1.1469      1.00000
     33       1.3087      1.00000
     34       1.3087      1.00000
     35       1.5392      1.00000
     36       1.5392      1.00000
     37       2.1462      1.00000
     38       2.1462      1.00000
     39       2.1747      1.00000
     40       2.1747      1.00000
     41       2.6367      1.00000
     42       2.6367      1.00000
     43       2.9046      1.00000
     44       2.9046      1.00000
     45       2.9323      1.00000
     46       2.9323      1.00000
     47       3.0565      1.00000
     48       3.0565      1.00000
     49       3.2521      1.00000
     50       3.2521      1.00000
     51       3.7856      1.00000
     52       3.7856      1.00000
     53       4.2505      1.00000
     54       4.2505      1.00000
     55       4.3828      1.00000
     56       4.3828      1.00000
     57       6.3638      0.00000
     58       6.3638      0.00000
     59       6.7214      0.00000
     60       6.7214      0.00000
     61       6.9966      0.00000
     62       6.9966      0.00000
     63       7.5271      0.00000
     64       7.5271      0.00000
     65       7.6539      0.00000
     66       7.6539      0.00000
     67       8.0182      0.00000
     68       8.0182      0.00000
     69       8.2451      0.00000
     70       8.2451      0.00000
     71       8.4952      0.00000
     72       8.4952      0.00000
     73       8.5132      0.00000
     74       8.5132      0.00000
     75       9.1295      0.00000
     76       9.1295      0.00000
     77       9.8109      0.00000
     78       9.8109      0.00000
     79      10.0451      0.00000
     80      10.0451      0.00000
     81      10.2593      0.00000
     82      10.2593      0.00000
     83      11.5827      0.00000
     84      11.5827      0.00000


--------------------------------------------------------------------------------------------------------


 soft charge-density along one line, spin component           1
         0         1         2         3         4         5         6         7         8         9
 total charge-density along one line
 
 soft charge-density along one line, spin component           2
         0         1         2         3         4         5         6         7         8         9
 total charge-density along one line
 
 pseudopotential strength for first ion, spin component:           1
 38.696 -65.641  -0.040   0.061  -0.000  -0.065   0.098  -0.000
-65.641 113.645   0.066  -0.099  -0.000   0.106  -0.159   0.000
 -0.040   0.066   8.871   0.008  -0.000  14.156   0.013  -0.000
  0.061  -0.099   0.008   8.862  -0.000   0.013  14.143  -0.000
 -0.000  -0.000  -0.000  -0.000   8.877  -0.000  -0.000  14.167
 -0.065   0.106  14.156   0.013  -0.000  22.591   0.020  -0.000
  0.098  -0.159   0.013  14.143  -0.000   0.020  22.569  -0.000
 -0.000   0.000  -0.000  -0.000  14.167  -0.000  -0.000  22.608
 -0.000   0.000  -0.000  -0.000  -0.002  -0.000  -0.000  -0.004
  0.014  -0.021   0.007  -0.003  -0.000   0.012  -0.005  -0.000
 -0.013   0.019   0.004   0.005   0.000   0.006   0.009  -0.000
 -0.000   0.000  -0.000   0.000   0.010  -0.000   0.000   0.016
  0.006  -0.010   0.008   0.001   0.000   0.013   0.002   0.000
 pseudopotential strength for first ion, spin component:           2
 38.696 -65.641  -0.040   0.061   0.000  -0.065   0.098   0.000
-65.641 113.645   0.066  -0.099  -0.000   0.106  -0.159  -0.000
 -0.040   0.066   8.871   0.008  -0.000  14.156   0.013  -0.000
  0.061  -0.099   0.008   8.862  -0.000   0.013  14.143  -0.000
  0.000  -0.000  -0.000  -0.000   8.877  -0.000  -0.000  14.167
 -0.065   0.106  14.156   0.013  -0.000  22.591   0.020  -0.000
  0.098  -0.159   0.013  14.143  -0.000   0.020  22.569  -0.000
  0.000  -0.000  -0.000  -0.000  14.167  -0.000  -0.000  22.608
 -0.000   0.000  -0.000  -0.000  -0.002  -0.000  -0.000  -0.004
  0.014  -0.021   0.007  -0.003  -0.000   0.012  -0.005  -0.000
 -0.013   0.019   0.004   0.005  -0.000   0.006   0.009  -0.000
 -0.000   0.000  -0.000   0.000   0.010  -0.000   0.000   0.016
  0.006  -0.010   0.008   0.001   0.000   0.013   0.002   0.000
 total augmentation occupancy for first ion, spin component:           1
  2.283   0.069   0.350  -0.473   0.000  -0.146   0.198  -0.000  -0.000  -0.018   0.023  -0.000  -0.014
  0.069   0.017  -0.125   0.184  -0.000   0.060  -0.088   0.000   0.000   0.000  -0.004  -0.000   0.009
  0.350  -0.125  11.867  -2.009   0.000  -5.756   0.946  -0.000  -0.000   0.180  -0.014   0.000  -0.009
 -0.473   0.184  -2.009  14.750   0.000   0.943  -7.172  -0.000   0.000  -0.249   0.351   0.000  -0.052
  0.000  -0.000   0.000   0.000   9.915  -0.000  -0.000  -4.678  -0.251   0.000   0.000   0.027  -0.000
 -0.146   0.060  -5.756   0.943  -0.000   2.802  -0.445   0.000   0.000  -0.088   0.009  -0.000   0.002
  0.198  -0.088   0.946  -7.172  -0.000  -0.445   3.498   0.000  -0.000   0.123  -0.173  -0.000   0.027
 -0.000   0.000  -0.000  -0.000  -4.678   0.000   0.000   2.208   0.118  -0.000  -0.000  -0.015   0.000
 -0.000   0.000  -0.000   0.000  -0.251   0.000  -0.000   0.118   0.048  -0.000  -0.000   0.019   0.000
 -0.018   0.000   0.180  -0.249   0.000  -0.088   0.123  -0.000  -0.000   0.025  -0.018  -0.000   0.014
  0.023  -0.004  -0.014   0.351   0.000   0.009  -0.173  -0.000  -0.000  -0.018   0.042   0.000  -0.015
 -0.000  -0.000   0.000   0.000   0.027  -0.000  -0.000  -0.015   0.019  -0.000   0.000   0.017   0.000
 -0.014   0.009  -0.009  -0.052  -0.000   0.002   0.027   0.000   0.000   0.014  -0.015   0.000   0.017
 total augmentation occupancy for first ion, spin component:           2
  0.000   0.000   0.000  -0.000   0.000  -0.000   0.000  -0.000   0.000   0.000  -0.000  -0.000  -0.000
  0.000   0.000   0.000  -0.000   0.000  -0.000   0.000  -0.000  -0.000   0.000  -0.000   0.000  -0.000
  0.000   0.000   0.000  -0.000  -0.000  -0.000   0.000   0.000   0.000  -0.000  -0.000   0.000  -0.000
 -0.000  -0.000  -0.000   0.000   0.000   0.000  -0.000  -0.000  -0.000   0.000  -0.000   0.000   0.000
  0.000   0.000  -0.000   0.000   0.000   0.000  -0.000  -0.000   0.000   0.000  -0.000   0.000   0.000
 -0.000  -0.000  -0.000   0.000   0.000   0.000  -0.000  -0.000  -0.000   0.000   0.000  -0.000   0.000
  0.000   0.000   0.000  -0.000  -0.000  -0.000   0.000   0.000  -0.000  -0.000   0.000  -0.000  -0.000
 -0.000  -0.000   0.000  -0.000  -0.000  -0.000   0.000   0.000  -0.000  -0.000   0.000  -0.000  -0.000
  0.000  -0.000   0.000  -0.000   0.000  -0.000  -0.000  -0.000  -0.000   0.000  -0.000  -0.000   0.000
  0.000   0.000  -0.000   0.000   0.000   0.000  -0.000  -0.000   0.000  -0.000   0.000   0.000  -0.000
 -0.000  -0.000  -0.000  -0.000  -0.000   0.000   0.000   0.000  -0.000   0.000  -0.000  -0.000   0.000
 -0.000   0.000   0.000   0.000   0.000  -0.000  -0.000  -0.000  -0.000   0.000  -0.000  -0.000   0.000
 -0.000  -0.000  -0.000   0.000   0.000   0.000  -0.000  -0.000   0.000  -0.000   0.000   0.000  -0.000


------------------------ aborting loop because EDIFF is reached ----------------------------------------





 total charge

# of ion       s       p       d       tot
------------------------------------------
    1        1.335   0.970   0.087   2.392
    2        1.335   0.970   0.087   2.392
    3        1.335   0.970   0.087   2.392
    4        1.335   0.970   0.087   2.392
    5        1.295   1.021   0.083   2.399
    6        1.295   1.021   0.083   2.399
    7        1.295   1.021   0.083   2.399
    8        1.295   1.021   0.083   2.399
    9        1.336   2.422   0.000   3.759
   10        1.336   2.422   0.000   3.759
   11        1.336   2.422   0.000   3.759
   12        1.336   2.422   0.000   3.759
   13        1.348   2.424   0.000   3.772
   14        1.348   2.424   0.000   3.772
   15        1.348   2.424   0.000   3.772
   16        1.348   2.424   0.000   3.772
   17        1.347   2.399   0.000   3.746
   18        1.347   2.399   0.000   3.746
   19        1.347   2.399   0.000   3.746
   20        1.347   2.399   0.000   3.746
--------------------------------------------------
tot         26.646  36.947   0.681  64.274



 magnetization (x)

# of ion       s       p       d       tot
------------------------------------------
    1        0.000   0.000   0.000   0.000
    2        0.000   0.000   0.000   0.000
    3        0.000   0.000   0.000   0.000
    4        0.000   0.000   0.000   0.000
    5        0.000  -0.000   0.000   0.000
    6        0.000  -0.000   0.000   0.000
    7        0.000  -0.000   0.000   0.000
    8        0.000  -0.000   0.000   0.000
    9        0.000   0.000   0.000   0.000
   10        0.000   0.000   0.000   0.000
   11        0.000   0.000   0.000   0.000
   12        0.000   0.000   0.000   0.000
   13        0.000   0.000   0.000   0.000
   14        0.000   0.000   0.000   0.000
   15        0.000   0.000   0.000   0.000
   16        0.000   0.000   0.000   0.000
   17        0.000   0.000   0.000   0.000
   18        0.000   0.000   0.000   0.000
   19        0.000   0.000   0.000   0.000
   20        0.000   0.000   0.000   0.000
--------------------------------------------------
tot          0.000   0.000   0.000   0.000
 
    CHARGE:  cpu time      0.0285: real time      0.0286
    FORLOC:  cpu time      0.0046: real time      0.0046
    FORHF :  cpu time     14.5002: real time     14.5517
    FORNL :  cpu time      0.1230: real time      0.1235
    FORCOR:  cpu time      1.0357: real time      1.0384
    FORHAR:  cpu time      0.0140: real time      0.0143
    MIXING:  cpu time      0.0003: real time      0.0003
    OFIELD:  cpu time      0.0005: real time      0.0006

 VOLUME and BASIS-vectors are now :
 -----------------------------------------------------------------------------
  energy-cutoff  :      680.00
  volume of cell :      515.71
      direct lattice vectors                 reciprocal lattice vectors
     3.844732910  0.000000000  0.000000000     0.260096091  0.000000000  0.000000000
    -0.000000000 11.367141140  0.000000000     0.000000000  0.087972867  0.000000000
     0.000000000  0.000000000 11.800118450    -0.000000000 -0.000000000  0.084744912

  length of vectors
     3.844732910 11.367141140 11.800118450     0.260096091  0.087972867  0.084744912


 FORCES acting on ions
    electron-ion (+dipol)            ewald-force                    non-local-force                 convergence-correction
 -----------------------------------------------------------------------------------------------
   0.129E-06 -.187E+02 0.499E+02   -.139E-13 0.242E+02 -.583E+02   0.347E-15 -.564E+01 0.840E+01   -.572E-07 -.631E-04 -.656E-03
   -.366E-07 0.187E+02 -.499E+02   0.121E-13 -.242E+02 0.583E+02   -.347E-15 0.564E+01 -.840E+01   0.337E-06 0.674E-04 0.654E-03
   -.123E-06 -.187E+02 -.499E+02   -.126E-13 0.242E+02 0.583E+02   0.347E-15 -.564E+01 -.840E+01   0.509E-08 -.639E-04 0.659E-03
   0.260E-06 0.187E+02 0.499E+02   0.157E-13 -.242E+02 -.583E+02   -.347E-15 0.564E+01 0.840E+01   0.114E-06 0.635E-04 -.655E-03
   0.911E-07 0.170E+02 -.406E+02   -.449E-13 -.145E+02 0.519E+02   0.153E-15 -.248E+01 -.111E+02   -.165E-06 -.630E-03 0.964E-03
   -.746E-07 -.170E+02 0.406E+02   0.471E-13 0.145E+02 -.519E+02   -.153E-15 0.248E+01 0.111E+02   -.528E-07 0.628E-03 -.970E-03
   0.452E-07 0.170E+02 0.406E+02   -.219E-13 -.145E+02 -.519E+02   0.153E-15 -.248E+01 0.111E+02   -.953E-07 -.627E-03 -.964E-03
   -.136E-06 -.170E+02 -.406E+02   0.269E-13 0.145E+02 0.519E+02   -.153E-15 0.248E+01 -.111E+02   0.473E-07 0.627E-03 0.969E-03
   -.157E-06 0.380E+02 0.174E+02   0.350E-13 -.375E+02 -.181E+02   0.298E-16 -.483E+00 0.461E+00   -.544E-07 -.639E-03 0.101E-02
   -.130E-06 -.380E+02 -.174E+02   -.352E-13 0.375E+02 0.181E+02   -.298E-16 0.483E+00 -.461E+00   0.682E-07 0.632E-03 -.102E-02
   -.369E-07 0.380E+02 -.174E+02   0.346E-14 -.375E+02 0.181E+02   0.298E-16 -.483E+00 -.461E+00   0.930E-07 -.635E-03 -.101E-02
   -.249E-07 -.380E+02 0.174E+02   -.245E-14 0.375E+02 -.181E+02   -.298E-16 0.483E+00 0.461E+00   -.249E-06 0.637E-03 0.102E-02
   -.336E-06 0.571E+02 -.550E+02   0.994E-14 -.583E+02 0.578E+02   -.102E-15 0.166E+01 -.282E+01   0.250E-06 -.908E-03 0.144E-03
   -.500E-06 -.571E+02 0.550E+02   -.792E-14 0.583E+02 -.578E+02   0.102E-15 -.166E+01 0.282E+01   0.583E-06 0.913E-03 -.149E-03
   -.890E-07 0.571E+02 0.550E+02   0.215E-13 -.583E+02 -.578E+02   -.102E-15 0.166E+01 0.282E+01   0.118E-06 -.908E-03 -.146E-03
   0.175E-06 -.571E+02 -.550E+02   -.170E-13 0.583E+02 0.578E+02   0.102E-15 -.166E+01 -.282E+01   -.756E-07 0.908E-03 0.149E-03
   0.306E-06 -.208E+02 0.749E+02   -.155E-13 0.192E+02 -.768E+02   -.809E-16 0.131E+01 0.225E+01   -.289E-06 -.206E-03 -.697E-03
   -.755E-08 0.208E+02 -.749E+02   0.154E-13 -.192E+02 0.768E+02   0.809E-16 -.131E+01 -.225E+01   -.967E-08 0.203E-03 0.705E-03
   0.110E-06 -.208E+02 -.749E+02   -.551E-14 0.192E+02 0.768E+02   -.809E-16 0.131E+01 -.225E+01   -.245E-06 -.200E-03 0.696E-03
   0.146E-08 0.208E+02 0.749E+02   0.128E-13 -.192E+02 -.768E+02   0.809E-16 -.131E+01 0.225E+01   -.260E-06 0.200E-03 -.700E-03
 -----------------------------------------------------------------------------------------------
   -.533E-06 -.782E-07 -.405E-05   0.231E-13 0.213E-13 0.114E-12   0.112E-22 -.200E-14 -.133E-14   0.618E-07 0.230E-06 0.303E-05
 
 
 POSITION                                       TOTAL-FORCE (eV/Angst)
 -----------------------------------------------------------------------------------
      2.88355      5.29235     10.11684         0.000000     -0.461939      0.437872
      0.96118      6.07479      1.68328        -0.000000      0.461939     -0.437872
      0.96118     10.97593      7.58334         0.000000     -0.461939     -0.437872
      2.88355      0.39122      4.21678        -0.000000      0.461939      0.437872
      0.96118      1.96746     11.41005         0.000000     -0.179721     -0.548347
      2.88355      9.39969      0.39007        -0.000000      0.179721      0.548347
      2.88355      7.65103      6.29013         0.000000     -0.179721      0.548347
      0.96118      3.71612      5.50999        -0.000000      0.179721     -0.548347
      2.88355      0.69873     10.33604        -0.000000      0.123101      0.016637
      0.96118     10.66841      1.46407         0.000000     -0.123101     -0.016637
      0.96118      6.38230      7.36413        -0.000000      0.123101     -0.016637
      2.88355      4.98484      4.43599         0.000000     -0.123101      0.016637
      2.88355      4.31078      0.57279        -0.000000      0.773690     -0.302808
      0.96118      7.05636     11.22732         0.000000     -0.773690      0.302808
      0.96118      9.99435      5.32726        -0.000000      0.773690      0.302808
      2.88355      1.37279      6.47285         0.000000     -0.773690     -0.302808
      0.96118      2.14325      3.54298         0.000000     -0.179680      0.720811
      2.88355      9.22389      8.25714        -0.000000      0.179680     -0.720811
      2.88355      7.82682      2.35708         0.000000     -0.179680     -0.720811
      0.96118      3.54032      9.44304        -0.000000      0.179680      0.720811
 -----------------------------------------------------------------------------------
    total drift:                               -0.000000      0.000000     -0.000001


--------------------------------------------------------------------------------------------------------



  FREE ENERGIE OF THE ION-ELECTRON SYSTEM (eV)
  ---------------------------------------------------
  free  energy   TOTEN  =       -83.09965607 eV

  energy  without entropy=      -83.09965607  energy(sigma->0) =      -83.09965607
 


--------------------------------------------------------------------------------------------------------


    POTLOK:  cpu time      1.0448: real time      1.0475


--------------------------------------------------------------------------------------------------------


 writing wavefunctions
     LOOP+:  cpu time    399.5196: real time    402.5285
    4ORBIT:  cpu time      0.0000: real time      0.0000



 total charge

# of ion       s       p       d       tot
------------------------------------------
    1        1.335   0.970   0.087   2.392
    2        1.335   0.970   0.087   2.392
    3        1.335   0.970   0.087   2.392
    4        1.335   0.970   0.087   2.392
    5        1.295   1.021   0.083   2.399
    6        1.295   1.021   0.083   2.399
    7        1.295   1.021   0.083   2.399
    8        1.295   1.021   0.083   2.399
    9        1.336   2.422   0.000   3.759
   10        1.336   2.422   0.000   3.759
   11        1.336   2.422   0.000   3.759
   12        1.336   2.422   0.000   3.759
   13        1.348   2.424   0.000   3.772
   14        1.348   2.424   0.000   3.772
   15        1.348   2.424   0.000   3.772
   16        1.348   2.424   0.000   3.772
   17        1.347   2.399   0.000   3.746
   18        1.347   2.399   0.000   3.746
   19        1.347   2.399   0.000   3.746
   20        1.347   2.399   0.000   3.746
--------------------------------------------------
tot         26.646  36.947   0.681  64.274



 magnetization (x)

# of ion       s       p       d       tot
------------------------------------------
    1        0.000   0.000   0.000   0.000
    2        0.000   0.000   0.000   0.000
    3        0.000   0.000   0.000   0.000
    4        0.000   0.000   0.000   0.000
    5        0.000  -0.000   0.000   0.000
    6        0.000  -0.000   0.000   0.000
    7        0.000  -0.000   0.000   0.000
    8        0.000  -0.000   0.000   0.000
    9        0.000   0.000   0.000   0.000
   10        0.000   0.000   0.000   0.000
   11        0.000   0.000   0.000   0.000
   12        0.000   0.000   0.000   0.000
   13        0.000   0.000   0.000   0.000
   14        0.000   0.000   0.000   0.000
   15        0.000   0.000   0.000   0.000
   16        0.000   0.000   0.000   0.000
   17        0.000   0.000   0.000   0.000
   18        0.000   0.000   0.000   0.000
   19        0.000   0.000   0.000   0.000
   20        0.000   0.000   0.000   0.000
--------------------------------------------------
tot          0.000   0.000   0.000   0.000
 

 total amount of memory used by VASP MPI-rank0   143271. kBytes
=======================================================================

   base      :      30000. kBytes
   nonl-proj :       1971. kBytes
   fftplans  :       3637. kBytes
   grid      :       6309. kBytes
   one-center:         32. kBytes
   HF        :         67. kBytes
   nonlr-proj:      15229. kBytes
   wavefun   :       1419. kBytes
   fock_wrk  :      84607. kBytes
 
  
  
 General timing and accounting informations for this job:
 ========================================================
  
                  Total CPU time used (sec):      428.321
                            User time (sec):      383.869
                          System time (sec):       44.452
                         Elapsed time (sec):      437.988
  
                   Maximum memory used (kb):      597580.
                   Average memory used (kb):          N/A
  
                          Minor page faults:       394228
                          Major page faults:            0
                 Voluntary context switches:        11474
