 vasp.6.4.2 20Jul23 (build Mar 15 2024 16:31:38) complex                        
  
 executed on             LinuxIFC date 2025.03.19  14:18:49
 running  120 mpi-ranks, on    3 nodes
 distrk:  each k-point on  120 cores,    1 groups
 distr:  one band on NCORE=  10 cores,   12 groups


--------------------------------------------------------------------------------------------------------


 INCAR:
   ALGO = Normal
   EDIFF = 1e-05
   ENAUG = 1360
   ENCUT = 680
   GGA = Pe
   HFSCREEN = 0.2
   ISMEAR = -5
   ISPIN = 2
   LAECHG = True
   LASPH = True
   LCHARG = True
   LDAU = False
   LELF = False
   LHFCALC = True
   LMAXMIX = 4
   LMIXTAU = True
   LORBIT = 11
   LREAL = False
   LVTOT = True
   LWAVE = True
   MAGMOM = 2*0.6
   NCORE = 10
   NELM = 200
   NSW = 0
   PREC = Accurate
   PRECFOCK = Fast
   SIGMA = 0.2

 POTCAR:    PAW_PBE Cd 06Sep2000                  
 POTCAR:    PAW_PBE Te 08Apr2002                  
 WARNING: For LVTOT=.TRUE., VASP.5.x writes the TOTAL local potential to the
     file LOCPOT. If you want only the Hartree contributions, use LVHAR=.TRUE.
     instead. 

 POTCAR:    PAW_PBE Cd 06Sep2000                  
   VRHFIN =Cd : s2 d10                                                                              
   LEXCH  = PE                                                                                      
   EATOM  =  1293.1815 eV,   95.0462 Ry                                                             
                                                                                                    
   TITEL  = PAW_PBE Cd 06Sep2000                                                                    
   LULTRA =        F    use ultrasoft PP ?                                                          
   IUNSCR =        1    unscreen: 0-lin 1-nonlin 2-no                                               
   RPACOR =    2.000    partial core radius                                                         
   POMASS =  112.411; ZVAL   =   12.000    mass and valenz                                          
   RCORE  =    2.300    outmost cutoff radius                                                       
   RWIGS  =    2.980; RWIGS  =    1.577    wigner-seitz radius (au A)                               
   ENMAX  =  274.336; ENMIN  =  205.752 eV                                                          
   RCLOC  =    2.054    cutoff for local pot                                                        
   LCOR   =        T    correct aug charges                                                         
   LPAW   =        T    paw PP                                                                      
   EAUG   =  456.106                                                                                
   DEXC   =    0.000                                                                                
   RMAX   =    2.358    core radius for proj-oper                                                   
   RAUG   =    1.300    factor for augmentation sphere                                              
   RDEP   =    2.450    radius for radial grids                                                     
   RDEPT  =    1.955    core radius for aug-charge                                                  
                                                                                                    
   Atomic configuration                                                                             
   12 entries                                                                                       
     n  l   j            E        occ.                                                              
     1  0  0.50    -26519.7817   2.0000                                                             
     2  0  0.50     -3936.9612   2.0000                                                             
     2  1  1.50     -3532.2230   6.0000                                                             
     3  0  0.50      -733.7908   2.0000                                                             
     3  1  1.50      -601.0792   6.0000                                                             
     3  2  2.50      -393.5307  10.0000                                                             
     4  0  0.50      -105.8977   2.0000                                                             
     4  1  1.50       -66.9488   6.0000                                                             
     4  2  2.50       -11.7331  10.0000                                                             
     5  0  0.50        -5.6592   2.0000                                                             
     5  1  0.50        -1.3606   0.0000                                                             
     4  3  2.50        -1.3606   0.0000                                                             
   Description                                                                                      
     l       E           TYP  RCUT    TYP  RCUT                                                     
     2    -11.7331479     23  2.300                                                                 
     2    -13.0937305     23  2.300                                                                 
     0     -5.6591502     23  2.300                                                                 
     0     -1.5561433     23  2.300                                                                 
     1     -2.7211652     23  2.300                                                                 
     1      8.3548275     23  2.300                                                                 
  local pseudopotential read in
  partial core-charges read in
  partial kinetic energy density read in
  atomic valenz-charges read in
  non local Contribution for L=           2  read in
    real space projection operators read in
  non local Contribution for L=           2  read in
    real space projection operators read in
  non local Contribution for L=           0  read in
    real space projection operators read in
  non local Contribution for L=           0  read in
    real space projection operators read in
  non local Contribution for L=           1  read in
    real space projection operators read in
  non local Contribution for L=           1  read in
    real space projection operators read in
    PAW grid and wavefunctions read in
 
   number of l-projection  operators is LMAX  =           6
   number of lm-projection operators is LMMAX =          18
 
 POTCAR:    PAW_PBE Te 08Apr2002                  
   VRHFIN =Te: s2p4                                                                                 
   LEXCH  = PE                                                                                      
   EATOM  =   223.2721 eV,   16.4100 Ry                                                             
                                                                                                    
   TITEL  = PAW_PBE Te 08Apr2002                                                                    
   LULTRA =        F    use ultrasoft PP ?                                                          
   IUNSCR =        1    unscreen: 0-lin 1-nonlin 2-no                                               
   RPACOR =    2.200    partial core radius                                                         
   POMASS =  127.600; ZVAL   =    6.000    mass and valenz                                          
   RCORE  =    2.300    outmost cutoff radius                                                       
   RWIGS  =    2.900; RWIGS  =    1.535    wigner-seitz radius (au A)                               
   ENMAX  =  174.982; ENMIN  =  131.236 eV                                                          
   ICORE  =        3    local potential                                                             
   LCOR   =        T    correct aug charges                                                         
   LPAW   =        T    paw PP                                                                      
   EAUG   =  368.792                                                                                
   DEXC   =    0.000                                                                                
   RMAX   =    2.345    core radius for proj-oper                                                   
   RAUG   =    1.300    factor for augmentation sphere                                              
   RDEP   =    2.397    radius for radial grids                                                     
   RDEPT  =    2.174    core radius for aug-charge                                                  
                                                                                                    
   Atomic configuration                                                                             
   13 entries                                                                                       
     n  l   j            E        occ.                                                              
     1  0  0.50    -31621.2075   2.0000                                                             
     2  0  0.50     -4848.7941   2.0000                                                             
     2  1  1.50     -4352.1960   6.0000                                                             
     3  0  0.50      -964.9612   2.0000                                                             
     3  1  1.50      -803.6179   6.0000                                                             
     3  2  2.50      -559.8710  10.0000                                                             
     4  0  0.50      -164.3522   2.0000                                                             
     4  1  1.50      -114.3756   6.0000                                                             
     4  2  2.50       -41.6483  10.0000                                                             
     5  0  0.50       -15.1072   2.0000                                                             
     5  1  0.50        -5.9526   4.0000                                                             
     5  2  1.50        -5.4423   0.0000                                                             
     4  3  2.50        -5.4423   0.0000                                                             
   Description                                                                                      
     l       E           TYP  RCUT    TYP  RCUT                                                     
     0    -15.1072389     23  2.300                                                                 
     0    -16.4678215     23  2.300                                                                 
     1     -5.9526306     23  2.300                                                                 
     1     -2.4873968     23  2.300                                                                 
     2     -5.4423304     23  2.300                                                                 
     3     -1.3605826     23  2.300                                                                 
  local pseudopotential read in
  partial core-charges read in
  partial kinetic energy density read in
  atomic valenz-charges read in
  non local Contribution for L=           0  read in
    real space projection operators read in
  non local Contribution for L=           0  read in
    real space projection operators read in
  non local Contribution for L=           1  read in
    real space projection operators read in
  non local Contribution for L=           1  read in
    real space projection operators read in
  non local Contribution for L=           2  read in
    real space projection operators read in
    PAW grid and wavefunctions read in
 
   number of l-projection  operators is LMAX  =           5
   number of lm-projection operators is LMMAX =          13
 
  PAW_PBE Cd 06Sep2000                  :
 energy of atom  1       EATOM=-1293.1815
 kinetic energy error for atom=    0.0016 (will be added to EATOM!!)
  PAW_PBE Te 08Apr2002                  :
 energy of atom  2       EATOM= -223.2721
 kinetic energy error for atom=    0.0003 (will be added to EATOM!!)
 
 
 POSCAR: Cd1 Te1
  positions in direct lattice
  No initial velocities read in
 exchange correlation table for  LEXCH =        8
   RHO(1)=    0.500       N(1)  =     2000
   RHO(2)=  100.500       N(2)  =     4000
 


--------------------------------------------------------------------------------------------------------


 ion  position               nearest neighbor table
   1  0.000  0.000  0.000-   2 2.84   2 2.84   2 2.84   2 2.84
   2  0.250  0.250  0.250-   1 2.84   1 2.84   1 2.84   1 2.84
 
  LATTYP: Found a face centered cubic cell.
 ALAT       =     6.5642266394
  
  Lattice vectors:
  
 A1 = (   4.0197509263,   0.0000000000,   2.3208040418)
 A2 = (   1.3399166303,   3.7898585364,   2.3208040385)
 A3 = (   0.0000000000,   0.0000000000,   4.6416101500)


Analysis of symmetry for initial positions (statically):
=====================================================================
 Subroutine PRICEL returns:
 Original cell was already a primitive cell.
 

 Routine SETGRP: Setting up the symmetry group for a 
 face centered cubic supercell.


 Subroutine GETGRP returns: Found 24 space group operations
 (whereof 24 operations were pure point group operations)
 out of a pool of 48 trial point group operations.


The static configuration has the point symmetry T_d .


Analysis of symmetry for dynamics (positions and initial velocities):
=====================================================================
 Subroutine PRICEL returns:
 Original cell was already a primitive cell.
 

 Routine SETGRP: Setting up the symmetry group for a 
 face centered cubic supercell.


 Subroutine GETGRP returns: Found 24 space group operations
 (whereof 24 operations were pure point group operations)
 out of a pool of 48 trial point group operations.


The dynamic configuration has the point symmetry T_d .


Analysis of structural, dynamic, and magnetic symmetry:
=====================================================================
 Subroutine PRICEL returns:
 Original cell was already a primitive cell.
 

 Routine SETGRP: Setting up the symmetry group for a 
 face centered cubic supercell.


 Subroutine GETGRP returns: Found 24 space group operations
 (whereof 24 operations were pure point group operations)
 out of a pool of 48 trial point group operations.


The overall configuration has the point symmetry T_d .


 Subroutine INISYM returns: Found 24 space group operations
 (whereof 24 operations are pure point group operations),
 and found     1 'primitive' translations


----------------------------------------------------------------------------------------

                                     Primitive cell                                     

  volume of cell :      70.7116

  direct lattice vectors                    reciprocal lattice vectors
     4.019750926  0.000000000  2.320804042     0.248771632 -0.087954008  0.000000000
     1.339916630  3.789858536  2.320804038     0.000000000  0.263862092  0.000000000
     0.000000000  0.000000000  4.641610150    -0.124385761 -0.087954002  0.215442480

  length of vectors
     4.641608440  4.641609170  4.641610150     0.263862147  0.263862092  0.263862059

  position of ions in fractional coordinates (direct lattice)
     0.000000000  0.000000000  0.000000000
     0.250000000  0.250000000  0.250000000

  ion indices of the primitive-cell ions
   primitive index   ion index
                 1           1
                 2           2

----------------------------------------------------------------------------------------

 
 
 KPOINTS: pymatgen with grid density = 449 / numbe

Automatic generation of k-mesh.
 Grid dimensions read from file:
 generate k-points for:    6    6    6

 Generating k-lattice:

  Cartesian coordinates                     Fractional coordinates (reciprocal lattice)
     0.041461939 -0.014659001  0.000000000     0.166666667 -0.000000000  0.000000000
     0.000000000  0.043977015  0.000000000     0.000000000  0.166666667  0.000000000
    -0.020730960 -0.014659000  0.035907080     0.000000000 -0.000000000  0.166666667

  Length of vectors
     0.043977024  0.043977015  0.043977010

  Shift w.r.t. Gamma in fractional coordinates (k-lattice)
     0.000000000  0.000000000  0.000000000

 TETIRR: Found     35 inequivalent tetrahedra from     1296
 
 Subroutine IBZKPT returns following result:
 ===========================================
 
 Found     16 irreducible k-points:
 
 Following reciprocal coordinates:
            Coordinates               Weight
  0.000000  0.000000  0.000000      1.000000
  0.166667  0.000000  0.000000      8.000000
  0.333333  0.000000  0.000000      8.000000
  0.500000  0.000000  0.000000      4.000000
  0.166667  0.166667  0.000000      6.000000
  0.333333  0.166667  0.000000     24.000000
  0.500000  0.166667  0.000000     24.000000
 -0.333333  0.166667  0.000000     24.000000
 -0.166667  0.166667  0.000000     12.000000
  0.333333  0.333333  0.000000      6.000000
  0.500000  0.333333  0.000000     24.000000
 -0.333333  0.333333  0.000000     12.000000
  0.500000  0.500000  0.000000      3.000000
  0.500000  0.333333  0.166667     24.000000
 -0.333333  0.333333  0.166667     24.000000
 -0.333333  0.500000  0.166667     12.000000
 
 Following cartesian coordinates:
            Coordinates               Weight
  0.000000  0.000000  0.000000      1.000000
  0.041462 -0.014659  0.000000      8.000000
  0.082924 -0.029318  0.000000      8.000000
  0.124386 -0.043977  0.000000      4.000000
  0.041462  0.029318  0.000000      6.000000
  0.082924  0.014659  0.000000     24.000000
  0.124386  0.000000  0.000000     24.000000
 -0.082924  0.073295  0.000000     24.000000
 -0.041462  0.058636  0.000000     12.000000
  0.082924  0.058636  0.000000      6.000000
  0.124386  0.043977  0.000000     24.000000
 -0.082924  0.117272  0.000000     12.000000
  0.124386  0.087954  0.000000      3.000000
  0.103655  0.029318  0.035907     24.000000
 -0.103655  0.102613  0.035907     24.000000
 -0.103655  0.146590  0.035907     12.000000
 
 
 Subroutine IBZKPT_HF returns following result:
 ==============================================
 
 Found    216 k-points in 1st BZ
 the following    216 k-points will be used (e.g. in the exchange kernel)
 Following reciprocal coordinates:   # in IRBZ
  0.000000  0.000000  0.000000    0.00462963   1 t-inv F
  0.166667  0.000000  0.000000    0.00462963   2 t-inv F
  0.333333  0.000000  0.000000    0.00462963   3 t-inv F
  0.500000  0.000000  0.000000    0.00462963   4 t-inv F
  0.166667  0.166667  0.000000    0.00462963   5 t-inv F
  0.333333  0.166667  0.000000    0.00462963   6 t-inv F
  0.500000  0.166667  0.000000    0.00462963   7 t-inv F
 -0.333333  0.166667  0.000000    0.00462963   8 t-inv F
 -0.166667  0.166667  0.000000    0.00462963   9 t-inv F
  0.333333  0.333333  0.000000    0.00462963  10 t-inv F
  0.500000  0.333333  0.000000    0.00462963  11 t-inv F
 -0.333333  0.333333  0.000000    0.00462963  12 t-inv F
  0.500000  0.500000  0.000000    0.00462963  13 t-inv F
  0.500000  0.333333  0.166667    0.00462963  14 t-inv F
 -0.333333  0.333333  0.166667    0.00462963  15 t-inv F
 -0.333333  0.500000  0.166667    0.00462963  16 t-inv F
  0.000000  0.166667  0.000000    0.00462963   2 t-inv F
  0.000000  0.000000  0.166667    0.00462963   2 t-inv F
 -0.166667 -0.166667 -0.166667    0.00462963   2 t-inv F
  0.000000  0.333333  0.000000    0.00462963   3 t-inv F
  0.000000  0.000000  0.333333    0.00462963   3 t-inv F
 -0.333333 -0.333333 -0.333333    0.00462963   3 t-inv F
  0.000000  0.500000  0.000000    0.00462963   4 t-inv F
  0.000000  0.000000  0.500000    0.00462963   4 t-inv F
 -0.500000 -0.500000 -0.500000    0.00462963   4 t-inv F
  0.000000  0.166667  0.166667    0.00462963   5 t-inv F
  0.166667  0.000000  0.166667    0.00462963   5 t-inv F
 -0.166667 -0.166667  0.000000    0.00462963   5 t-inv F
 -0.166667  0.000000 -0.166667    0.00462963   5 t-inv F
  0.000000 -0.166667 -0.166667    0.00462963   5 t-inv F
  0.000000  0.333333  0.166667    0.00462963   6 t-inv F
  0.166667  0.000000  0.333333    0.00462963   6 t-inv F
 -0.166667 -0.166667  0.166667    0.00462963   6 t-inv F
 -0.333333 -0.166667 -0.333333    0.00462963   6 t-inv F
  0.166667  0.333333  0.000000    0.00462963   6 t-inv F
  0.166667 -0.166667 -0.166667    0.00462963   6 t-inv F
 -0.333333 -0.333333 -0.166667    0.00462963   6 t-inv F
  0.000000  0.166667  0.333333    0.00462963   6 t-inv F
 -0.166667  0.166667 -0.166667    0.00462963   6 t-inv F
 -0.166667 -0.333333 -0.333333    0.00462963   6 t-inv F
  0.333333  0.000000  0.166667    0.00462963   6 t-inv F
  0.000000  0.500000  0.166667    0.00462963   7 t-inv F
  0.166667  0.000000  0.500000    0.00462963   7 t-inv F
 -0.166667 -0.166667  0.333333    0.00462963   7 t-inv F
 -0.500000 -0.333333 -0.500000    0.00462963   7 t-inv F
  0.166667  0.500000  0.000000    0.00462963   7 t-inv F
  0.333333 -0.166667 -0.166667    0.00462963   7 t-inv F
 -0.500000 -0.500000 -0.333333    0.00462963   7 t-inv F
  0.000000  0.166667  0.500000    0.00462963   7 t-inv F
 -0.166667  0.333333 -0.166667    0.00462963   7 t-inv F
 -0.333333 -0.500000 -0.500000    0.00462963   7 t-inv F
  0.500000  0.000000  0.166667    0.00462963   7 t-inv F
  0.000000 -0.333333  0.166667    0.00462963   8 t-inv F
  0.166667  0.000000 -0.333333    0.00462963   8 t-inv F
 -0.166667 -0.166667 -0.500000    0.00462963   8 t-inv F
  0.333333  0.500000  0.333333    0.00462963   8 t-inv F
  0.166667 -0.333333  0.000000    0.00462963   8 t-inv F
 -0.500000 -0.166667 -0.166667    0.00462963   8 t-inv F
  0.333333  0.333333  0.500000    0.00462963   8 t-inv F
  0.000000  0.166667 -0.333333    0.00462963   8 t-inv F
 -0.166667 -0.500000 -0.166667    0.00462963   8 t-inv F
  0.500000  0.333333  0.333333    0.00462963   8 t-inv F
 -0.333333  0.000000  0.166667    0.00462963   8 t-inv F
  0.000000 -0.166667  0.166667    0.00462963   9 t-inv F
  0.166667  0.000000 -0.166667    0.00462963   9 t-inv F
 -0.166667 -0.166667 -0.333333    0.00462963   9 t-inv F
  0.166667  0.333333  0.166667    0.00462963   9 t-inv F
  0.166667 -0.166667  0.000000    0.00462963   9 t-inv F
 -0.333333 -0.166667 -0.166667    0.00462963   9 t-inv F
  0.166667  0.166667  0.333333    0.00462963   9 t-inv F
  0.000000  0.166667 -0.166667    0.00462963   9 t-inv F
 -0.166667 -0.333333 -0.166667    0.00462963   9 t-inv F
  0.333333  0.166667  0.166667    0.00462963   9 t-inv F
 -0.166667  0.000000  0.166667    0.00462963   9 t-inv F
  0.000000  0.333333  0.333333    0.00462963  10 t-inv F
  0.333333  0.000000  0.333333    0.00462963  10 t-inv F
 -0.333333 -0.333333 -0.000000    0.00462963  10 t-inv F
 -0.333333  0.000000 -0.333333    0.00462963  10 t-inv F
 -0.000000 -0.333333 -0.333333    0.00462963  10 t-inv F
  0.000000  0.500000  0.333333    0.00462963  11 t-inv F
  0.333333  0.000000  0.500000    0.00462963  11 t-inv F
 -0.333333 -0.333333  0.166667    0.00462963  11 t-inv F
 -0.500000 -0.166667 -0.500000    0.00462963  11 t-inv F
  0.333333  0.500000  0.000000    0.00462963  11 t-inv F
  0.166667 -0.333333 -0.333333    0.00462963  11 t-inv F
 -0.500000 -0.500000 -0.166667    0.00462963  11 t-inv F
  0.000000  0.333333  0.500000    0.00462963  11 t-inv F
 -0.333333  0.166667 -0.333333    0.00462963  11 t-inv F
 -0.166667 -0.500000 -0.500000    0.00462963  11 t-inv F
  0.500000  0.000000  0.333333    0.00462963  11 t-inv F
  0.000000 -0.333333  0.333333    0.00462963  12 t-inv F
  0.333333  0.000000 -0.333333    0.00462963  12 t-inv F
 -0.333333 -0.333333 -0.666667    0.00462963  12 t-inv F
  0.333333  0.666667  0.333333    0.00462963  12 t-inv F
  0.333333 -0.333333  0.000000    0.00462963  12 t-inv F
 -0.666667 -0.333333 -0.333333    0.00462963  12 t-inv F
  0.333333  0.333333  0.666667    0.00462963  12 t-inv F
  0.000000  0.333333 -0.333333    0.00462963  12 t-inv F
 -0.333333 -0.666667 -0.333333    0.00462963  12 t-inv F
  0.666667  0.333333  0.333333    0.00462963  12 t-inv F
 -0.333333  0.000000  0.333333    0.00462963  12 t-inv F
  0.000000  0.500000  0.500000    0.00462963  13 t-inv F
  0.500000  0.000000  0.500000    0.00462963  13 t-inv F
  0.166667  0.500000  0.333333    0.00462963  14 t-inv F
  0.333333  0.166667  0.500000    0.00462963  14 t-inv F
 -0.333333 -0.166667  0.166667    0.00462963  14 t-inv F
 -0.500000 -0.166667 -0.333333    0.00462963  14 t-inv F
 -0.166667  0.333333  0.166667    0.00462963  14 t-inv F
  0.166667  0.333333 -0.166667    0.00462963  14 t-inv F
  0.166667 -0.166667 -0.333333    0.00462963  14 t-inv F
 -0.333333 -0.166667 -0.500000    0.00462963  14 t-inv F
 -0.333333 -0.500000 -0.166667    0.00462963  14 t-inv F
  0.166667 -0.166667  0.333333    0.00462963  14 t-inv F
  0.166667 -0.333333 -0.166667    0.00462963  14 t-inv F
 -0.166667  0.166667  0.333333    0.00462963  14 t-inv F
 -0.333333  0.166667 -0.166667    0.00462963  14 t-inv F
 -0.500000 -0.333333 -0.166667    0.00462963  14 t-inv F
 -0.166667 -0.333333 -0.500000    0.00462963  14 t-inv F
  0.333333  0.166667 -0.166667    0.00462963  14 t-inv F
 -0.166667  0.166667 -0.333333    0.00462963  14 t-inv F
  0.333333 -0.166667  0.166667    0.00462963  14 t-inv F
 -0.166667 -0.333333  0.166667    0.00462963  14 t-inv F
 -0.166667 -0.500000 -0.333333    0.00462963  14 t-inv F
  0.500000  0.166667  0.333333    0.00462963  14 t-inv F
  0.333333  0.500000  0.166667    0.00462963  14 t-inv F
  0.166667  0.333333  0.500000    0.00462963  14 t-inv F
  0.166667 -0.333333  0.333333    0.00462963  15 t-inv F
  0.333333  0.166667 -0.333333    0.00462963  15 t-inv F
 -0.333333 -0.166667 -0.666667    0.00462963  15 t-inv F
  0.333333  0.666667  0.500000    0.00462963  15 t-inv F
 -0.166667 -0.500000  0.166667    0.00462963  15 t-inv F
  0.166667 -0.500000 -0.166667    0.00462963  15 t-inv F
 -0.666667 -0.166667 -0.333333    0.00462963  15 t-inv F
  0.500000  0.666667  0.333333    0.00462963  15 t-inv F
  0.500000  0.333333  0.666667    0.00462963  15 t-inv F
  0.166667 -0.166667 -0.500000    0.00462963  15 t-inv F
 -0.666667 -0.333333 -0.166667    0.00462963  15 t-inv F
 -0.166667  0.166667 -0.500000    0.00462963  15 t-inv F
 -0.333333 -0.666667 -0.166667    0.00462963  15 t-inv F
  0.333333  0.500000  0.666667    0.00462963  15 t-inv F
  0.666667  0.500000  0.333333    0.00462963  15 t-inv F
 -0.500000  0.166667 -0.166667    0.00462963  15 t-inv F
 -0.166667 -0.666667 -0.333333    0.00462963  15 t-inv F
 -0.500000 -0.166667  0.166667    0.00462963  15 t-inv F
 -0.166667 -0.333333 -0.666667    0.00462963  15 t-inv F
  0.666667  0.333333  0.500000    0.00462963  15 t-inv F
 -0.333333  0.166667  0.333333    0.00462963  15 t-inv F
  0.333333 -0.333333  0.166667    0.00462963  15 t-inv F
  0.166667  0.333333 -0.333333    0.00462963  15 t-inv F
  0.166667 -0.333333  0.500000    0.00462963  16 t-inv F
  0.500000  0.166667 -0.333333    0.00462963  16 t-inv F
 -0.500000 -0.333333 -0.833333    0.00462963  16 t-inv F
  0.333333  0.833333  0.500000    0.00462963  16 t-inv F
 -0.166667 -0.500000  0.333333    0.00462963  16 t-inv F
  0.333333 -0.500000 -0.166667    0.00462963  16 t-inv F
  0.500000  0.833333  0.333333    0.00462963  16 t-inv F
  0.500000  0.333333  0.833333    0.00462963  16 t-inv F
 -0.833333 -0.500000 -0.333333    0.00462963  16 t-inv F
 -0.166667  0.333333 -0.500000    0.00462963  16 t-inv F
 -0.333333 -0.833333 -0.500000    0.00462963  16 t-inv F
 -0.166667 -0.000000  0.000000    0.00462963   2 t-inv T
  0.000000 -0.166667 -0.000000    0.00462963   2 t-inv T
 -0.000000  0.000000 -0.166667    0.00462963   2 t-inv T
  0.166667  0.166667  0.166667    0.00462963   2 t-inv T
 -0.333333 -0.000000  0.000000    0.00462963   3 t-inv T
  0.000000 -0.333333 -0.000000    0.00462963   3 t-inv T
 -0.000000  0.000000 -0.333333    0.00462963   3 t-inv T
  0.333333  0.333333  0.333333    0.00462963   3 t-inv T
 -0.333333 -0.166667  0.000000    0.00462963   6 t-inv T
  0.000000 -0.333333 -0.166667    0.00462963   6 t-inv T
 -0.166667  0.000000 -0.333333    0.00462963   6 t-inv T
  0.166667  0.166667 -0.166667    0.00462963   6 t-inv T
  0.333333  0.166667  0.333333    0.00462963   6 t-inv T
 -0.166667 -0.333333  0.000000    0.00462963   6 t-inv T
 -0.166667  0.166667  0.166667    0.00462963   6 t-inv T
  0.333333  0.333333  0.166667    0.00462963   6 t-inv T
  0.000000 -0.166667 -0.333333    0.00462963   6 t-inv T
  0.166667 -0.166667  0.166667    0.00462963   6 t-inv T
  0.166667  0.333333  0.333333    0.00462963   6 t-inv T
 -0.333333  0.000000 -0.166667    0.00462963   6 t-inv T
 -0.500000 -0.166667  0.000000    0.00462963   7 t-inv T
  0.000000 -0.500000 -0.166667    0.00462963   7 t-inv T
 -0.166667  0.000000 -0.500000    0.00462963   7 t-inv T
  0.166667  0.166667 -0.333333    0.00462963   7 t-inv T
  0.500000  0.333333  0.500000    0.00462963   7 t-inv T
 -0.166667 -0.500000  0.000000    0.00462963   7 t-inv T
 -0.333333  0.166667  0.166667    0.00462963   7 t-inv T
  0.500000  0.500000  0.333333    0.00462963   7 t-inv T
  0.000000 -0.166667 -0.500000    0.00462963   7 t-inv T
  0.166667 -0.333333  0.166667    0.00462963   7 t-inv T
  0.333333  0.500000  0.500000    0.00462963   7 t-inv T
 -0.500000  0.000000 -0.166667    0.00462963   7 t-inv T
  0.333333 -0.166667  0.000000    0.00462963   8 t-inv T
  0.000000  0.333333 -0.166667    0.00462963   8 t-inv T
 -0.166667  0.000000  0.333333    0.00462963   8 t-inv T
  0.166667  0.166667  0.500000    0.00462963   8 t-inv T
 -0.333333 -0.500000 -0.333333    0.00462963   8 t-inv T
 -0.166667  0.333333  0.000000    0.00462963   8 t-inv T
  0.500000  0.166667  0.166667    0.00462963   8 t-inv T
 -0.333333 -0.333333 -0.500000    0.00462963   8 t-inv T
  0.000000 -0.166667  0.333333    0.00462963   8 t-inv T
  0.166667  0.500000  0.166667    0.00462963   8 t-inv T
 -0.500000 -0.333333 -0.333333    0.00462963   8 t-inv T
  0.333333  0.000000 -0.166667    0.00462963   8 t-inv T
 -0.500000 -0.333333  0.000000    0.00462963  11 t-inv T
  0.000000 -0.500000 -0.333333    0.00462963  11 t-inv T
 -0.333333  0.000000 -0.500000    0.00462963  11 t-inv T
  0.333333  0.333333 -0.166667    0.00462963  11 t-inv T
  0.500000  0.166667  0.500000    0.00462963  11 t-inv T
 -0.333333 -0.500000  0.000000    0.00462963  11 t-inv T
 -0.166667  0.333333  0.333333    0.00462963  11 t-inv T
  0.500000  0.500000  0.166667    0.00462963  11 t-inv T
  0.000000 -0.333333 -0.500000    0.00462963  11 t-inv T
  0.333333 -0.166667  0.333333    0.00462963  11 t-inv T
  0.166667  0.500000  0.500000    0.00462963  11 t-inv T
 -0.500000  0.000000 -0.333333    0.00462963  11 t-inv T


--------------------------------------------------------------------------------------------------------




 Dimension of arrays:
   k-points           NKPTS =     16   k-points in BZ     NKDIM =    216   number of bands    NBANDS=     24
   number of dos      NEDOS =    301   number of ions     NIONS =      2
   non local maximal  LDIM  =      6   non local SUM 2l+1 LMDIM =     18
   total plane-waves  NPLWV =  64000
   max r-space proj   IRMAX =      1   max aug-charges    IRDMAX=  52836
   dimension x,y,z NGX =    40 NGY =   40 NGZ =   40
   dimension x,y,z NGXF=    80 NGYF=   80 NGZF=   80
   support grid    NGXF=    80 NGYF=   80 NGZF=   80
   ions per type =               1   1
   NGX,Y,Z   is equivalent  to a cutoff of  14.33, 14.33, 14.33 a.u.
   NGXF,Y,Z  is equivalent  to a cutoff of  28.65, 28.65, 28.65 a.u.

 SYSTEM =  unknown system                          
 POSCAR =  Cd1 Te1                                 

 Startparameter for this run:
   NWRITE =      2    write-flag & timer
   PREC   = accura    normal or accurate (medium, high low for compatibility)
   ISTART =      0    job   : 0-new  1-cont  2-samecut
   ICHARG =      2    charge: 1-file 2-atom 10-const
   ISPIN  =      2    spin polarized calculation?
   LNONCOLLINEAR =      F non collinear calculations
   LSORBIT =      F    spin-orbit coupling
   INIWAV =      1    electr: 0-lowe 1-rand  2-diag
   LASPH  =      T    aspherical Exc in radial PAW
 Electronic Relaxation 1
   ENCUT  =  680.0 eV  49.98 Ry    7.07 a.u.   9.87  9.87  9.87*2*pi/ulx,y,z
   ENINI  =  680.0     initial cutoff
   ENAUG  = 1360.0 eV  augmentation charge cutoff
   NELM   =    200;   NELMIN=  2; NELMDL= -5     # of ELM steps 
   EDIFF  = 0.1E-04   stopping-criterion for ELM
   LREAL  =      F    real-space projection
   NLSPLINE    = F    spline interpolate recip. space projectors
   LCOMPAT=      F    compatible to vasp.4.4
   GGA_COMPAT  = T    GGA compatible to vasp.4.4-vasp.4.6
   LMAXPAW     = -100 max onsite density
   LMAXMIX     =    4 max onsite mixed and CHGCAR
   VOSKOWN=      0    Vosko Wilk Nusair interpolation
   ROPT   =    0.00000   0.00000
 Ionic relaxation
   EDIFFG = 0.1E-03   stopping-criterion for IOM
   NSW    =      0    number of steps for IOM
   NBLOCK =      1;   KBLOCK =      1    inner block; outer block 
   IBRION =     -1    ionic relax: 0-MD 1-quasi-New 2-CG
   NFREE  =      0    steps in history (QN), initial steepest desc. (CG)
   ISIF   =      0    stress and relaxation
   IWAVPR =     10    prediction:  0-non 1-charg 2-wave 3-comb
   ISYM   =      3    0-nonsym 1-usesym 2-fastsym
   LCORR  =      T    Harris-Foulkes like correction to forces

   POTIM  = 0.5000    time-step for ionic-motion
   TEIN   =    0.0    initial temperature
   TEBEG  =    0.0;   TEEND  =   0.0 temperature during run
   SMASS  =  -3.00    Nose mass-parameter (am)
   estimated Nose-frequenzy (Omega)   =  0.10E-29 period in steps = 0.13E+47 mass=  -0.492E-27a.u.
   SCALEE = 1.0000    scale energy and forces
   NPACO  =    256;   APACO  = 10.0  distance and # of slots for P.C.
   PSTRESS=    0.0 pullay stress

  Mass of Ions in am
   POMASS = 112.41127.60
  Ionic Valenz
   ZVAL   =  12.00  6.00
  Atomic Wigner-Seitz radii
   RWIGS  =  -1.00 -1.00
  virtual crystal weights 
   VCA    =   1.00  1.00
   NELECT =      18.0000    total number of electrons
   NUPDOWN=      -1.0000    fix difference up-down

 DOS related values:
   EMIN   =  10.00;   EMAX   =-10.00  energy-range for DOS
   EFERMI =   0.00;   METHOD = LEGACY      
   ISMEAR =    -5;   SIGMA  =   0.20  broadening in eV -4-tet -1-fermi 0-gaus

 Electronic relaxation 2 (details)
   IALGO  =     38    algorithm
   LDIAG  =      T    sub-space diagonalisation (order eigenvalues)
   LSUBROT=      F    optimize rotation matrix (better conditioning)
   TURBO    =      0    0=normal 1=particle mesh
   IRESTART =      0    0=no restart 2=restart with 2 vectors
   NREBOOT  =      0    no. of reboots
   NMIN     =      0    reboot dimension
   EREF     =   0.00    reference energy to select bands
   IMIX   =      1    mixing-type and parameters
     AMIX     =   0.40;   BMIX     =  1.00
     AMIX_MAG =   1.60;   BMIX_MAG =  1.00
     AMIN     =   0.10
     WC   =   100.;   INIMIX=   1;  MIXPRE=   1;  MAXMIX= -45

 Intra band minimization:
   WEIMIN = 0.0000     energy-eigenvalue tresh-hold
   EBREAK =  0.10E-06  absolut break condition
   DEPER  =   0.30     relativ break condition  

   TIME   =   0.40     timestep for ELM

  volume/ion in A,a.u.               =      35.36       238.59
  Fermi-wavevector in a.u.,A,eV,Ry     =   1.037533  1.960654 14.646338  1.076475
  Thomas-Fermi vector in A             =   2.171976
 
 Write flags
   LWAVE        =      T    write WAVECAR
   LDOWNSAMPLE  =      F    k-point downsampling of WAVECAR
   LCHARG       =      T    write CHGCAR
   LVTOT        =      T    write LOCPOT, total local potential
   LVHAR        =      F    write LOCPOT, Hartree potential only
   LELF         =      F    write electronic localiz. function (ELF)
   LORBIT       =     11    0 simple, 1 ext, 2 COOP (PROOUT), +10 PAW based schemes


 Dipole corrections
   LMONO  =      F    monopole corrections only (constant potential shift)
   LDIPOL =      F    correct potential (dipole corrections)
   IDIPOL =      0    1-x, 2-y, 3-z, 4-all directions 
   EPSILON=  1.0000000 bulk dielectric constant

 Exchange correlation treatment:
   GGA     =    PE    GGA type
   LEXCH   =     8    internal setting for exchange type
   LIBXC   =     F    Libxc                    
   VOSKOWN =     0    Vosko Wilk Nusair interpolation
   EXXOEP  =     0    0=HF, 1=EXX-LHF (local Hartree Fock) 2=EXX OEP
   LHFCALC =     T    Hartree Fock is set to
   LSYMGRAD=     F    symmetrize gradient (conserves proper symmetry)
   PRECFOCK=fast      Normal, Fast or Accurate (Low or Medium for compatibility)
   LRHFCALC=     F    long range Hartree Fock
   LRSCOR  =     F    long range correlation only (use DFT for short range part)
   LTHOMAS =     F    Thomas Fermi screening in HF
   LMODELHF=     F    short range full HF, long range fraction AEXX
   FOCKCORR=     1    mode to apply convergence corrections
   LFOCKACE=     T    use Adeptively-Compressed-Exchange operator
   ENCUT4O =  -1.0   cutoff for four orbital integrals eV
   LMAXFOCK=     4    L truncation for augmentation on plane wave grid
   LMAXFOCKAE=  -1    L truncation for all-electron charge restoration on plane wave grid
   NMAXFOCKAE=   1    number of basis functions for all-electron charge restoration
   LFOCKAEDFT=     F  apply the AE augmentation even for DFT
   NKREDX  =     1    reduce k-point grid by
   NKREDY  =     1    reduce k-point grid by
   NKREDZ  =     1    reduce k-point grid by
   SHIFTRED=     F    shift reduced grid of Gamma
   HFKIDENT=     F    idential grid for each k-point
   ODDONLY =     F    use only odd q-grid points
   EVENONLY=     F    use only even q-grid points
   HFALPHA =   -1.0000 decay constant for conv. correction
   MCALPHA =    0.0000 extent of test-charge in conv. correction in multipole expansion
   AEXX    =    0.2500 exact exchange contribution
   HFSCREEN=    0.2000 screening length (either q_TF or 0.3 A-1)
   HFSCREENC=   0.2000 screening length for correlation (either q_TF or 0.3 A-1)
   HFRCUT  =    0.0000 spherical cutoff for potential kernel
   ALDAX   =    0.7500 LDA exchange part
   AGGAX   =    0.7500 GGA exchange part
   ALDAC   =    1.0000 LDA correlation
   AGGAC   =    1.0000 GGA correlation
   ENCUTFOCK=  -1.0 apply spherical cutoff to Coloumb kernel
   NBANDSGWLOW=     1    first orbital included in HF term
   NBLOCK_FOCK=    64    blocking factor in FOCK_ACC

 Linear response parameters
   LEPSILON=     F    determine dielectric tensor
   LRPA    =     F    only Hartree local field effects (RPA)
   LNABLA  =     F    use nabla operator in PAW spheres
   LVEL    =     F    velocity operator in full k-point grid
   CSHIFT  =0.1000    complex shift for real part using Kramers Kronig
   OMEGAMAX=  -1.0    maximum frequency
   DEG_THRESHOLD= 0.2000000E-02 threshold for treating states as degnerate
   RTIME   =   -0.100 relaxation time in fs
  (WPLASMAI=    0.000 imaginary part of plasma frequency in eV, 0.658/RTIME)
   DFIELD  = 0.0000000 0.0000000 0.0000000 field for delta impulse in time
 
  Optional k-point grid parameters
   LKPOINTS_OPT  =     F    use optional k-point grid
   KPOINTS_OPT_MODE=     1    mode for optional k-point grid
 
 Orbital magnetization related:
   ORBITALMAG=     F  switch on orbital magnetization
   LCHIMAG   =     F  perturbation theory with respect to B field
   DQ        =  0.001000  dq finite difference perturbation B field
   LLRAUG    =     F  two centre corrections for induced B field
   LBONE     =     F  B-component reconstruction in AE one-centre
   LVGVCALC  =     T  calculate vGv susceptibility
   LVGVAPPL  =     F  apply vGv susceptibility instead of pGv for G=0

 Random number generation:
   RANDOM_GENERATOR = DEFAULT
   PCG_SEED         = not used


--------------------------------------------------------------------------------------------------------


 Static calculation
 charge density and potential will be updated during run
 spin polarized calculation
 Variant of blocked Davidson
 Davidson routine will perform the subspace rotation
 perform sub-space diagonalisation
    after iterative eigenvector-optimisation
 Kerker-like  mixing scheme
 using additional bands           15
 reciprocal scheme for non local part
 use partial core corrections
 calculate Harris-corrections to forces 
   (improved forces if not selfconsistent)
 use gradient corrections 
 use of overlap-Matrix (Vanderbilt PP)
 Fermi weights with tetrahedron method with Bloechl corrections


--------------------------------------------------------------------------------------------------------


  energy-cutoff  :      680.00
  volume of cell :       70.71
      direct lattice vectors                 reciprocal lattice vectors
     4.019750926  0.000000000  2.320804042     0.248771632 -0.087954008  0.000000000
     1.339916630  3.789858536  2.320804038     0.000000000  0.263862092  0.000000000
     0.000000000  0.000000000  4.641610150    -0.124385761 -0.087954002  0.215442480

  length of vectors
     4.641608440  4.641609170  4.641610150     0.263862147  0.263862092  0.263862059


 
 k-points in units of 2pi/SCALE and weight: pymatgen with grid density = 449 / numbe
   0.00000000  0.00000000  0.00000000       0.005
   0.04146194 -0.01465900  0.00000000       0.037
   0.08292388 -0.02931800  0.00000000       0.037
   0.12438582 -0.04397700  0.00000000       0.019
   0.04146194  0.02931801  0.00000000       0.028
   0.08292388  0.01465901  0.00000000       0.111
   0.12438582  0.00000001  0.00000000       0.111
  -0.08292388  0.07329502  0.00000000       0.111
  -0.04146194  0.05863602  0.00000000       0.056
   0.08292388  0.05863603  0.00000000       0.028
   0.12438582  0.04397703  0.00000000       0.111
  -0.08292388  0.11727203  0.00000000       0.056
   0.12438582  0.08795404  0.00000000       0.014
   0.10365486  0.02931803  0.03590708       0.111
  -0.10365484  0.10261303  0.03590708       0.111
  -0.10365484  0.14659005  0.03590708       0.056
 
 k-points in reciprocal lattice and weights: pymatgen with grid density = 449 / numbe
   0.00000000  0.00000000  0.00000000       0.005
   0.16666667  0.00000000  0.00000000       0.037
   0.33333333  0.00000000  0.00000000       0.037
   0.50000000  0.00000000  0.00000000       0.019
   0.16666667  0.16666667  0.00000000       0.028
   0.33333333  0.16666667  0.00000000       0.111
   0.50000000  0.16666667  0.00000000       0.111
  -0.33333333  0.16666667  0.00000000       0.111
  -0.16666667  0.16666667  0.00000000       0.056
   0.33333333  0.33333333  0.00000000       0.028
   0.50000000  0.33333333  0.00000000       0.111
  -0.33333333  0.33333333  0.00000000       0.056
   0.50000000  0.50000000  0.00000000       0.014
   0.50000000  0.33333333  0.16666667       0.111
  -0.33333333  0.33333333  0.16666667       0.111
  -0.33333333  0.50000000  0.16666667       0.056
 
 position of ions in fractional coordinates (direct lattice) 
   0.00000000  0.00000000  0.00000000
   0.25000000  0.25000000  0.25000000
 
 position of ions in cartesian coordinates  (Angst):
   0.00000000  0.00000000  0.00000000
   1.33991689  0.94746463  2.32080456
 


--------------------------------------------------------------------------------------------------------


 k-point   1 :   0.0000 0.0000 0.0000  plane waves:    2741
 k-point   2 :   0.1667 0.0000 0.0000  plane waves:    2824
 k-point   3 :   0.3333 0.0000 0.0000  plane waves:    2836
 k-point   4 :   0.5000 0.0000 0.0000  plane waves:    2884
 k-point   5 :   0.1667 0.1667 0.0000  plane waves:    2842
 k-point   6 :   0.3333 0.1667 0.0000  plane waves:    2844
 k-point   7 :   0.5000 0.1667 0.0000  plane waves:    2859
 k-point   8 :  -0.3333 0.1667 0.0000  plane waves:    2850
 k-point   9 :  -0.1667 0.1667 0.0000  plane waves:    2838
 k-point  10 :   0.3333 0.3333 0.0000  plane waves:    2854
 k-point  11 :   0.5000 0.3333 0.0000  plane waves:    2856
 k-point  12 :  -0.3333 0.3333 0.0000  plane waves:    2858
 k-point  13 :   0.5000 0.5000 0.0000  plane waves:    2874
 k-point  14 :   0.5000 0.3333 0.1667  plane waves:    2834
 k-point  15 :  -0.3333 0.3333 0.1667  plane waves:    2846
 k-point  16 :  -0.3333 0.5000 0.1667  plane waves:    2860

 maximum and minimum number of plane-waves per node :       298      266

 maximum number of plane-waves:      2884
 maximum index in each direction: 
   IXMAX=   10   IYMAX=    9   IZMAX=    9
   IXMIN=  -10   IYMIN=  -10   IZMIN=  -10


 parallel 3D FFT for wavefunctions:
    minimum data exchange during FFTs selected (reduces bandwidth)
 parallel 3D FFT for charge:
    minimum data exchange during FFTs selected (reduces bandwidth)


 FFT grid for exact exchange (Hartree Fock) 
  NGX = 24; NGY = 24; NGZ = 24

 
 Radii for the augmentation spheres in the non-local exchange
 for species   1 augmentation radius   1.444 (default was   1.070)
       energy cutoff for augmentation   2720.0
 for species   2 augmentation radius   1.606 (default was   1.190)
       energy cutoff for augmentation   2720.0

 real space projection operators:
  total allocation   :       1144.14 KBytes
  max/ min on nodes  :        169.14         72.46

 Maximum index for augmentation-charges in exchange          382
  SETUP_FOCK is finished

 total amount of memory used by VASP MPI-rank0    33820. kBytes
=======================================================================

   base      :      30000. kBytes
   nonl-proj :       1503. kBytes
   fftplans  :        530. kBytes
   grid      :       1039. kBytes
   one-center:         31. kBytes
   HF        :         64. kBytes
   nonlr-proj:        297. kBytes
   wavefun   :        356. kBytes
 
     INWAV:  cpu time      0.0001: real time      0.0007
 initial charge density was supplied:
 charge density of overlapping atoms calculated
 number of electron      18.0000000 magnetization       1.2000000
 keeping initial charge density in first step


--------------------------------------------------------------------------------------------------------


 Maximum index for augmentation-charges         1237 (set IRDMAX)


--------------------------------------------------------------------------------------------------------


 First call to EWALD:  gamma=   0.429
 Maximum number of real-space cells 3x 3x 3
 Maximum number of reciprocal cells 3x 3x 3

    FEWALD:  cpu time      0.0027: real time      0.0029


--------------------------------------- Ionic step        1  -------------------------------------------




--------------------------------------- Iteration      1(   1)  ---------------------------------------


    POTLOK:  cpu time      0.0282: real time      0.0298
    SETDIJ:  cpu time      0.4117: real time      0.4131
     EDDAV:  cpu time      0.3465: real time      0.3534
 BZINTS: Fermi energy:    7.433920;   18.000000 electrons
         Band energy: 0.492152E+01;  BLOECHL correction:   -0.119447
       DOS:  cpu time      0.0061: real time      0.0066
    --------------------------------------------
      LOOP:  cpu time      0.7926: real time      0.8030

 eigenvalue-minimisations  :  1536
 total energy-change (2. order) :-0.2021804E+04  (-0.9361298E+03)
 number of electron      18.0000000 magnetization       1.2000000
 augmentation part       18.0000000 magnetization       1.2000000

 Free energy of the ion-electron system (eV)
  ---------------------------------------------------
  alpha Z        PSCENC =        48.32593859
  Ewald energy   TEWEN  =     -1031.85467228
  -Hartree energ DENC   =      -517.30053658
  -exchange      EXHF   =         0.00000000
  -V(xc)+E(xc)   XCENC  =       -22.70731779
  PAW double counting   =      1404.37530049    -3421.85055311
  entropy T*S    EENTRO =         0.00000000
  eigenvalues    EBANDS =         4.92151527
  atomic energy  EATOM  =      1514.28648168
  Solvation  Ediel_sol  =         0.00000000
  ---------------------------------------------------
  free energy    TOTEN  =     -2021.80384373 eV

  energy without entropy =    -2021.80384373  energy(sigma->0) =    -2021.80384373
  exchange ACFDT corr.  =         0.00000000  see jH, gK, PRB 81, 115126


--------------------------------------------------------------------------------------------------------




--------------------------------------- Iteration      1(   2)  ---------------------------------------


     EDDAV:  cpu time      0.3017: real time      0.3074
 BZINTS: Fermi energy:    1.221987;   18.000000 electrons
         Band energy:-0.109370E+03;  BLOECHL correction:    0.000000
       DOS:  cpu time      0.0012: real time      0.0012
    --------------------------------------------
      LOOP:  cpu time      0.3030: real time      0.3087

 eigenvalue-minimisations  :  1944
 total energy-change (2. order) :-0.1142911E+03  (-0.1093723E+03)
 number of electron      18.0000000 magnetization       1.2000000
 augmentation part       18.0000000 magnetization       1.2000000

 Free energy of the ion-electron system (eV)
  ---------------------------------------------------
  alpha Z        PSCENC =        48.32593859
  Ewald energy   TEWEN  =     -1031.85467228
  -Hartree energ DENC   =      -517.30053658
  -exchange      EXHF   =         0.00000000
  -V(xc)+E(xc)   XCENC  =       -22.70731779
  PAW double counting   =      1404.37530049    -3421.85055311
  entropy T*S    EENTRO =         0.00000000
  eigenvalues    EBANDS =      -109.36962124
  atomic energy  EATOM  =      1514.28648168
  Solvation  Ediel_sol  =         0.00000000
  ---------------------------------------------------
  free energy    TOTEN  =     -2136.09498024 eV

  energy without entropy =    -2136.09498024  energy(sigma->0) =    -2136.09498024
  exchange ACFDT corr.  =         0.00000000  see jH, gK, PRB 81, 115126


--------------------------------------------------------------------------------------------------------




--------------------------------------- Iteration      1(   3)  ---------------------------------------


     EDDAV:  cpu time      0.2700: real time      0.2842
 BZINTS: Fermi energy:    0.862117;   18.000000 electrons
         Band energy:-0.113532E+03;  BLOECHL correction:    0.000000
       DOS:  cpu time      0.0012: real time      0.0012
    --------------------------------------------
      LOOP:  cpu time      0.2712: real time      0.2854

 eigenvalue-minimisations  :  1932
 total energy-change (2. order) :-0.4162436E+01  (-0.4156628E+01)
 number of electron      18.0000000 magnetization       1.2000000
 augmentation part       18.0000000 magnetization       1.2000000

 Free energy of the ion-electron system (eV)
  ---------------------------------------------------
  alpha Z        PSCENC =        48.32593859
  Ewald energy   TEWEN  =     -1031.85467228
  -Hartree energ DENC   =      -517.30053658
  -exchange      EXHF   =         0.00000000
  -V(xc)+E(xc)   XCENC  =       -22.70731779
  PAW double counting   =      1404.37530049    -3421.85055311
  entropy T*S    EENTRO =         0.00000000
  eigenvalues    EBANDS =      -113.53205735
  atomic energy  EATOM  =      1514.28648168
  Solvation  Ediel_sol  =         0.00000000
  ---------------------------------------------------
  free energy    TOTEN  =     -2140.25741635 eV

  energy without entropy =    -2140.25741635  energy(sigma->0) =    -2140.25741635
  exchange ACFDT corr.  =         0.00000000  see jH, gK, PRB 81, 115126


--------------------------------------------------------------------------------------------------------




--------------------------------------- Iteration      1(   4)  ---------------------------------------


     EDDAV:  cpu time      0.3203: real time      0.3361
 BZINTS: Fermi energy:    0.835897;   18.000000 electrons
         Band energy:-0.113594E+03;  BLOECHL correction:    0.000000
       DOS:  cpu time      0.0012: real time      0.0012
    --------------------------------------------
      LOOP:  cpu time      0.3214: real time      0.3373

 eigenvalue-minimisations  :  2376
 total energy-change (2. order) :-0.6148932E-01  (-0.6148449E-01)
 number of electron      18.0000000 magnetization       1.2000000
 augmentation part       18.0000000 magnetization       1.2000000

 Free energy of the ion-electron system (eV)
  ---------------------------------------------------
  alpha Z        PSCENC =        48.32593859
  Ewald energy   TEWEN  =     -1031.85467228
  -Hartree energ DENC   =      -517.30053658
  -exchange      EXHF   =         0.00000000
  -V(xc)+E(xc)   XCENC  =       -22.70731779
  PAW double counting   =      1404.37530049    -3421.85055311
  entropy T*S    EENTRO =         0.00000000
  eigenvalues    EBANDS =      -113.59354667
  atomic energy  EATOM  =      1514.28648168
  Solvation  Ediel_sol  =         0.00000000
  ---------------------------------------------------
  free energy    TOTEN  =     -2140.31890567 eV

  energy without entropy =    -2140.31890567  energy(sigma->0) =    -2140.31890567
  exchange ACFDT corr.  =         0.00000000  see jH, gK, PRB 81, 115126


--------------------------------------------------------------------------------------------------------




--------------------------------------- Iteration      1(   5)  ---------------------------------------


    POTLOK:  cpu time      0.0260: real time      0.0413
    SETDIJ:  cpu time      0.9168: real time      0.9192
     EDDAV:  cpu time     17.6050: real time     17.7220
 BZINTS: Fermi energy:    1.173262;   18.000000 electrons
         Band energy:-0.981812E+02;  BLOECHL correction:    0.000000
       DOS:  cpu time      0.0012: real time      0.0014
    CHARGE:  cpu time      0.0561: real time      0.0564
    MIXING:  cpu time      0.0011: real time      0.0011
    --------------------------------------------
      LOOP:  cpu time     18.6063: real time     18.7414

 eigenvalue-minimisations  :  1704
 total energy-change (2. order) : 0.2134226E+04  (-0.1008896E+01)
 number of electron      18.0000000 magnetization      -0.7200000
 augmentation part        4.5774312 magnetization      -0.7096229

 Free energy of the ion-electron system (eV)
  ---------------------------------------------------
  alpha Z        PSCENC =        48.32593859
  Ewald energy   TEWEN  =     -1031.85467228
  -Hartree energ DENC   =      -517.30053658
  -exchange      EXHF   =        36.03858761
  -V(xc)+E(xc)   XCENC  =       -19.75127032
  PAW double counting   =      1400.95505382    -1338.61098994
  entropy T*S    EENTRO =         0.00000000
  eigenvalues    EBANDS =       -98.18119576
  atomic energy  EATOM  =      1514.28648168
  Solvation  Ediel_sol  =         0.00000000
  ---------------------------------------------------
  free energy    TOTEN  =        -6.09260318 eV

  energy without entropy =       -6.09260318  energy(sigma->0) =       -6.09260318
  exchange ACFDT corr.  =         0.00000000  see jH, gK, PRB 81, 115126


--------------------------------------------------------------------------------------------------------




--------------------------------------- Iteration      1(   6)  ---------------------------------------


    POTLOK:  cpu time      0.0249: real time      0.0362
    SETDIJ:  cpu time      0.9101: real time      0.9124
     EDDAV:  cpu time     18.4547: real time     18.5011
 BZINTS: Fermi energy:    1.385870;   18.000000 electrons
         Band energy:-0.997684E+02;  BLOECHL correction:    0.000000
       DOS:  cpu time      0.0012: real time      0.0014
    CHARGE:  cpu time      0.0619: real time      0.0621
    MIXING:  cpu time      0.0003: real time      0.0003
    --------------------------------------------
      LOOP:  cpu time     19.4531: real time     19.5134

 eigenvalue-minimisations  :  2160
 total energy-change (2. order) : 0.6084777E-01  (-0.6563592E-01)
 number of electron      18.0000000 magnetization       0.4320000
 augmentation part        4.6133632 magnetization       0.4261751

 Free energy of the ion-electron system (eV)
  ---------------------------------------------------
  alpha Z        PSCENC =        48.32593859
  Ewald energy   TEWEN  =     -1031.85467228
  -Hartree energ DENC   =      -515.39547500
  -exchange      EXHF   =        35.01338037
  -V(xc)+E(xc)   XCENC  =       -19.70245319
  PAW double counting   =      1871.98382403    -1808.92035100
  entropy T*S    EENTRO =         0.00000000
  eigenvalues    EBANDS =       -99.76842861
  atomic energy  EATOM  =      1514.28648168
  Solvation  Ediel_sol  =         0.00000000
  ---------------------------------------------------
  free energy    TOTEN  =        -6.03175542 eV

  energy without entropy =       -6.03175542  energy(sigma->0) =       -6.03175542
  exchange ACFDT corr.  =         0.00000000  see jH, gK, PRB 81, 115126


--------------------------------------------------------------------------------------------------------




--------------------------------------- Iteration      1(   7)  ---------------------------------------


    POTLOK:  cpu time      0.0267: real time      0.0399
    SETDIJ:  cpu time      0.9085: real time      0.9108
     EDDAV:  cpu time     17.6764: real time     17.7208
 BZINTS: Fermi energy:    1.513035;   18.000000 electrons
         Band energy:-0.101393E+03;  BLOECHL correction:    0.000000
       DOS:  cpu time      0.0013: real time      0.0013
    CHARGE:  cpu time      0.0513: real time      0.0514
    MIXING:  cpu time      0.0001: real time      0.0001
    --------------------------------------------
      LOOP:  cpu time     18.6643: real time     18.7244

 eigenvalue-minimisations  :  2040
 total energy-change (2. order) :-0.1366544E-01  (-0.2235100E-01)
 number of electron      17.9999999 magnetization      -0.2592000
 augmentation part        4.6526683 magnetization      -0.2571154

 Free energy of the ion-electron system (eV)
  ---------------------------------------------------
  alpha Z        PSCENC =        48.32593859
  Ewald energy   TEWEN  =     -1031.85467228
  -Hartree energ DENC   =      -513.87598901
  -exchange      EXHF   =        34.78772365
  -V(xc)+E(xc)   XCENC  =       -19.71227929
  PAW double counting   =      2313.03760417    -2249.64722691
  entropy T*S    EENTRO =         0.00000000
  eigenvalues    EBANDS =      -101.39300146
  atomic energy  EATOM  =      1514.28648168
  Solvation  Ediel_sol  =         0.00000000
  ---------------------------------------------------
  free energy    TOTEN  =        -6.04542085 eV

  energy without entropy =       -6.04542085  energy(sigma->0) =       -6.04542085
  exchange ACFDT corr.  =         0.00000000  see jH, gK, PRB 81, 115126


--------------------------------------------------------------------------------------------------------




--------------------------------------- Iteration      1(   8)  ---------------------------------------


    POTLOK:  cpu time      0.0225: real time      0.0360
    SETDIJ:  cpu time      0.9077: real time      0.9100
     EDDAV:  cpu time     18.1493: real time     18.1951
 BZINTS: Fermi energy:    1.609945;   18.000000 electrons
         Band energy:-0.101807E+03;  BLOECHL correction:    0.000000
       DOS:  cpu time      0.0015: real time      0.0016
    CHARGE:  cpu time      0.0510: real time      0.0512
    MIXING:  cpu time      0.0001: real time      0.0001
    --------------------------------------------
      LOOP:  cpu time     19.1321: real time     19.1940

 eigenvalue-minimisations  :  1956
 total energy-change (2. order) :-0.6781790E-02  (-0.2951039E-02)
 number of electron      17.9999999 magnetization       0.1555200
 augmentation part        4.6572748 magnetization       0.1546664

 Free energy of the ion-electron system (eV)
  ---------------------------------------------------
  alpha Z        PSCENC =        48.32593859
  Ewald energy   TEWEN  =     -1031.85467228
  -Hartree energ DENC   =      -513.52986771
  -exchange      EXHF   =        34.73974733
  -V(xc)+E(xc)   XCENC  =       -19.70095809
  PAW double counting   =      2649.19115843    -2585.70265071
  entropy T*S    EENTRO =         0.00000000
  eigenvalues    EBANDS =      -101.80737989
  atomic energy  EATOM  =      1514.28648168
  Solvation  Ediel_sol  =         0.00000000
  ---------------------------------------------------
  free energy    TOTEN  =        -6.05220264 eV

  energy without entropy =       -6.05220264  energy(sigma->0) =       -6.05220264
  exchange ACFDT corr.  =         0.00000000  see jH, gK, PRB 81, 115126


--------------------------------------------------------------------------------------------------------




--------------------------------------- Iteration      1(   9)  ---------------------------------------


    POTLOK:  cpu time      0.0357: real time      0.0365
    SETDIJ:  cpu time      0.9017: real time      0.9040
     EDDAV:  cpu time     17.9136: real time     17.9587
 BZINTS: Fermi energy:    1.575947;   18.000000 electrons
         Band energy:-0.101889E+03;  BLOECHL correction:    0.000000
       DOS:  cpu time      0.0012: real time      0.0012
    CHARGE:  cpu time      0.0508: real time      0.0509
    MIXING:  cpu time      0.0001: real time      0.0001
    --------------------------------------------
      LOOP:  cpu time     18.9031: real time     18.9515

 eigenvalue-minimisations  :  1920
 total energy-change (2. order) :-0.2828472E-02  (-0.4850085E-03)
 number of electron      17.9999999 magnetization      -0.0933120
 augmentation part        4.6567329 magnetization      -0.0928738

 Free energy of the ion-electron system (eV)
  ---------------------------------------------------
  alpha Z        PSCENC =        48.32593859
  Ewald energy   TEWEN  =     -1031.85467228
  -Hartree energ DENC   =      -513.49308534
  -exchange      EXHF   =        34.73263109
  -V(xc)+E(xc)   XCENC  =       -19.68759530
  PAW double counting   =      2883.72211888    -2820.19802478
  entropy T*S    EENTRO =         0.00000000
  eigenvalues    EBANDS =      -101.88882366
  atomic energy  EATOM  =      1514.28648168
  Solvation  Ediel_sol  =         0.00000000
  ---------------------------------------------------
  free energy    TOTEN  =        -6.05503111 eV

  energy without entropy =       -6.05503111  energy(sigma->0) =       -6.05503111
  exchange ACFDT corr.  =         0.00000000  see jH, gK, PRB 81, 115126


--------------------------------------------------------------------------------------------------------




--------------------------------------- Iteration      1(  10)  ---------------------------------------


    POTLOK:  cpu time      0.0219: real time      0.0366
    SETDIJ:  cpu time      0.9068: real time      0.9089
     EDDAV:  cpu time     18.0195: real time     18.0653
 BZINTS: Fermi energy:    1.550997;   18.000000 electrons
         Band energy:-0.101928E+03;  BLOECHL correction:    0.000000
       DOS:  cpu time      0.0012: real time      0.0012
    CHARGE:  cpu time      0.0506: real time      0.0508
    MIXING:  cpu time      0.0001: real time      0.0001
    --------------------------------------------
      LOOP:  cpu time     19.0002: real time     19.0630

 eigenvalue-minimisations  :  1884
 total energy-change (2. order) :-0.1049117E-02  (-0.1410010E-03)
 number of electron      17.9999999 magnetization       0.0559872
 augmentation part        4.6550187 magnetization       0.0557753

 Free energy of the ion-electron system (eV)
  ---------------------------------------------------
  alpha Z        PSCENC =        48.32593859
  Ewald energy   TEWEN  =     -1031.85467228
  -Hartree energ DENC   =      -513.48615336
  -exchange      EXHF   =        34.73312769
  -V(xc)+E(xc)   XCENC  =       -19.67670083
  PAW double counting   =      3035.74567587    -2972.20193952
  entropy T*S    EENTRO =         0.00000000
  eigenvalues    EBANDS =      -101.92783806
  atomic energy  EATOM  =      1514.28648168
  Solvation  Ediel_sol  =         0.00000000
  ---------------------------------------------------
  free energy    TOTEN  =        -6.05608023 eV

  energy without entropy =       -6.05608023  energy(sigma->0) =       -6.05608023
  exchange ACFDT corr.  =         0.00000000  see jH, gK, PRB 81, 115126


--------------------------------------------------------------------------------------------------------




--------------------------------------- Iteration      1(  11)  ---------------------------------------


    POTLOK:  cpu time      0.0247: real time      0.0382
    SETDIJ:  cpu time      0.9003: real time      0.9026
     EDDAV:  cpu time     18.0834: real time     18.1289
 BZINTS: Fermi energy:    1.550635;   18.000000 electrons
         Band energy:-0.101952E+03;  BLOECHL correction:    0.000000
       DOS:  cpu time      0.0012: real time      0.0013
    CHARGE:  cpu time      0.0512: real time      0.0513
    MIXING:  cpu time      0.0001: real time      0.0001
    --------------------------------------------
      LOOP:  cpu time     19.0609: real time     19.1224

 eigenvalue-minimisations  :  1968
 total energy-change (2. order) :-0.4333199E-03  (-0.5219994E-04)
 number of electron      17.9999999 magnetization      -0.0335923
 augmentation part        4.6538879 magnetization      -0.0334460

 Free energy of the ion-electron system (eV)
  ---------------------------------------------------
  alpha Z        PSCENC =        48.32593859
  Ewald energy   TEWEN  =     -1031.85467228
  -Hartree energ DENC   =      -513.48525768
  -exchange      EXHF   =        34.73575755
  -V(xc)+E(xc)   XCENC  =       -19.66919541
  PAW double counting   =      3129.43331140    -3065.87660301
  entropy T*S    EENTRO =         0.00000000
  eigenvalues    EBANDS =      -101.95227438
  atomic energy  EATOM  =      1514.28648168
  Solvation  Ediel_sol  =         0.00000000
  ---------------------------------------------------
  free energy    TOTEN  =        -6.05651355 eV

  energy without entropy =       -6.05651355  energy(sigma->0) =       -6.05651355
  exchange ACFDT corr.  =         0.00000000  see jH, gK, PRB 81, 115126


--------------------------------------------------------------------------------------------------------




--------------------------------------- Iteration      1(  12)  ---------------------------------------


    POTLOK:  cpu time      0.0212: real time      0.0365
    SETDIJ:  cpu time      0.9031: real time      0.9054
     EDDAV:  cpu time     18.0575: real time     18.1030
 BZINTS: Fermi energy:    1.551889;   18.000000 electrons
         Band energy:-0.101961E+03;  BLOECHL correction:    0.000000
       DOS:  cpu time      0.0012: real time      0.0012
    CHARGE:  cpu time      0.0508: real time      0.0510
    MIXING:  cpu time      0.0001: real time      0.0001
    --------------------------------------------
      LOOP:  cpu time     19.0340: real time     19.0971

 eigenvalue-minimisations  :  2040
 total energy-change (2. order) :-0.1827079E-03  (-0.1829979E-04)
 number of electron      17.9999999 magnetization       0.0201554
 augmentation part        4.6533165 magnetization       0.0200741

 Free energy of the ion-electron system (eV)
  ---------------------------------------------------
  alpha Z        PSCENC =        48.32593859
  Ewald energy   TEWEN  =     -1031.85467228
  -Hartree energ DENC   =      -513.49171308
  -exchange      EXHF   =        34.73759477
  -V(xc)+E(xc)   XCENC  =       -19.66425338
  PAW double counting   =      3185.19601768    -3121.63106085
  entropy T*S    EENTRO =         0.00000000
  eigenvalues    EBANDS =      -101.96102939
  atomic energy  EATOM  =      1514.28648168
  Solvation  Ediel_sol  =         0.00000000
  ---------------------------------------------------
  free energy    TOTEN  =        -6.05669626 eV

  energy without entropy =       -6.05669626  energy(sigma->0) =       -6.05669626
  exchange ACFDT corr.  =         0.00000000  see jH, gK, PRB 81, 115126


--------------------------------------------------------------------------------------------------------




--------------------------------------- Iteration      1(  13)  ---------------------------------------


    POTLOK:  cpu time      0.0217: real time      0.0362
    SETDIJ:  cpu time      0.9073: real time      0.9096
     EDDAV:  cpu time     17.8753: real time     17.9204
 BZINTS: Fermi energy:    1.553399;   18.000000 electrons
         Band energy:-0.101960E+03;  BLOECHL correction:    0.000000
       DOS:  cpu time      0.0012: real time      0.0012
    CHARGE:  cpu time      0.0584: real time      0.0585
    MIXING:  cpu time      0.0002: real time      0.0002
    --------------------------------------------
      LOOP:  cpu time     18.8642: real time     18.9261

 eigenvalue-minimisations  :  2040
 total energy-change (2. order) :-0.8003847E-04  (-0.6587924E-05)
 number of electron      17.9999999 magnetization      -0.0120932
 augmentation part        4.6530316 magnetization      -0.0120467

 Free energy of the ion-electron system (eV)
  ---------------------------------------------------
  alpha Z        PSCENC =        48.32593859
  Ewald energy   TEWEN  =     -1031.85467228
  -Hartree energ DENC   =      -513.50202800
  -exchange      EXHF   =        34.73832749
  -V(xc)+E(xc)   XCENC  =       -19.66105525
  PAW double counting   =      3217.82441012    -3154.25454432
  entropy T*S    EENTRO =         0.00000000
  eigenvalues    EBANDS =      -101.95963433
  atomic energy  EATOM  =      1514.28648168
  Solvation  Ediel_sol  =         0.00000000
  ---------------------------------------------------
  free energy    TOTEN  =        -6.05677630 eV

  energy without entropy =       -6.05677630  energy(sigma->0) =       -6.05677630
  exchange ACFDT corr.  =         0.00000000  see jH, gK, PRB 81, 115126


--------------------------------------------------------------------------------------------------------




--------------------------------------- Iteration      1(  14)  ---------------------------------------


    POTLOK:  cpu time      0.0225: real time      0.0373
    SETDIJ:  cpu time      0.9018: real time      0.9041
     EDDAV:  cpu time     18.0148: real time     18.0601
 BZINTS: Fermi energy:    1.554639;   18.000000 electrons
         Band energy:-0.101954E+03;  BLOECHL correction:    0.000000
       DOS:  cpu time      0.0012: real time      0.0013
    CHARGE:  cpu time      0.0511: real time      0.0513
    MIXING:  cpu time      0.0001: real time      0.0001
    --------------------------------------------
      LOOP:  cpu time     18.9916: real time     19.0541

 eigenvalue-minimisations  :  2016
 total energy-change (2. order) :-0.3748607E-04  (-0.2476189E-05)
 number of electron      17.9999999 magnetization       0.0072559
 augmentation part        4.6528791 magnetization       0.0072276

 Free energy of the ion-electron system (eV)
  ---------------------------------------------------
  alpha Z        PSCENC =        48.32593859
  Ewald energy   TEWEN  =     -1031.85467228
  -Hartree energ DENC   =      -513.51247779
  -exchange      EXHF   =        34.73846662
  -V(xc)+E(xc)   XCENC  =       -19.65900981
  PAW double counting   =      3236.82669600    -3173.25404114
  entropy T*S    EENTRO =         0.00000000
  eigenvalues    EBANDS =      -101.95419566
  atomic energy  EATOM  =      1514.28648168
  Solvation  Ediel_sol  =         0.00000000
  ---------------------------------------------------
  free energy    TOTEN  =        -6.05681378 eV

  energy without entropy =       -6.05681378  energy(sigma->0) =       -6.05681378
  exchange ACFDT corr.  =         0.00000000  see jH, gK, PRB 81, 115126


--------------------------------------------------------------------------------------------------------




--------------------------------------- Iteration      1(  15)  ---------------------------------------


    POTLOK:  cpu time      0.0233: real time      0.0386
    SETDIJ:  cpu time      0.9029: real time      0.9051
     EDDAV:  cpu time     17.8389: real time     17.8838
 BZINTS: Fermi energy:    1.555530;   18.000000 electrons
         Band energy:-0.101948E+03;  BLOECHL correction:    0.000000
       DOS:  cpu time      0.0012: real time      0.0012
    CHARGE:  cpu time      0.0511: real time      0.0512
    MIXING:  cpu time      0.0001: real time      0.0001
    --------------------------------------------
      LOOP:  cpu time     18.8175: real time     18.8801

 eigenvalue-minimisations  :  1992
 total energy-change (2. order) :-0.1815853E-04  (-0.9683604E-06)
 number of electron      17.9999999 magnetization      -0.0043536
 augmentation part        4.6527921 magnetization      -0.0043359

 Free energy of the ion-electron system (eV)
  ---------------------------------------------------
  alpha Z        PSCENC =        48.32593859
  Ewald energy   TEWEN  =     -1031.85467228
  -Hartree energ DENC   =      -513.52127733
  -exchange      EXHF   =        34.73841219
  -V(xc)+E(xc)   XCENC  =       -19.65771308
  PAW double counting   =      3247.90789590    -3184.33369312
  entropy T*S    EENTRO =         0.00000000
  eigenvalues    EBANDS =      -101.94820450
  atomic energy  EATOM  =      1514.28648168
  Solvation  Ediel_sol  =         0.00000000
  ---------------------------------------------------
  free energy    TOTEN  =        -6.05683194 eV

  energy without entropy =       -6.05683194  energy(sigma->0) =       -6.05683194
  exchange ACFDT corr.  =         0.00000000  see jH, gK, PRB 81, 115126


--------------------------------------------------------------------------------------------------------




--------------------------------------- Iteration      1(  16)  ---------------------------------------


    POTLOK:  cpu time      0.0216: real time      0.0365
    SETDIJ:  cpu time      0.9030: real time      0.9053
     EDDAV:  cpu time     18.1664: real time     18.2120
 BZINTS: Fermi energy:    1.556144;   18.000000 electrons
         Band energy:-0.101943E+03;  BLOECHL correction:    0.000000
       DOS:  cpu time      0.0012: real time      0.0012
    --------------------------------------------
      LOOP:  cpu time     19.0922: real time     19.1550

 eigenvalue-minimisations  :  1884
 total energy-change (2. order) :-0.9201302E-05  (-0.3917146E-06)
 number of electron      17.9999999 magnetization      -0.0043536
 augmentation part        4.6527921 magnetization      -0.0043359

 Free energy of the ion-electron system (eV)
  ---------------------------------------------------
  alpha Z        PSCENC =        48.32593859
  Ewald energy   TEWEN  =     -1031.85467228
  -Hartree energ DENC   =      -513.52811269
  -exchange      EXHF   =        34.73833924
  -V(xc)+E(xc)   XCENC  =       -19.65688829
  PAW double counting   =      3254.37680089    -3190.80174559
  entropy T*S    EENTRO =         0.00000000
  eigenvalues    EBANDS =      -101.94298269
  atomic energy  EATOM  =      1514.28648168
  Solvation  Ediel_sol  =         0.00000000
  ---------------------------------------------------
  free energy    TOTEN  =        -6.05684114 eV

  energy without entropy =       -6.05684114  energy(sigma->0) =       -6.05684114
  exchange ACFDT corr.  =         0.00000000  see jH, gK, PRB 81, 115126


--------------------------------------------------------------------------------------------------------




 average (electrostatic) potential at core
  the test charge radii are     1.0698  1.1897
  (the norm of the test charge is              1.0000)
       1 -32.9010       2 -87.7588
 
 
 
 E-fermi :   1.5561     XC(G=0):  -7.0246     alpha+bet : -7.1495

 Fermi energy:         1.5561441938

 spin component 1

 k-point     1 :       0.0000    0.0000    0.0000
  band No.  band energies     occupation 
      1     -10.4336      1.00000
      2      -7.9893      1.00000
      3      -7.9893      1.00000
      4      -7.9893      1.00000
      5      -7.7526      1.00000
      6      -7.7526      1.00000
      7       1.4925      1.00000
      8       1.4925      1.00000
      9       1.4925      1.00000
     10       2.9280      0.00000
     11       7.0023      0.00000
     12       7.0023      0.00000
     13       7.0023      0.00000
     14       9.9381      0.00000
     15      11.7761      0.00000
     16      11.7761      0.00000
     17      12.5814      0.00000
     18      12.5814      0.00000
     19      12.5814      0.00000
     20      14.7613      0.00000
     21      22.5751      0.00000
     22      22.5751      0.00000
     23      22.5755      0.00000
     24      23.3354      0.00000

 k-point     2 :       0.1667    0.0000    0.0000
  band No.  band energies     occupation 
      1     -10.3403      1.00000
      2      -7.9730      1.00000
      3      -7.9730      1.00000
      4      -7.8917      1.00000
      5      -7.7536      1.00000
      6      -7.7536      1.00000
      7      -0.2161      1.00000
      8       1.2693      1.00000
      9       1.2693      1.00000
     10       4.0284      0.00000
     11       7.0589      0.00000
     12       7.3467      0.00000
     13       7.3467      0.00000
     14      10.8798      0.00000
     15      10.8798      0.00000
     16      10.9207      0.00000
     17      12.2226      0.00000
     18      14.3928      0.00000
     19      14.3928      0.00000
     20      16.5109      0.00000
     21      19.7866      0.00000
     22      19.7866      0.00000
     23      20.1679      0.00000
     24      22.7492      0.00000

 k-point     3 :       0.3333    0.0000    0.0000
  band No.  band energies     occupation 
      1     -10.1631      1.00000
      2      -7.9444      1.00000
      3      -7.9444      1.00000
      4      -7.7507      1.00000
      5      -7.7507      1.00000
      6      -7.5863      1.00000
      7      -2.1631      1.00000
      8       0.8877      1.00000
      9       0.8877      1.00000
     10       4.1835      0.00000
     11       7.6234      0.00000
     12       7.6234      0.00000
     13       8.5928      0.00000
     14      10.5027      0.00000
     15      11.3165      0.00000
     16      11.3165      0.00000
     17      14.7416      0.00000
     18      16.2940      0.00000
     19      16.2940      0.00000
     20      16.8219      0.00000
     21      17.3619      0.00000
     22      17.3619      0.00000
     23      19.7432      0.00000
     24      23.1643      0.00000

 k-point     4 :       0.5000    0.0000    0.0000
  band No.  band energies     occupation 
      1     -10.0818      1.00000
      2      -7.9329      1.00000
      3      -7.9329      1.00000
      4      -7.7461      1.00000
      5      -7.7461      1.00000
      6      -7.3394      1.00000
      7      -3.0251      1.00000
      8       0.7199      1.00000
      9       0.7199      1.00000
     10       4.0758      0.00000
     11       7.5741      0.00000
     12       7.5741      0.00000
     13       9.4438      0.00000
     14      11.0948      0.00000
     15      12.8218      0.00000
     16      12.8218      0.00000
     17      13.7592      0.00000
     18      14.1267      0.00000
     19      14.1267      0.00000
     20      18.5416      0.00000
     21      20.0724      0.00000
     22      20.0724      0.00000
     23      20.6642      0.00000
     24      20.9710      0.00000

 k-point     5 :       0.1667    0.1667    0.0000
  band No.  band energies     occupation 
      1     -10.3099      1.00000
      2      -7.9564      1.00000
      3      -7.9564      1.00000
      4      -7.8856      1.00000
      5      -7.7572      1.00000
      6      -7.7463      1.00000
      7      -0.2183      1.00000
      8       0.9000      1.00000
      9       0.9000      1.00000
     10       4.6530      0.00000
     11       6.0602      0.00000
     12       7.9586      0.00000
     13       7.9586      0.00000
     14       9.5422      0.00000
[...]
     14      10.0993      0.00000
     15      11.4289      0.00000
     16      12.2760      0.00000
     17      13.2684      0.00000
     18      14.5869      0.00000
     19      16.3228      0.00000
     20      16.7429      0.00000
     21      18.6131      0.00000
     22      19.7024      0.00000
     23      19.8304      0.00000
     24      20.4100      0.00000

 k-point    10 :       0.3333    0.3333    0.0000
  band No.  band energies     occupation 
      1     -10.0825      1.00000
      2      -7.8864      1.00000
      3      -7.8864      1.00000
      4      -7.8194      1.00000
      5      -7.7337      1.00000
      6      -7.4817      1.00000
      7      -2.0706      1.00000
      8      -0.0033      1.00000
      9      -0.0033      1.00000
     10       5.0466      0.00000
     11       5.4203      0.00000
     12       9.6718      0.00000
     13       9.9721      0.00000
     14       9.9721      0.00000
     15      12.7378      0.00000
     16      14.4653      0.00000
     17      15.5193      0.00000
     18      15.5193      0.00000
     19      15.7132      0.00000
     20      16.1971      0.00000
     21      16.1971      0.00000
     22      17.5761      0.00000
     23      17.5876      0.00000
     24      22.0550      0.00000

 k-point    11 :       0.5000    0.3333    0.0000
  band No.  band energies     occupation 
      1     -10.0075      1.00000
      2      -7.8805      1.00000
      3      -7.8682      1.00000
      4      -7.8064      1.00000
      5      -7.7346      1.00000
      6      -7.2237      1.00000
      7      -2.7020      1.00000
      8      -0.6651      1.00000
      9      -0.1404      1.00000
     10       5.1127      0.00000
     11       6.0144      0.00000
     12       9.3611      0.00000
     13      10.1661      0.00000
     14      11.5563      0.00000
     15      13.1868      0.00000
     16      13.9095      0.00000
     17      14.6074      0.00000
     18      14.9472      0.00000
     19      16.8579      0.00000
     20      17.3252      0.00000
     21      17.7779      0.00000
     22      18.0678      0.00000
     23      18.8138      0.00000
     24      19.5864      0.00000

 k-point    12 :      -0.3333    0.3333    0.0000
  band No.  band energies     occupation 
      1     -10.0085      1.00000
      2      -7.8976      1.00000
      3      -7.8847      1.00000
      4      -7.7761      1.00000
      5      -7.7489      1.00000
      6      -7.1718      1.00000
      7      -2.7172      1.00000
      8      -1.1356      1.00000
      9       0.1716      1.00000
     10       5.3498      0.00000
     11       7.4840      0.00000
     12       9.3002      0.00000
     13       9.3127      0.00000
     14       9.9044      0.00000
     15      11.4243      0.00000
     16      14.6859      0.00000
     17      15.2052      0.00000
     18      16.0837      0.00000
     19      16.6621      0.00000
     20      16.8918      0.00000
     21      18.1460      0.00000
     22      19.7583      0.00000
     23      20.0262      0.00000
     24      20.2674      0.00000

 k-point    13 :       0.5000    0.5000    0.0000
  band No.  band energies     occupation 
      1      -9.9830      1.00000
      2      -7.8487      1.00000
      3      -7.8487      1.00000
      4      -7.8337      1.00000
      5      -7.7273      1.00000
      6      -7.1694      1.00000
      7      -2.9219      1.00000
      8      -0.3774      1.00000
      9      -0.3774      1.00000
     10       4.8545      0.00000
     11       4.9752      0.00000
     12      11.2556      0.00000
     13      11.6759      0.00000
     14      11.6759      0.00000
     15      13.3292      0.00000
     16      14.0126      0.00000
     17      14.0126      0.00000
     18      14.3579      0.00000
     19      16.3490      0.00000
     20      17.8758      0.00000
     21      18.3124      0.00000
     22      18.3124      0.00000
     23      18.6463      0.00000
     24      18.8035      0.00000

 k-point    14 :       0.5000    0.3333    0.1667
  band No.  band energies     occupation 
      1     -10.0574      1.00000
      2      -7.9059      1.00000
      3      -7.8974      1.00000
      4      -7.7855      1.00000
      5      -7.7424      1.00000
      6      -7.3575      1.00000
      7      -2.3737      1.00000
      8      -0.5751      1.00000
      9       0.1867      1.00000
     10       5.8900      0.00000
     11       6.4379      0.00000
     12       7.6476      0.00000
     13       9.8473      0.00000
     14      10.6082      0.00000
     15      12.7468      0.00000
     16      13.9265      0.00000
     17      14.0569      0.00000
     18      14.7249      0.00000
     19      16.4333      0.00000
     20      17.4313      0.00000
     21      17.8716      0.00000
     22      18.8323      0.00000
     23      20.3864      0.00000
     24      20.9125      0.00000

 k-point    15 :      -0.3333    0.3333    0.1667
  band No.  band energies     occupation 
      1     -10.0085      1.00000
      2      -7.8980      1.00000
      3      -7.8851      1.00000
      4      -7.7741      1.00000
      5      -7.7500      1.00000
      6      -7.1714      1.00000
      7      -2.7559      1.00000
      8      -0.9031      1.00000
      9      -0.0980      1.00000
     10       6.0246      0.00000
     11       6.9371      0.00000
     12       8.1382      0.00000
     13       9.6736      0.00000
     14      10.3858      0.00000
     15      12.9407      0.00000
     16      13.6833      0.00000
     17      14.1344      0.00000
     18      16.4359      0.00000
     19      16.9340      0.00000
     20      17.1373      0.00000
     21      18.1180      0.00000
     22      19.0432      0.00000
     23      20.1573      0.00000
     24      20.7593      0.00000

 k-point    16 :      -0.3333    0.5000    0.1667
  band No.  band energies     occupation 
      1      -9.9844      1.00000
      2      -7.8756      1.00000
      3      -7.8692      1.00000
      4      -7.7941      1.00000
      5      -7.7418      1.00000
      6      -7.1171      1.00000
      7      -2.8075      1.00000
      8      -0.7439      1.00000
      9      -0.6106      1.00000
     10       6.0523      0.00000
     11       6.0546      0.00000
     12       9.0737      0.00000
     13       9.3698      0.00000
     14      12.0991      0.00000
     15      13.5745      0.00000
     16      13.8205      0.00000
     17      13.8851      0.00000
     18      16.3456      0.00000
     19      17.2870      0.00000
     20      17.7162      0.00000
     21      17.7589      0.00000
     22      17.8912      0.00000
     23      18.0982      0.00000
     24      20.8803      0.00000


--------------------------------------------------------------------------------------------------------


 soft charge-density along one line, spin component           1
         0         1         2         3         4         5         6         7         8         9
 total charge-density along one line
 
 soft charge-density along one line, spin component           2
         0         1         2         3         4         5         6         7         8         9
 total charge-density along one line
 
 pseudopotential strength for first ion, spin component:           1
-16.493  -0.000   0.001  -0.000  -0.001 -16.599  -0.000   0.001
 -0.000 -16.493  -0.000   0.002   0.000  -0.000 -16.599  -0.000
  0.001  -0.000 -16.492  -0.000   0.000   0.001  -0.000 -16.598
 -0.000   0.002  -0.000 -16.492  -0.000  -0.000   0.002  -0.000
 -0.001   0.000   0.000  -0.000 -16.491  -0.001   0.000   0.000
-16.599  -0.000   0.001  -0.000  -0.001 -16.682  -0.000   0.001
 -0.000 -16.599  -0.000   0.002   0.000  -0.000 -16.682  -0.000
  0.001  -0.000 -16.598  -0.000   0.000   0.001  -0.000 -16.681
 -0.000   0.002  -0.000 -16.598  -0.000  -0.000   0.002  -0.000
 -0.001   0.000   0.000  -0.000 -16.597  -0.001   0.000   0.000
  0.000   0.000  -0.000   0.000   0.000   0.000   0.000  -0.000
  0.000   0.000  -0.000   0.000   0.000   0.000   0.000  -0.000
 -0.000   0.000   0.001  -0.000   0.001  -0.000   0.000   0.001
 -0.000   0.001   0.000   0.001  -0.000  -0.000   0.001   0.000
  0.001  -0.000   0.001   0.000  -0.001   0.001  -0.000   0.001
 -0.000   0.000   0.001  -0.000   0.002  -0.000   0.000   0.001
 -0.000   0.001   0.000   0.002  -0.000  -0.000   0.001   0.000
  0.001  -0.000   0.002   0.000  -0.001   0.001  -0.000   0.002
 pseudopotential strength for first ion, spin component:           2
-16.493  -0.000   0.001  -0.000  -0.001 -16.599  -0.000   0.001
 -0.000 -16.493  -0.000   0.002   0.000  -0.000 -16.599  -0.000
  0.001  -0.000 -16.492  -0.000   0.000   0.001  -0.000 -16.598
 -0.000   0.002  -0.000 -16.492  -0.000  -0.000   0.002  -0.000
 -0.001   0.000   0.000  -0.000 -16.491  -0.001   0.000   0.000
-16.599  -0.000   0.001  -0.000  -0.001 -16.682  -0.000   0.001
 -0.000 -16.599  -0.000   0.002   0.000  -0.000 -16.682  -0.000
  0.001  -0.000 -16.598  -0.000   0.000   0.001  -0.000 -16.681
 -0.000   0.002  -0.000 -16.598  -0.000  -0.000   0.002  -0.000
 -0.001   0.000   0.000  -0.000 -16.597  -0.001   0.000   0.000
  0.000   0.000  -0.000   0.000   0.000   0.000   0.000  -0.000
  0.000   0.000  -0.000   0.000   0.000   0.000   0.000  -0.000
 -0.000   0.000   0.001  -0.000   0.001  -0.000   0.000   0.001
 -0.000   0.001   0.000   0.001  -0.000  -0.000   0.001   0.000
  0.001  -0.000   0.001   0.000  -0.001   0.001  -0.000   0.001
 -0.000   0.000   0.001  -0.000   0.002   0.000   0.000   0.001
 -0.000   0.001   0.000   0.002  -0.000  -0.000   0.001   0.000
  0.001  -0.000   0.002   0.000  -0.001   0.001  -0.000   0.002
 total augmentation occupancy for first ion, spin component:           1
  3.207  -0.000   0.645  -0.000  -0.372  -1.073   0.000  -0.618  -0.000   0.357   0.000  -0.000  -0.000   0.000  -0.322   0.000
 -0.000   3.207  -0.000   0.745   0.000   0.000  -1.073   0.000  -0.714  -0.000  -0.000   0.000  -0.000  -0.322   0.000   0.000
  0.645  -0.000   3.865  -0.000   0.228  -0.618   0.000  -1.704   0.000  -0.219  -0.000   0.000  -0.279   0.000  -0.395   0.056
 -0.000   0.745  -0.000   3.734  -0.000  -0.000  -0.714   0.000  -1.578   0.000  -0.000   0.000   0.000  -0.456  -0.000  -0.000
 -0.372   0.000   0.228  -0.000   4.129   0.357  -0.000  -0.219   0.000  -1.956  -0.000   0.000  -0.483  -0.000   0.228   0.096
 -1.073   0.000  -0.618  -0.000   0.357   0.943  -0.000   0.592   0.000  -0.342  -0.000   0.000   0.000  -0.000   0.311  -0.000
  0.000  -1.073   0.000  -0.714  -0.000  -0.000   0.943  -0.000   0.684   0.000   0.000  -0.000   0.000   0.311  -0.000  -0.000
 -0.618   0.000  -1.704   0.000  -0.219   0.592  -0.000   1.548  -0.000   0.209   0.000  -0.000   0.269  -0.000   0.381  -0.063
 -0.000  -0.714   0.000  -1.578   0.000   0.000   0.684  -0.000   1.427  -0.000   0.000  -0.000  -0.000   0.440   0.000   0.000
  0.357  -0.000  -0.219   0.000  -1.956  -0.342   0.000   0.209  -0.000   1.790   0.000  -0.000   0.467   0.000  -0.220  -0.109
  0.000  -0.000  -0.000  -0.000  -0.000  -0.000   0.000   0.000   0.000   0.000   5.474  -2.050   0.000   0.000  -0.000  -0.000
 -0.000   0.000   0.000   0.000   0.000   0.000  -0.000  -0.000  -0.000  -0.000  -2.050   0.781  -0.000  -0.000   0.000   0.000
 -0.000  -0.000  -0.279   0.000  -0.483   0.000   0.000   0.269  -0.000   0.467   0.000  -0.000   0.229  -0.000  -0.000  -0.054
  0.000  -0.322   0.000  -0.456  -0.000  -0.000   0.311  -0.000   0.440   0.000   0.000  -0.000  -0.000   0.229  -0.000  -0.000
 -0.322   0.000  -0.395  -0.000   0.228   0.311  -0.000   0.381   0.000  -0.220  -0.000   0.000  -0.000  -0.000   0.229  -0.000
  0.000   0.000   0.056  -0.000   0.096  -0.000  -0.000  -0.063   0.000  -0.109  -0.000   0.000  -0.054  -0.000  -0.000   0.014
 -0.000   0.064  -0.000   0.091   0.000   0.000  -0.073   0.000  -0.103  -0.000  -0.000   0.000  -0.000  -0.054   0.000   0.000
  0.064  -0.000   0.079   0.000  -0.045  -0.073   0.000  -0.089  -0.000   0.051  -0.000   0.000   0.000   0.000  -0.054   0.000
 total augmentation occupancy for first ion, spin component:           2
 -0.000  -0.000  -0.000  -0.000   0.000   0.000   0.000   0.000   0.000  -0.000  -0.000   0.000   0.000  -0.000   0.000  -0.000
 -0.000  -0.000  -0.000  -0.000  -0.000   0.000   0.000   0.000   0.000   0.000  -0.000   0.000  -0.000   0.000   0.000   0.000
 -0.000  -0.000  -0.000  -0.000  -0.000   0.000   0.000   0.000   0.000   0.000  -0.000   0.000   0.000  -0.000   0.000   0.000
 -0.000  -0.000  -0.000  -0.000  -0.000   0.000   0.000   0.000   0.000   0.000  -0.000   0.000  -0.000   0.000  -0.000   0.000
  0.000  -0.000  -0.000  -0.000  -0.000  -0.000   0.000   0.000   0.000   0.000  -0.000   0.000   0.000   0.000  -0.000   0.000
  0.000   0.000   0.000   0.000  -0.000  -0.000  -0.000  -0.000  -0.000   0.000   0.000  -0.000   0.000   0.000  -0.000  -0.000
  0.000   0.000   0.000   0.000   0.000  -0.000  -0.000  -0.000  -0.000   0.000   0.000  -0.000   0.000  -0.000  -0.000  -0.000
  0.000   0.000   0.000   0.000   0.000  -0.000  -0.000  -0.000  -0.000  -0.000   0.000  -0.000  -0.000   0.000  -0.000  -0.000
  0.000   0.000   0.000   0.000   0.000  -0.000  -0.000  -0.000  -0.000  -0.000   0.000  -0.000   0.000  -0.000   0.000  -0.000
 -0.000   0.000   0.000   0.000   0.000   0.000   0.000  -0.000  -0.000  -0.000   0.000  -0.000  -0.000  -0.000   0.000  -0.000
 -0.000  -0.000  -0.000  -0.000  -0.000   0.000   0.000   0.000   0.000   0.000   0.001  -0.000   0.000   0.000   0.000  -0.000
  0.000   0.000   0.000   0.000   0.000  -0.000  -0.000  -0.000  -0.000  -0.000  -0.000   0.000  -0.000  -0.000  -0.000   0.000
  0.000  -0.000   0.000  -0.000   0.000   0.000   0.000  -0.000   0.000  -0.000   0.000  -0.000   0.000   0.000   0.000  -0.000
 -0.000   0.000  -0.000   0.000   0.000   0.000  -0.000   0.000  -0.000  -0.000   0.000  -0.000   0.000   0.000   0.000  -0.000
  0.000   0.000   0.000  -0.000  -0.000  -0.000  -0.000  -0.000   0.000   0.000   0.000  -0.000   0.000   0.000   0.000   0.000
 -0.000   0.000   0.000   0.000   0.000  -0.000  -0.000  -0.000  -0.000  -0.000  -0.000   0.000  -0.000  -0.000   0.000   0.000
  0.000   0.000   0.000   0.000   0.000  -0.000  -0.000  -0.000  -0.000  -0.000  -0.000   0.000  -0.000  -0.000  -0.000   0.000
  0.000   0.000   0.000   0.000  -0.000  -0.000  -0.000  -0.000  -0.000   0.000   0.000  -0.000  -0.000  -0.000  -0.000   0.000


------------------------ aborting loop because EDIFF is reached ----------------------------------------





 total charge

# of ion       s       p       d       tot
------------------------------------------
    1        0.434   0.292   9.578  10.304
    2        1.309   2.211   0.018   3.538
--------------------------------------------------
tot          1.744   2.503   9.596  13.842



 magnetization (x)

# of ion       s       p       d       tot
------------------------------------------
    1        0.000   0.000   0.000   0.000
    2       -0.000   0.000  -0.000   0.000
--------------------------------------------------
tot          0.000   0.000   0.000   0.000
 
    CHARGE:  cpu time      0.0613: real time      0.0614
    FORLOC:  cpu time      0.0007: real time      0.0007
    FORHF :  cpu time     10.1886: real time     10.2145
    FORNL :  cpu time      0.0127: real time      0.0128
    FORCOR:  cpu time      0.9230: real time      0.9258
    FORHAR:  cpu time      0.0035: real time      0.0036
    MIXING:  cpu time      0.0003: real time      0.0003
    OFIELD:  cpu time      0.0009: real time      0.0011

 VOLUME and BASIS-vectors are now :
 -----------------------------------------------------------------------------
  energy-cutoff  :      680.00
  volume of cell :       70.71
      direct lattice vectors                 reciprocal lattice vectors
     4.019750926  0.000000000  2.320804042     0.248771632 -0.087954008  0.000000000
     1.339916630  3.789858536  2.320804038     0.000000000  0.263862092  0.000000000
     0.000000000  0.000000000  4.641610150    -0.124385761 -0.087954002  0.215442480

  length of vectors
     4.641608440  4.641609170  4.641610150     0.263862147  0.263862092  0.263862059


 FORCES acting on ions
    electron-ion (+dipol)            ewald-force                    non-local-force                 convergence-correction
 -----------------------------------------------------------------------------------------------
   -.349E-04 0.212E-04 0.478E-04   0.550E-04 -.272E-04 -.763E-04   -.181E-17 -.492E-18 -.212E-17   0.233E-05 0.177E-05 0.831E-05
   0.465E-04 -.216E-04 -.628E-04   -.550E-04 0.272E-04 0.763E-04   -.988E-16 -.544E-16 -.137E-15   -.101E-05 -.252E-05 -.349E-05
 -----------------------------------------------------------------------------------------------
   0.116E-04 -.365E-06 -.150E-04   -.327E-15 -.204E-15 -.675E-15   -.101E-15 -.549E-16 -.139E-15   0.132E-05 -.742E-06 0.483E-05
 
 
 POSITION                                       TOTAL-FORCE (eV/Angst)
 -----------------------------------------------------------------------------------
      0.00000      0.00000      0.00000        -0.000000     -0.000000      0.000000
      1.33992      0.94746      2.32080         0.000000      0.000000     -0.000000
 -----------------------------------------------------------------------------------
    total drift:                                0.000013     -0.000001     -0.000010


--------------------------------------------------------------------------------------------------------



  FREE ENERGIE OF THE ION-ELECTRON SYSTEM (eV)
  ---------------------------------------------------
  free  energy   TOTEN  =        -6.05684114 eV

  energy  without entropy=       -6.05684114  energy(sigma->0) =       -6.05684114
 


--------------------------------------------------------------------------------------------------------


    POTLOK:  cpu time      0.9252: real time      0.9276


--------------------------------------------------------------------------------------------------------


 writing wavefunctions
     LOOP+:  cpu time    242.3889: real time    243.2937
    4ORBIT:  cpu time      0.0000: real time      0.0000



 total charge

# of ion       s       p       d       tot
------------------------------------------
    1        0.434   0.292   9.578  10.304
    2        1.309   2.211   0.018   3.538
--------------------------------------------------
tot          1.744   2.503   9.596  13.842



 magnetization (x)

# of ion       s       p       d       tot
------------------------------------------
    1        0.000   0.000   0.000   0.000
    2       -0.000   0.000  -0.000   0.000
--------------------------------------------------
tot          0.000   0.000   0.000   0.000
 
 BZINTS: Fermi energy:    1.556144;   18.000000 electrons
         Band energy:-0.101943E+03;  BLOECHL correction:    0.000000

 total amount of memory used by VASP MPI-rank0    35768. kBytes
=======================================================================

   base      :      30000. kBytes
   nonl-proj :       1503. kBytes
   fftplans  :        530. kBytes
   grid      :       1039. kBytes
   one-center:         31. kBytes
   HF        :         64. kBytes
   nonlr-proj:        651. kBytes
   wavefun   :        356. kBytes
   fock_wrk  :       1594. kBytes
 
  
  
 General timing and accounting informations for this job:
 ========================================================
  
                  Total CPU time used (sec):      252.441
                            User time (sec):      250.764
                          System time (sec):        1.677
                         Elapsed time (sec):      254.085
  
                   Maximum memory used (kb):      295980.
                   Average memory used (kb):          N/A
  
                          Minor page faults:        51094
                          Major page faults:            0
                 Voluntary context switches:         4072
