<?xml version="1.0" encoding="ISO-8859-1"?>
<modeling>
 <generator>
  <i name="program" type="string">vasp </i>
  <i name="version" type="string">6.4.2  </i>
  <i name="subversion" type="string">20Jul23 (build Mar 15 2024 16:31:38) complex                          parallel </i>
  <i name="platform" type="string">LinuxIFC </i>
  <i name="date" type="string">2025 03 19 </i>
  <i name="time" type="string">14:18:49 </i>
 </generator>
 <incar>
  <i type="string" name="PREC">Accurate</i>
  <i type="string" name="ALGO">Normal</i>
  <i type="int" name="ISPIN">     2</i>
  <i type="int" name="NELM">   200</i>
  <i name="EDIFF">      0.00001000</i>
  <i type="int" name="NSW">     0</i>
  <i name="ENCUT">    680.00000000</i>
  <i name="ENAUG">   1360.00000000</i>
  <v name="MAGMOM">      0.60000000      0.60000000</v>
  <i type="logical" name="LREAL"> F  </i>
  <i type="int" name="ISMEAR">    -5</i>
  <i name="SIGMA">      0.20000000</i>
  <i type="int" name="LMAXMIX">     4</i>
  <i type="logical" name="LWAVE"> T  </i>
  <i type="logical" name="LCHARG"> T  </i>
  <i type="logical" name="LVTOT"> T  </i>
  <i type="int" name="LORBIT">    11</i>
  <i type="logical" name="LELF"> F  </i>
  <i type="logical" name="LASPH"> T  </i>
  <i type="logical" name="LAECHG"> T  </i>
  <i name="HFSCREEN">      0.20000000</i>
  <i type="logical" name="LHFCALC"> T  </i>
  <i type="string" name="GGA">Pe</i>
  <i type="string" name="PRECFOCK">Fast</i>
  <i type="logical" name="LDAU"> F  </i>
  <i type="logical" name="LMIXTAU"> T  </i>
 </incar>
 <primitive_cell>
  <structure name="primitive_cell" >
   <crystal>
    <varray name="basis" >
     <v>       4.01975093       0.00000000       2.32080404 </v>
     <v>       1.33991663       3.78985854       2.32080404 </v>
     <v>       0.00000000       0.00000000       4.64161015 </v>
    </varray>
    <i name="volume">     70.71162285 </i>
    <varray name="rec_basis" >
     <v>       0.24877163      -0.08795401       0.00000000 </v>
     <v>       0.00000000       0.26386209       0.00000000 </v>
     <v>      -0.12438576      -0.08795400       0.21544248 </v>
    </varray>
   </crystal>
   <varray name="positions" >
    <v>       0.00000000       0.00000000       0.00000000 </v>
    <v>       0.25000000       0.25000000       0.25000000 </v>
   </varray>
  </structure>
  <varray name="primitive_index" >
   <v type="int" >        1 </v>
   <v type="int" >        2 </v>
  </varray>
 </primitive_cell>
 <kpoints>
  <generation param="Gamma">
   <v type="int" name="divisions">       6        6        6 </v>
   <v name="usershift">      0.00000000       0.00000000       0.00000000 </v>
   <v name="genvec1">      0.16666667      -0.00000000       0.00000000 </v>
   <v name="genvec2">      0.00000000       0.16666667       0.00000000 </v>
   <v name="genvec3">      0.00000000      -0.00000000       0.16666667 </v>
   <v name="shift">      0.00000000       0.00000000       0.00000000 </v>
  </generation>
  <varray name="kpointlist" >
   <v>       0.00000000       0.00000000       0.00000000 </v>
   <v>       0.16666667       0.00000000       0.00000000 </v>
   <v>       0.33333333       0.00000000       0.00000000 </v>
   <v>       0.50000000       0.00000000       0.00000000 </v>
   <v>       0.16666667       0.16666667       0.00000000 </v>
   <v>       0.33333333       0.16666667       0.00000000 </v>
   <v>       0.50000000       0.16666667       0.00000000 </v>
   <v>      -0.33333333       0.16666667       0.00000000 </v>
   <v>      -0.16666667       0.16666667       0.00000000 </v>
   <v>       0.33333333       0.33333333       0.00000000 </v>
   <v>       0.50000000       0.33333333       0.00000000 </v>
   <v>      -0.33333333       0.33333333       0.00000000 </v>
   <v>       0.50000000       0.50000000       0.00000000 </v>
   <v>       0.50000000       0.33333333       0.16666667 </v>
   <v>      -0.33333333       0.33333333       0.16666667 </v>
   <v>      -0.33333333       0.50000000       0.16666667 </v>
  </varray>
  <varray name="weights" >
   <v>       0.00462963 </v>
   <v>       0.03703704 </v>
   <v>       0.03703704 </v>
   <v>       0.01851852 </v>
   <v>       0.02777778 </v>
   <v>       0.11111111 </v>
   <v>       0.11111111 </v>
   <v>       0.11111111 </v>
   <v>       0.05555556 </v>
   <v>       0.02777778 </v>
   <v>       0.11111111 </v>
   <v>       0.05555556 </v>
   <v>       0.01388889 </v>
   <v>       0.11111111 </v>
   <v>       0.11111111 </v>
   <v>       0.05555556 </v>
  </varray>
  <varray name="tetrahedronlist"  type="int" >
   <v type="int" >       48        2        3        6        9 </v>
   <v type="int" >       48        6        8        9       14 </v>
   <v type="int" >       24        8        8        9       14 </v>
   <v type="int" >       48        3        6        8        9 </v>
   <v type="int" >       48        8       12       14       15 </v>
   <v type="int" >       48        7        8       12       15 </v>
   <v type="int" >       24        8        8       12       14 </v>
   <v type="int" >       48        7       11       14       15 </v>
   <v type="int" >       48        6        7       11       14 </v>
   <v type="int" >       48        7       11       12       15 </v>
   <v type="int" >       24        6        6       10       14 </v>
   <v type="int" >       24        5        6        6       10 </v>
   <v type="int" >       48        6       10       11       14 </v>
   <v type="int" >       24        5        6        6        9 </v>
   <v type="int" >       48        2        5        6        9 </v>
   <v type="int" >       48        6        7        8       14 </v>
   <v type="int" >       48        3        6        7        8 </v>
   <v type="int" >       48       11       14       15       16 </v>
   <v type="int" >       24       14       15       15       16 </v>
   <v type="int" >       24       12       14       15       15 </v>
   <v type="int" >       48        7        8       14       15 </v>
   <v type="int" >       24       15       15       16       16 </v>
   <v type="int" >       24       12       15       15       16 </v>
   <v type="int" >       48       11       12       15       16 </v>
   <v type="int" >       24       11       11       14       16 </v>
   <v type="int" >       24       10       11       11       14 </v>
   <v type="int" >       24        6        6        9       14 </v>
   <v type="int" >       24       11       11       12       16 </v>
   <v type="int" >       48        7        7        8       15 </v>
   <v type="int" >       24        2        2        5        9 </v>
   <v type="int" >       48        3        4        7        8 </v>
   <v type="int" >       48        4        7        7        8 </v>
   <v type="int" >       48       11       11       13       16 </v>
   <v type="int" >       24       10       11       11       13 </v>
   <v type="int" >       24        1        2        2        5 </v>
  </varray>
  <i name="volumeweight">      0.00077160 </i>
 </kpoints>
 <parameters>
  <separator name="general" >
   <i type="string" name="SYSTEM">unknown system</i>
   <i type="logical" name="LCOMPAT"> F  </i>
  </separator>
  <separator name="electronic" >
   <i type="string" name="PREC">accura</i>
   <i name="ENMAX">    680.00000000</i>
   <i name="ENAUG">   1360.00000000</i>
   <i name="EDIFF">      0.00001000</i>
   <i type="int" name="IALGO">    38</i>
   <i type="int" name="IWAVPR">    10</i>
   <i type="int" name="NBANDS">    24</i>
   <i type="int" name="NBANDSLOW">    -1</i>
   <i type="int" name="NBANDSHIGH">    -1</i>
   <i name="NELECT">     18.00000000</i>
   <i type="int" name="TURBO">     0</i>
   <i type="int" name="IRESTART">     0</i>
   <i type="int" name="NREBOOT">     0</i>
   <i type="int" name="NMIN">     0</i>
   <i name="EREF">      0.00000000</i>
   <separator name="electronic smearing" >
    <i type="int" name="ISMEAR">    -5</i>
    <i name="SIGMA">      0.20000000</i>
    <i name="KSPACING">      0.50000000</i>
    <i type="logical" name="KGAMMA"> T  </i>
    <i type="logical" name="KBLOWUP"> T  </i>
   </separator>
   <separator name="electronic projectors" >
    <i type="logical" name="LREAL"> F  </i>
    <v name="ROPT">      0.00000000      0.00000000</v>
    <i type="int" name="LMAXPAW">  -100</i>
    <i type="int" name="LMAXMIX">     4</i>
    <i type="logical" name="NLSPLINE"> F  </i>
   </separator>
   <separator name="electronic startup" >
    <i type="int" name="ISTART">     0</i>
    <i type="int" name="ICHARG">     2</i>
    <i type="int" name="INIWAV">     1</i>
   </separator>
   <separator name="electronic spin" >
    <i type="int" name="ISPIN">     2</i>
    <i type="logical" name="LNONCOLLINEAR"> F  </i>
    <v name="MAGMOM">      0.60000000      0.60000000</v>
    <i name="NUPDOWN">     -1.00000000</i>
    <i type="logical" name="LSORBIT"> F  </i>
    <v name="SAXIS">      0.00000000      0.00000000      1.00000000</v>
    <i type="logical" name="LSPIRAL"> F  </i>
    <v name="QSPIRAL">      0.00000000      0.00000000      0.00000000</v>
    <i type="logical" name="LZEROZ"> F  </i>
   </separator>
   <separator name="electronic exchange-correlation" >
    <i type="logical" name="LASPH"> T  </i>
    <i type="logical" name="LMETAGGA"> F  </i>
   </separator>
   <separator name="electronic convergence" >
    <i type="int" name="NELM">   200</i>
    <i type="int" name="NELMDL">    -5</i>
    <i type="int" name="NELMIN">     2</i>
    <i name="ENINI">    680.00000000</i>
    <separator name="electronic convergence detail" >
     <i type="logical" name="LDIAG"> T  </i>
     <i type="logical" name="LSUBROT"> F  </i>
     <i name="WEIMIN">      0.00000000</i>
     <i name="EBREAK">      0.00000010</i>
     <i name="DEPER">      0.30000000</i>
     <i type="int" name="NRMM">     4</i>
     <i name="TIME">      0.40000000</i>
    </separator>
   </separator>
   <separator name="electronic mixer" >
    <i name="AMIX">      0.40000000</i>
    <i name="BMIX">      1.00000000</i>
    <i name="AMIN">      0.10000000</i>
    <i name="AMIX_MAG">      1.60000000</i>
    <i name="BMIX_MAG">      1.00000000</i>
    <separator name="electronic mixer details" >
     <i type="int" name="IMIX">     1</i>
     <i type="logical" name="MIXFIRST"> F  </i>
     <i type="int" name="MAXMIX">   -45</i>
     <i name="WC">    100.00000000</i>
     <i type="int" name="INIMIX">     1</i>
     <i type="int" name="MIXPRE">     1</i>
     <i type="int" name="MREMOVE">     5</i>
    </separator>
   </separator>
   <separator name="electronic dipolcorrection" >
    <i type="logical" name="LDIPOL"> F  </i>
    <i type="logical" name="LMONO"> F  </i>
    <i type="int" name="IDIPOL">     0</i>
    <i name="EPSILON">      1.00000000</i>
    <v name="DIPOL">   -100.00000000   -100.00000000   -100.00000000</v>
    <i name="EFIELD">      0.00000000</i>
   </separator>
  </separator>
  <separator name="grids" >
   <i type="int" name="NGX">    40</i>
   <i type="int" name="NGY">    40</i>
   <i type="int" name="NGZ">    40</i>
   <i type="int" name="NGXF">    80</i>
   <i type="int" name="NGYF">    80</i>
   <i type="int" name="NGZF">    80</i>
   <i type="logical" name="ADDGRID"> F  </i>
  </separator>
  <separator name="ionic" >
   <i type="int" name="NSW">     0</i>
   <i type="int" name="IBRION">    -1</i>
   <i type="int" name="MDALGO">     0</i>
   <i type="int" name="ISIF">     0</i>
   <i name="PSTRESS">      0.00000000</i>
   <i name="EDIFFG">      0.00010000</i>
   <i type="int" name="NFREE">     0</i>
   <i name="POTIM">      0.50000000</i>
   <i name="SMASS">     -3.00000000</i>
   <i name="SCALEE">      1.00000000</i>
  </separator>
  <separator name="ionic md" >
   <i name="TEBEG">      0.00010000</i>
   <i name="TEEND">      0.00010000</i>
   <i type="int" name="NBLOCK">     1</i>
   <i type="int" name="KBLOCK">     1</i>
   <i type="int" name="NPACO">   256</i>
   <i name="APACO">     10.00000000</i>
  </separator>
  <separator name="symmetry" >
   <i type="int" name="ISYM">     3</i>
   <i name="SYMPREC">      0.00001000</i>
  </separator>
  <separator name="dos" >
   <i type="int" name="LORBIT">    11</i>
   <v name="RWIGS">     -1.00000000     -1.00000000</v>
   <i type="int" name="NEDOS">   301</i>
   <i name="EMIN">     10.00000000</i>
   <i name="EMAX">    -10.00000000</i>
   <i name="EFERMI">      0.00000000</i>
  </separator>
  <separator name="writing" >
   <i type="int" name="NWRITE">     2</i>
   <i type="logical" name="LWAVE"> T  </i>
   <i type="logical" name="LDOWNSAMPLE"> F  </i>
   <i type="logical" name="LCHARG"> T  </i>
   <i type="logical" name="LPARD"> F  </i>
   <i type="logical" name="LVTOT"> T  </i>
   <i type="logical" name="LVHAR"> F  </i>
   <i type="logical" name="LELF"> F  </i>
   <i type="logical" name="LOPTICS"> F  </i>
   <v name="STM">      0.00000000      0.00000000      0.00000000      0.00000000      0.00000000      0.00000000      0.00000000</v>
  </separator>
  <separator name="performance" >
   <i type="int" name="NPAR">    12</i>
   <i type="int" name="NSIM">     4</i>
   <i type="int" name="NBLK">    -1</i>
   <i type="logical" name="LPLANE"> T  </i>
   <i type="logical" name="LSCALAPACK"> T  </i>
   <i type="logical" name="LSCAAWARE"> F  </i>
   <i type="logical" name="LSCALU"> F  </i>
   <i type="logical" name="LASYNC"> F  </i>
   <i type="logical" name="LORBITALREAL"> F  </i>
  </separator>
  <separator name="miscellaneous" >
   <i type="int" name="IDIOT">     3</i>
   <i type="int" name="PHON_NSTRUCT">    -1</i>
   <i type="logical" name="LMUSIC"> F  </i>
   <v name="POMASS">    112.41100000    127.60000000</v>
   <v name="DARWINR">      0.00000000      0.00000000</v>
   <v name="DARWINV">      1.00000000      1.00000000</v>
   <i type="logical" name="LCORR"> T  </i>
  </separator>
  <i type="logical" name="GGA_COMPAT"> T  </i>
  <i type="logical" name="LBERRY"> F  </i>
  <i type="int" name="ICORELEVEL">     0</i>
  <i type="logical" name="LDAU"> F  </i>
  <i type="int" name="I_CONSTRAINED_M">     0</i>
  <separator name="electronic exchange-correlation" >
   <i type="string" name="GGA">PE</i>
   <i type="int" name="VOSKOWN">     0</i>
   <i type="logical" name="LHFCALC"> T  </i>
   <i type="string" name="PRECFOCK">fast</i>
   <i type="logical" name="LSYMGRAD"> F  </i>
   <i type="logical" name="LHFONE"> F  </i>
   <i type="logical" name="LRHFCALC"> F  </i>
   <i type="logical" name="LTHOMAS"> F  </i>
   <i type="logical" name="LMODELHF"> F  </i>
   <i type="logical" name="LFOCKACE"> T  </i>
   <i name="ENCUT4O">     -1.00000000</i>
   <i type="int" name="EXXOEP">     0</i>
   <i type="int" name="FOURORBIT">     0</i>
   <i name="AEXX">      0.25000000</i>
   <i name="HFALPHA">     -1.00000000</i>
   <i name="MCALPHA">      0.00000000</i>
   <i name="ALDAX">      0.75000000</i>
   <i name="AGGAX">      0.75000000</i>
   <i name="ALDAC">      1.00000000</i>
   <i name="AGGAC">      1.00000000</i>
   <i type="int" name="NKREDX">     1</i>
   <i type="int" name="NKREDY">     1</i>
   <i type="int" name="NKREDZ">     1</i>
   <i type="logical" name="SHIFTRED"> F  </i>
   <i type="logical" name="ODDONLY"> F  </i>
   <i type="logical" name="EVENONLY"> F  </i>
   <i type="int" name="LMAXFOCK">     4</i>
   <i type="int" name="NMAXFOCKAE">     1</i>
   <i type="logical" name="LFOCKAEDFT"> F  </i>
   <i name="HFSCREEN">      0.20000000</i>
   <i name="HFSCREENC">      0.20000000</i>
   <i type="int" name="NBANDSGWLOW">     1</i>
  </separator>
  <separator name="vdW DFT" >
   <i type="logical" name="LUSE_VDW"> F  </i>
   <i type="int" name="IVDW_NL">     1</i>
   <i type="logical" name="LSPIN_VDW"> F  </i>
   <i name="Zab_VDW">     -0.84910000</i>
   <i name="PARAM1">      0.12340000</i>
   <i name="PARAM2">      1.00000000</i>
   <i name="PARAM3">      0.00000000</i>
  </separator>
  <separator name="model GW" >
   <i type="int" name="MODEL_GW">     0</i>
   <i name="MODEL_EPS0">     21.21348685</i>
   <i name="MODEL_ALPHA">      1.00000000</i>
  </separator>
  <separator name="linear response parameters" >
   <i type="logical" name="LEPSILON"> F  </i>
   <i type="logical" name="LRPA"> F  </i>
   <i type="logical" name="LNABLA"> F  </i>
   <i type="logical" name="LVEL"> F  </i>
   <i name="CSHIFT">      0.10000000</i>
   <i name="OMEGAMAX">     -1.00000000</i>
   <i name="DEG_THRESHOLD">      0.00200000</i>
   <i name="RTIME">     -0.10000000</i>
   <i name="WPLASMAI">      0.00000000</i>
   <v name="DFIELD">      0.00000000      0.00000000      0.00000000</v>
   <v name="WPLASMA">      0.00000000      0.00000000      0.00000000      0.00000000      0.00000000      0.00000000      0.00000000      0.00000000      0.00000000</v>
  </separator>
  <separator name="orbital magnetization" >
   <i type="logical" name="NUCIND"> F  </i>
   <v name="MAGPOS">      0.00000000      0.00000000      0.00000000</v>
   <i type="logical" name="LNICSALL"> T  </i>
   <i type="logical" name="ORBITALMAG"> F  </i>
   <i type="logical" name="LMAGBLOCH"> F  </i>
   <i type="logical" name="LCHIMAG"> F  </i>
   <i type="logical" name="LGAUGE"> T  </i>
   <i type="int" name="MAGATOM">     0</i>
   <v name="MAGDIPOL">      0.00000000      0.00000000      0.00000000</v>
   <v name="AVECCONST">      0.00000000      0.00000000      0.00000000</v>
  </separator>
  <separator name="response functions" >
   <i type="logical" name="LALL_IN_ONE"> F  </i>
   <i type="int" name="IALL_IN_ONE">    -1</i>
   <i type="int" name="NBANDS_WAVE">    -1</i>
   <i type="logical" name="LFINITE_TEMPERATURE"> F  </i>
   <i type="logical" name="LADDER"> F  </i>
   <i type="logical" name="LRPAFORCE"> F  </i>
   <i type="logical" name="LFXC"> F  </i>
   <i type="logical" name="LHARTREE"> T  </i>
   <i type="int" name="IBSE">     0</i>
   <v type="int" name="KPOINT">    -1     0     0     0</v>
   <i type="logical" name="LTCTC"> F  </i>
   <i type="logical" name="LTCTE"> F  </i>
   <i type="logical" name="LTETE"> F  </i>
   <i type="logical" name="LTRIPLET"> F  </i>
   <i type="logical" name="LFXCEPS"> F  </i>
   <i type="logical" name="LFXHEG"> F  </i>
   <i type="int" name="NATURALO">     2</i>
   <i type="logical" name="LHOLEGF"> F  </i>
   <i type="logical" name="L2ORDER"> F  </i>
   <i type="logical" name="LDMP1"> F  </i>
   <i type="logical" name="LMP2LT"> F  </i>
   <i type="logical" name="LSMP2LT"> F  </i>
   <i type="logical" name="LGWLF"> F  </i>
   <i name="ENCUTGW">     -1.60000002</i>
   <i name="ENCUTGWSOFT">     -1.60000002</i>
   <i name="ENCUTLF">     -1.00000000</i>
   <i type="logical" name="LESF_SPLINES"> F  </i>
   <i type="int" name="LMAXMP2">    -1</i>
   <i name="SCISSOR">      0.00000000</i>
   <i type="int" name="NOMEGA">     0</i>
   <i type="int" name="NOMEGAR">     0</i>
   <i type="int" name="NBANDSGW">    -1</i>
   <i type="int" name="NBANDSO">    -1</i>
   <i type="int" name="NBANDSV">    -1</i>
   <i type="int" name="NELMGW">     1</i>
   <i type="int" name="NELMHF">     1</i>
   <i type="int" name="DIM">     3</i>
   <i type="int" name="IESPILON">     4</i>
   <i type="int" name="ANTIRES">     0</i>
   <i name="OMEGAMAX">    -30.00000000</i>
   <i name="OMEGAMIN">    -30.00000000</i>
   <i name="OMEGATL">   -200.00000000</i>
   <i type="int" name="OMEGAGRID">     0</i>
   <i name="CSHIFT">     -0.10000000</i>
   <i type="logical" name="LSELFENERGY"> F  </i>
   <i type="logical" name="LSPECTRAL"> F  </i>
   <i type="logical" name="LSPECTRALGW"> F  </i>
   <i type="logical" name="LSINGLES"> F  </i>
   <i type="logical" name="LFERMIGW"> F  </i>
   <i type="logical" name="ODDONLYGW"> F  </i>
   <i type="logical" name="EVENONLYGW"> F  </i>
   <i type="int" name="NKREDLFX">     1</i>
   <i type="int" name="NKREDLFY">     1</i>
   <i type="int" name="NKREDLFZ">     1</i>
   <i type="int" name="MAXMEM">  2800</i>
   <i type="int" name="TELESCOPE">     0</i>
   <i type="int" name="NTAUPAR">    -1</i>
   <i type="int" name="NOMEGAPAR">    -1</i>
   <i name="DAMP_NEWTON">      0.80000001</i>
   <i name="LAMBDA">      1.00000000</i>
  </separator>
  <separator name="External order field" >
   <i name="OFIELD_KAPPA">      0.00000000</i>
   <v name="OFIELD_K">      0.00000000      0.00000000      0.00000000</v>
   <i name="OFIELD_Q6_NEAR">      0.00000000</i>
   <i name="OFIELD_Q6_FAR">      0.00000000</i>
   <i name="OFIELD_A">      0.00000000</i>
  </separator>
  <separator name="optional k-points parameters" >
   <i type="int" name="KPOINTS_OPT_MODE">     1</i>
   <i type="logical" name="LKPOINTS_OPT"> F  </i>
  </separator>
 </parameters>
 <atominfo>
  <atoms>       2 </atoms>
  <types>       2 </types>
  <array name="atoms" >
   <dimension dim="1">ion</dimension>
   <field type="string">element</field>
   <field type="int">atomtype</field>
   <set>
    <rc><c>Cd</c><c>   1</c></rc>
    <rc><c>Te</c><c>   2</c></rc>
   </set>
  </array>
  <array name="atomtypes" >
   <dimension dim="1">type</dimension>
   <field type="int">atomspertype</field>
   <field type="string">element</field>
   <field>mass</field>
   <field>valence</field>
   <field type="string">pseudopotential</field>
   <set>
    <rc><c>   1</c><c>Cd</c><c>    112.41100000</c><c>     12.00000000</c><c>  PAW_PBE Cd 06Sep2000                  </c></rc>
    <rc><c>   1</c><c>Te</c><c>    127.60000000</c><c>      6.00000000</c><c>  PAW_PBE Te 08Apr2002                  </c></rc>
   </set>
  </array>
 </atominfo>
 <structure name="initialpos" >
  <crystal>
   <varray name="basis" >
    <v>       4.01975093       0.00000000       2.32080404 </v>
    <v>       1.33991663       3.78985854       2.32080404 </v>
    <v>       0.00000000       0.00000000       4.64161015 </v>
   </varray>
   <i name="volume">     70.71162285 </i>
   <varray name="rec_basis" >
    <v>       0.24877163      -0.08795401       0.00000000 </v>
    <v>       0.00000000       0.26386209       0.00000000 </v>
    <v>      -0.12438576      -0.08795400       0.21544248 </v>
   </varray>
  </crystal>
  <varray name="positions" >
   <v>       0.00000000       0.00000000       0.00000000 </v>
   <v>       0.25000000       0.25000000       0.25000000 </v>
  </varray>
 </structure>
 <calculation>
  <scstep>
   <time name="dav">    0.35    0.35</time>
   <time name="total">    0.79    0.80</time>
   <energy>
    <i name="alphaZ">     48.32593859 </i>
    <i name="ewald">  -1031.85467228 </i>
    <i name="hartreedc">   -517.30053658 </i>
    <i name="XCdc">    -22.70731779 </i>
    <i name="pawpsdc">   1404.37530049 </i>
    <i name="pawaedc">  -3421.85055311 </i>
    <i name="eentropy">      0.00000000 </i>
    <i name="bandstr">      4.92151527 </i>
    <i name="atom">   1514.28648168 </i>
    <i name="e_fr_energy">  -2021.80384373 </i>
    <i name="e_wo_entrp">  -2021.80384373 </i>
    <i name="e_0_energy">  -2021.80384373 </i>
   </energy>
  </scstep>
  <scstep>
   <time name="dav">    0.30    0.31</time>
   <time name="total">    0.30    0.31</time>
   <energy>
    <i name="e_fr_energy">  -2136.09498024 </i>
    <i name="e_wo_entrp">  -2136.09498024 </i>
    <i name="e_0_energy">  -2136.09498024 </i>
   </energy>
  </scstep>
  <scstep>
   <time name="dav">    0.27    0.28</time>
   <time name="total">    0.27    0.29</time>
   <energy>
    <i name="e_fr_energy">  -2140.25741635 </i>
    <i name="e_wo_entrp">  -2140.25741635 </i>
    <i name="e_0_energy">  -2140.25741635 </i>
   </energy>
  </scstep>
  <scstep>
   <time name="dav">    0.32    0.34</time>
   <time name="total">    0.32    0.34</time>
   <energy>
    <i name="e_fr_energy">  -2140.31890567 </i>
    <i name="e_wo_entrp">  -2140.31890567 </i>
    <i name="e_0_energy">  -2140.31890567 </i>
   </energy>
  </scstep>
  <scstep>
   <time name="dav">   17.61   17.72</time>
   <time name="total">   18.61   18.74</time>
   <energy>
    <i name="e_fr_energy">     -6.09260318 </i>
    <i name="e_wo_entrp">     -6.09260318 </i>
    <i name="e_0_energy">     -6.09260318 </i>
   </energy>
  </scstep>
  <scstep>
   <time name="dav">   18.45   18.50</time>
   <time name="total">   19.45   19.51</time>
   <energy>
    <i name="e_fr_energy">     -6.03175542 </i>
    <i name="e_wo_entrp">     -6.03175542 </i>
    <i name="e_0_energy">     -6.03175542 </i>
   </energy>
  </scstep>
  <scstep>
   <time name="dav">   17.68   17.72</time>
   <time name="total">   18.66   18.72</time>
   <energy>
    <i name="e_fr_energy">     -6.04542085 </i>
    <i name="e_wo_entrp">     -6.04542085 </i>
    <i name="e_0_energy">     -6.04542085 </i>
   </energy>
  </scstep>
  <scstep>
   <time name="dav">   18.15   18.20</time>
   <time name="total">   19.13   19.19</time>
   <energy>
    <i name="e_fr_energy">     -6.05220264 </i>
    <i name="e_wo_entrp">     -6.05220264 </i>
    <i name="e_0_energy">     -6.05220264 </i>
   </energy>
  </scstep>
  <scstep>
   <time name="dav">   17.91   17.96</time>
   <time name="total">   18.90   18.95</time>
   <energy>
    <i name="e_fr_energy">     -6.05503111 </i>
    <i name="e_wo_entrp">     -6.05503111 </i>
    <i name="e_0_energy">     -6.05503111 </i>
   </energy>
  </scstep>
  <scstep>
   <time name="dav">   18.02   18.07</time>
   <time name="total">   19.00   19.06</time>
   <energy>
    <i name="e_fr_energy">     -6.05608023 </i>
    <i name="e_wo_entrp">     -6.05608023 </i>
    <i name="e_0_energy">     -6.05608023 </i>
   </energy>
  </scstep>
  <scstep>
   <time name="dav">   18.08   18.13</time>
   <time name="total">   19.06   19.12</time>
   <energy>
    <i name="e_fr_energy">     -6.05651355 </i>
    <i name="e_wo_entrp">     -6.05651355 </i>
    <i name="e_0_energy">     -6.05651355 </i>
   </energy>
  </scstep>
  <scstep>
   <time name="dav">   18.06   18.10</time>
   <time name="total">   19.03   19.10</time>
   <energy>
    <i name="e_fr_energy">     -6.05669626 </i>
    <i name="e_wo_entrp">     -6.05669626 </i>
    <i name="e_0_energy">     -6.05669626 </i>
   </energy>
  </scstep>
  <scstep>
   <time name="dav">   17.88   17.92</time>
   <time name="total">   18.86   18.93</time>
   <energy>
    <i name="e_fr_energy">     -6.05677630 </i>
    <i name="e_wo_entrp">     -6.05677630 </i>
    <i name="e_0_energy">     -6.05677630 </i>
   </energy>
  </scstep>
  <scstep>
   <time name="dav">   18.01   18.06</time>
   <time name="total">   18.99   19.05</time>
   <energy>
    <i name="e_fr_energy">     -6.05681378 </i>
    <i name="e_wo_entrp">     -6.05681378 </i>
    <i name="e_0_energy">     -6.05681378 </i>
   </energy>
  </scstep>
  <scstep>
   <time name="dav">   17.84   17.88</time>
   <time name="total">   18.82   18.88</time>
   <energy>
    <i name="e_fr_energy">     -6.05683194 </i>
    <i name="e_wo_entrp">     -6.05683194 </i>
    <i name="e_0_energy">     -6.05683194 </i>
   </energy>
  </scstep>
  <scstep>
   <time name="dav">   18.17   18.21</time>
   <time name="total">   19.09   19.16</time>
   <energy>
    <i name="alphaZ">     48.32593859 </i>
    <i name="ewald">  -1031.85467228 </i>
    <i name="hartreedc">   -513.52811269 </i>
    <i name="XCdc">    -19.65688829 </i>
    <i name="pawpsdc">   3254.37680089 </i>
    <i name="pawaedc">  -3190.80174559 </i>
    <i name="eentropy">      0.00000000 </i>
    <i name="bandstr">   -101.94298269 </i>
    <i name="atom">   1514.28648168 </i>
    <i name="e_fr_energy">     -6.05684114 </i>
    <i name="e_wo_entrp">     -6.05684114 </i>
    <i name="e_0_energy">     -6.05684114 </i>
   </energy>
  </scstep>
  <structure>
   <crystal>
    <varray name="basis" >
     <v>       4.01975093       0.00000000       2.32080404 </v>
     <v>       1.33991663       3.78985854       2.32080404 </v>
     <v>       0.00000000       0.00000000       4.64161015 </v>
    </varray>
    <i name="volume">     70.71162285 </i>
    <varray name="rec_basis" >
     <v>       0.24877163      -0.08795401       0.00000000 </v>
     <v>       0.00000000       0.26386209       0.00000000 </v>
     <v>      -0.12438576      -0.08795400       0.21544248 </v>
    </varray>
   </crystal>
   <varray name="positions" >
    <v>       0.00000000       0.00000000       0.00000000 </v>
    <v>       0.25000000       0.25000000       0.25000000 </v>
   </varray>
  </structure>
  <varray name="forces" >
   <v>      -0.00000000      -0.00000000       0.00000000 </v>
   <v>       0.00000000       0.00000000      -0.00000000 </v>
  </varray>
  <energy>
   <i name="e_fr_energy">     -6.05684114 </i>
   <i name="e_wo_entrp">     -6.05684114 </i>
   <i name="e_0_energy">     -6.05684114 </i>
  </energy>
  <time name="totalsc">  242.39  243.29</time>
  <eigenvalues>
   <array>
    <dimension dim="1">band</dimension>
    <dimension dim="2">kpoint</dimension>
    <dimension dim="3">spin</dimension>
    <field>eigene</field>
    <field>occ</field>
    <set>
     <set comment="spin 1">
      <set comment="kpoint 1">
       <r>  -10.4336    1.0000 </r>
       <r>   -7.9893    1.0000 </r>
       <r>   -7.9893    1.0000 </r>
       <r>   -7.9893    1.0000 </r>
       <r>   -7.7526    1.0000 </r>
       <r>   -7.7526    1.0000 </r>
       <r>    1.4925    1.0000 </r>
       <r>    1.4925    1.0000 </r>
       <r>    1.4925    1.0000 </r>
       <r>    2.9280    0.0000 </r>
       <r>    7.0023    0.0000 </r>
       <r>    7.0023    0.0000 </r>
       <r>    7.0023    0.0000 </r>
       <r>    9.9381    0.0000 </r>
       <r>   11.7761    0.0000 </r>
       <r>   11.7761    0.0000 </r>
       <r>   12.5814    0.0000 </r>
       <r>   12.5814    0.0000 </r>
       <r>   12.5814    0.0000 </r>
       <r>   14.7613    0.0000 </r>
       <r>   22.5751    0.0000 </r>
       <r>   22.5751    0.0000 </r>
       <r>   22.5755    0.0000 </r>
       <r>   23.3354    0.0000 </r>
      </set>
      <set comment="kpoint 2">
       <r>  -10.3403    1.0000 </r>
       <r>   -7.9730    1.0000 </r>
       <r>   -7.9730    1.0000 </r>
       <r>   -7.8917    1.0000 </r>
       <r>   -7.7536    1.0000 </r>
       <r>   -7.7536    1.0000 </r>
       <r>   -0.2161    1.0000 </r>
       <r>    1.2693    1.0000 </r>
       <r>    1.2693    1.0000 </r>
       <r>    4.0284    0.0000 </r>
       <r>    7.0589    0.0000 </r>
       <r>    7.3467    0.0000 </r>
       <r>    7.3467    0.0000 </r>
       <r>   10.8798    0.0000 </r>
       <r>   10.8798    0.0000 </r>
       <r>   10.9207    0.0000 </r>
       <r>   12.2226    0.0000 </r>
       <r>   14.3928    0.0000 </r>
       <r>   14.3928    0.0000 </r>
       <r>   16.5109    0.0000 </r>
       <r>   19.7866    0.0000 </r>
       <r>   19.7866    0.0000 </r>
       <r>   20.1679    0.0000 </r>
       <r>   22.7492    0.0000 </r>
      </set>
      <set comment="kpoint 3">
       <r>  -10.1631    1.0000 </r>
       <r>   -7.9444    1.0000 </r>
       <r>   -7.9444    1.0000 </r>
       <r>   -7.7507    1.0000 </r>
       <r>   -7.7507    1.0000 </r>
       <r>   -7.5863    1.0000 </r>
       <r>   -2.1631    1.0000 </r>
       <r>    0.8877    1.0000 </r>
       <r>    0.8877    1.0000 </r>
       <r>    4.1835    0.0000 </r>
       <r>    7.6234    0.0000 </r>
       <r>    7.6234    0.0000 </r>
       <r>    8.5928    0.0000 </r>
       <r>   10.5027    0.0000 </r>
       <r>   11.3165    0.0000 </r>
       <r>   11.3165    0.0000 </r>
       <r>   14.7416    0.0000 </r>
       <r>   16.2940    0.0000 </r>
       <r>   16.2940    0.0000 </r>
       <r>   16.8219    0.0000 </r>
       <r>   17.3619    0.0000 </r>
       <r>   17.3619    0.0000 </r>
       <r>   19.7432    0.0000 </r>
       <r>   23.1643    0.0000 </r>
      </set>
      <set comment="kpoint 4">
       <r>  -10.0818    1.0000 </r>
       <r>   -7.9329    1.0000 </r>
       <r>   -7.9329    1.0000 </r>
       <r>   -7.7461    1.0000 </r>
       <r>   -7.7461    1.0000 </r>
       <r>   -7.3394    1.0000 </r>
       <r>   -3.0251    1.0000 </r>
       <r>    0.7199    1.0000 </r>
       <r>    0.7199    1.0000 </r>
       <r>    4.0758    0.0000 </r>
       <r>    7.5741    0.0000 </r>
       <r>    7.5741    0.0000 </r>
       <r>    9.4438    0.0000 </r>
       <r>   11.0948    0.0000 </r>
       <r>   12.8218    0.0000 </r>
       <r>   12.8218    0.0000 </r>
       <r>   13.7592    0.0000 </r>
       <r>   14.1267    0.0000 </r>
       <r>   14.1267    0.0000 </r>
       <r>   18.5416    0.0000 </r>
       <r>   20.0724    0.0000 </r>
       <r>   20.0724    0.0000 </r>
       <r>   20.6642    0.0000 </r>
       <r>   20.9710    0.0000 </r>
      </set>
      <set comment="kpoint 5">
       <r>  -10.3099    1.0000 </r>
       <r>   -7.9564    1.0000 </r>
       <r>   -7.9564    1.0000 </r>
       <r>   -7.8856    1.0000 </r>
       <r>   -7.7572    1.0000 </r>
       <r>   -7.7463    1.0000 </r>
       <r>   -0.2183    1.0000 </r>
       <r>    0.9000    1.0000 </r>
       <r>    0.9000    1.0000 </r>
       <r>    4.6530    0.0000 </r>
       <r>    6.0602    0.0000 </r>
       <r>    7.9586    0.0000 </r>
       <r>    7.9586    0.0000 </r>
       <r>    9.5422    0.0000 </r>
       <r>   11.7050    0.0000 </r>
       <r>   12.0328    0.0000 </r>
       <r>   13.3412    0.0000 </r>
       <r>   13.3412    0.0000 </r>
       <r>   13.8762    0.0000 </r>
       <r>   17.5468    0.0000 </r>
       <r>   19.5802    0.0000 </r>
       <r>   19.5802    0.0000 </r>
       <r>   20.1709    0.0000 </r>
       <r>   20.8280    0.0000 </r>
      </set>
      <set comment="kpoint 6">
       <r>  -10.1634    1.0000 </r>
       <r>   -7.9331    1.0000 </r>
       <r>   -7.9246    1.0000 </r>
       <r>   -7.7864    1.0000 </r>
       <r>   -7.7416    1.0000 </r>
       <r>   -7.6199    1.0000 </r>
       <r>   -1.6914    1.0000 </r>
       <r>    0.3941    1.0000 </r>
       <r>    0.4876    1.0000 </r>
       <r>    5.1256    0.0000 </r>
       <r>    6.3719    0.0000 </r>
       <r>    8.0730    0.0000 </r>
       <r>    8.5355    0.0000 </r>
       <r>   10.2952    0.0000 </r>
       <r>   12.2136    0.0000 </r>
       <r>   12.2377    0.0000 </r>
       <r>   14.2130    0.0000 </r>
       <r>   15.3045    0.0000 </r>
       <r>   16.3927    0.0000 </r>
       <r>   16.5019    0.0000 </r>
       <r>   16.6604    0.0000 </r>
       <r>   19.7509    0.0000 </r>
       <r>   20.3685    0.0000 </r>
       <r>   20.4818    0.0000 </r>
      </set>
      <set comment="kpoint 7">
       <r>  -10.0566    1.0000 </r>
       <r>   -7.9194    1.0000 </r>
       <r>   -7.9107    1.0000 </r>
       <r>   -7.7659    1.0000 </r>
       <r>   -7.7434    1.0000 </r>
       <r>   -7.3062    1.0000 </r>
       <r>   -2.8069    1.0000 </r>
       <r>   -0.1373    1.0000 </r>
       <r>    0.4009    1.0000 </r>
       <r>    5.0435    0.0000 </r>
       <r>    7.0526    0.0000 </r>
       <r>    8.3437    0.0000 </r>
       <r>    8.9471    0.0000 </r>
       <r>   11.2637    0.0000 </r>
       <r>   12.4790    0.0000 </r>
       <r>   12.9003    0.0000 </r>
       <r>   13.7174    0.0000 </r>
       <r>   14.4205    0.0000 </r>
       <r>   17.0370    0.0000 </r>
       <r>   17.8011    0.0000 </r>
       <r>   18.3719    0.0000 </r>
       <r>   19.5090    0.0000 </r>
       <r>   20.3024    0.0000 </r>
       <r>   20.8222    0.0000 </r>
      </set>
      <set comment="kpoint 8">
       <r>  -10.0824    1.0000 </r>
       <r>   -7.9233    1.0000 </r>
       <r>   -7.9206    1.0000 </r>
       <r>   -7.7558    1.0000 </r>
       <r>   -7.7542    1.0000 </r>
       <r>   -7.3890    1.0000 </r>
       <r>   -2.5382    1.0000 </r>
       <r>   -0.2751    1.0000 </r>
       <r>    0.6981    1.0000 </r>
       <r>    5.1060    0.0000 </r>
       <r>    7.2974    0.0000 </r>
       <r>    8.0522    0.0000 </r>
       <r>    8.6969    0.0000 </r>
       <r>   10.8922    0.0000 </r>
       <r>   11.6759    0.0000 </r>
       <r>   12.7892    0.0000 </r>
       <r>   13.9099    0.0000 </r>
       <r>   15.6811    0.0000 </r>
       <r>   16.8265    0.0000 </r>
       <r>   16.8636    0.0000 </r>
       <r>   18.0117    0.0000 </r>
       <r>   19.6843    0.0000 </r>
       <r>   20.6156    0.0000 </r>
       <r>   21.4196    0.0000 </r>
      </set>
      <set comment="kpoint 9">
       <r>  -10.2206    1.0000 </r>
       <r>   -7.9546    1.0000 </r>
       <r>   -7.9410    1.0000 </r>
       <r>   -7.7680    1.0000 </r>
       <r>   -7.7606    1.0000 </r>
       <r>   -7.7057    1.0000 </r>
       <r>   -1.2590    1.0000 </r>
       <r>    0.2684    1.0000 </r>
       <r>    1.1463    1.0000 </r>
       <r>    4.9093    0.0000 </r>
       <r>    7.0046    0.0000 </r>
       <r>    7.5977    0.0000 </r>
       <r>    7.8771    0.0000 </r>
       <r>   10.1007    0.0000 </r>
       <r>   11.4303    0.0000 </r>
       <r>   12.2773    0.0000 </r>
       <r>   13.2697    0.0000 </r>
       <r>   14.5884    0.0000 </r>
       <r>   16.3241    0.0000 </r>
       <r>   16.7443    0.0000 </r>
       <r>   18.6144    0.0000 </r>
       <r>   19.7035    0.0000 </r>
       <r>   19.8315    0.0000 </r>
       <r>   20.4112    0.0000 </r>
      </set>
      <set comment="kpoint 10">
       <r>  -10.0818    1.0000 </r>
       <r>   -7.8861    1.0000 </r>
       <r>   -7.8861    1.0000 </r>
       <r>   -7.8191    1.0000 </r>
       <r>   -7.7334    1.0000 </r>
       <r>   -7.4813    1.0000 </r>
       <r>   -2.0697    1.0000 </r>
       <r>   -0.0023    1.0000 </r>
       <r>   -0.0023    1.0000 </r>
       <r>    5.0478    0.0000 </r>
       <r>    5.4215    0.0000 </r>
       <r>    9.6731    0.0000 </r>
       <r>    9.9731    0.0000 </r>
       <r>    9.9731    0.0000 </r>
       <r>   12.7391    0.0000 </r>
       <r>   14.4663    0.0000 </r>
       <r>   15.5209    0.0000 </r>
       <r>   15.5209    0.0000 </r>
       <r>   15.7145    0.0000 </r>
       <r>   16.1983    0.0000 </r>
       <r>   16.1983    0.0000 </r>
       <r>   17.5774    0.0000 </r>
       <r>   17.5889    0.0000 </r>
       <r>   22.0561    0.0000 </r>
      </set>
      <set comment="kpoint 11">
       <r>  -10.0068    1.0000 </r>
       <r>   -7.8802    1.0000 </r>
       <r>   -7.8679    1.0000 </r>
       <r>   -7.8061    1.0000 </r>
       <r>   -7.7343    1.0000 </r>
       <r>   -7.2233    1.0000 </r>
       <r>   -2.7010    1.0000 </r>
       <r>   -0.6641    1.0000 </r>
       <r>   -0.1395    1.0000 </r>
       <r>    5.1139    0.0000 </r>
       <r>    6.0155    0.0000 </r>
       <r>    9.3623    0.0000 </r>
       <r>   10.1672    0.0000 </r>
       <r>   11.5575    0.0000 </r>
       <r>   13.1879    0.0000 </r>
       <r>   13.9105    0.0000 </r>
       <r>   14.6087    0.0000 </r>
       <r>   14.9485    0.0000 </r>
       <r>   16.8590    0.0000 </r>
       <r>   17.3266    0.0000 </r>
       <r>   17.7791    0.0000 </r>
       <r>   18.0692    0.0000 </r>
       <r>   18.8152    0.0000 </r>
       <r>   19.5876    0.0000 </r>
      </set>
      <set comment="kpoint 12">
       <r>  -10.0078    1.0000 </r>
       <r>   -7.8973    1.0000 </r>
       <r>   -7.8844    1.0000 </r>
       <r>   -7.7758    1.0000 </r>
       <r>   -7.7486    1.0000 </r>
       <r>   -7.1714    1.0000 </r>
       <r>   -2.7162    1.0000 </r>
       <r>   -1.1345    1.0000 </r>
       <r>    0.1725    1.0000 </r>
       <r>    5.3509    0.0000 </r>
       <r>    7.4850    0.0000 </r>
       <r>    9.3013    0.0000 </r>
       <r>    9.3140    0.0000 </r>
       <r>    9.9057    0.0000 </r>
       <r>   11.4256    0.0000 </r>
       <r>   14.6872    0.0000 </r>
       <r>   15.2066    0.0000 </r>
       <r>   16.0847    0.0000 </r>
       <r>   16.6633    0.0000 </r>
       <r>   16.8929    0.0000 </r>
       <r>   18.1472    0.0000 </r>
       <r>   19.7594    0.0000 </r>
       <r>   20.0276    0.0000 </r>
       <r>   20.2687    0.0000 </r>
      </set>
      <set comment="kpoint 13">
       <r>   -9.9823    1.0000 </r>
       <r>   -7.8484    1.0000 </r>
       <r>   -7.8484    1.0000 </r>
       <r>   -7.8334    1.0000 </r>
       <r>   -7.7270    1.0000 </r>
       <r>   -7.1690    1.0000 </r>
       <r>   -2.9209    1.0000 </r>
       <r>   -0.3764    1.0000 </r>
       <r>   -0.3764    1.0000 </r>
       <r>    4.8558    0.0000 </r>
       <r>    4.9763    0.0000 </r>
       <r>   11.2568    0.0000 </r>
       <r>   11.6769    0.0000 </r>
       <r>   11.6769    0.0000 </r>
       <r>   13.3304    0.0000 </r>
       <r>   14.0138    0.0000 </r>
       <r>   14.0138    0.0000 </r>
       <r>   14.3590    0.0000 </r>
       <r>   16.3504    0.0000 </r>
       <r>   17.8766    0.0000 </r>
       <r>   18.3138    0.0000 </r>
       <r>   18.3138    0.0000 </r>
       <r>   18.6478    0.0000 </r>
       <r>   18.8048    0.0000 </r>
      </set>
      <set comment="kpoint 14">
       <r>  -10.0567    1.0000 </r>
       <r>   -7.9056    1.0000 </r>
       <r>   -7.8971    1.0000 </r>
       <r>   -7.7852    1.0000 </r>
       <r>   -7.7421    1.0000 </r>
       <r>   -7.3571    1.0000 </r>
       <r>   -2.3728    1.0000 </r>
       <r>   -0.5741    1.0000 </r>
       <r>    0.1876    1.0000 </r>
       <r>    5.8909    0.0000 </r>
       <r>    6.4391    0.0000 </r>
       <r>    7.6490    0.0000 </r>
       <r>    9.8484    0.0000 </r>
       <r>   10.6095    0.0000 </r>
       <r>   12.7480    0.0000 </r>
       <r>   13.9276    0.0000 </r>
       <r>   14.0582    0.0000 </r>
       <r>   14.7264    0.0000 </r>
       <r>   16.4344    0.0000 </r>
       <r>   17.4326    0.0000 </r>
       <r>   17.8729    0.0000 </r>
       <r>   18.8337    0.0000 </r>
       <r>   20.3875    0.0000 </r>
       <r>   20.9141    0.0000 </r>
      </set>
      <set comment="kpoint 15">
       <r>  -10.0078    1.0000 </r>
       <r>   -7.8977    1.0000 </r>
       <r>   -7.8848    1.0000 </r>
       <r>   -7.7738    1.0000 </r>
       <r>   -7.7497    1.0000 </r>
       <r>   -7.1710    1.0000 </r>
       <r>   -2.7549    1.0000 </r>
       <r>   -0.9021    1.0000 </r>
       <r>   -0.0971    1.0000 </r>
       <r>    6.0256    0.0000 </r>
       <r>    6.9384    0.0000 </r>
       <r>    8.1393    0.0000 </r>
       <r>    9.6750    0.0000 </r>
       <r>   10.3869    0.0000 </r>
       <r>   12.9420    0.0000 </r>
       <r>   13.6844    0.0000 </r>
       <r>   14.1357    0.0000 </r>
       <r>   16.4370    0.0000 </r>
       <r>   16.9352    0.0000 </r>
       <r>   17.1385    0.0000 </r>
       <r>   18.1194    0.0000 </r>
       <r>   19.0444    0.0000 </r>
       <r>   20.1586    0.0000 </r>
       <r>   20.7604    0.0000 </r>
      </set>
      <set comment="kpoint 16">
       <r>   -9.9837    1.0000 </r>
       <r>   -7.8753    1.0000 </r>
       <r>   -7.8689    1.0000 </r>
       <r>   -7.7938    1.0000 </r>
       <r>   -7.7415    1.0000 </r>
       <r>   -7.1167    1.0000 </r>
       <r>   -2.8066    1.0000 </r>
       <r>   -0.7429    1.0000 </r>
       <r>   -0.6096    1.0000 </r>
       <r>    6.0535    0.0000 </r>
       <r>    6.0556    0.0000 </r>
       <r>    9.0749    0.0000 </r>
       <r>    9.3711    0.0000 </r>
       <r>   12.1002    0.0000 </r>
       <r>   13.5755    0.0000 </r>
       <r>   13.8219    0.0000 </r>
       <r>   13.8862    0.0000 </r>
       <r>   16.3466    0.0000 </r>
       <r>   17.2882    0.0000 </r>
       <r>   17.7176    0.0000 </r>
       <r>   17.7603    0.0000 </r>
       <r>   17.8925    0.0000 </r>
       <r>   18.0995    0.0000 </r>
       <r>   20.8813    0.0000 </r>
      </set>
     </set>
     <set comment="spin 2">
      <set comment="kpoint 1">
       <r>  -10.4344    1.0000 </r>
       <r>   -7.9896    1.0000 </r>
       <r>   -7.9896    1.0000 </r>
       <r>   -7.9896    1.0000 </r>
       <r>   -7.7529    1.0000 </r>
       <r>   -7.7529    1.0000 </r>
       <r>    1.4917    1.0000 </r>
       <r>    1.4917    1.0000 </r>
       <r>    1.4917    1.0000 </r>
       <r>    2.9270    0.0000 </r>
       <r>    7.0012    0.0000 </r>
       <r>    7.0012    0.0000 </r>
       <r>    7.0012    0.0000 </r>
       <r>    9.9368    0.0000 </r>
       <r>   11.7748    0.0000 </r>
       <r>   11.7748    0.0000 </r>
       <r>   12.5797    0.0000 </r>
       <r>   12.5797    0.0000 </r>
       <r>   12.5798    0.0000 </r>
       <r>   14.7601    0.0000 </r>
       <r>   22.5739    0.0000 </r>
       <r>   22.5739    0.0000 </r>
       <r>   22.5739    0.0000 </r>
       <r>   23.3345    0.0000 </r>
      </set>
      <set comment="kpoint 2">
       <r>  -10.3411    1.0000 </r>
       <r>   -7.9733    1.0000 </r>
       <r>   -7.9733    1.0000 </r>
       <r>   -7.8921    1.0000 </r>
       <r>   -7.7539    1.0000 </r>
       <r>   -7.7539    1.0000 </r>
       <r>   -0.2170    1.0000 </r>
       <r>    1.2685    1.0000 </r>
       <r>    1.2685    1.0000 </r>
       <r>    4.0274    0.0000 </r>
       <r>    7.0578    0.0000 </r>
       <r>    7.3455    0.0000 </r>
       <r>    7.3455    0.0000 </r>
       <r>   10.8783    0.0000 </r>
       <r>   10.8783    0.0000 </r>
       <r>   10.9193    0.0000 </r>
       <r>   12.2212    0.0000 </r>
       <r>   14.3913    0.0000 </r>
       <r>   14.3913    0.0000 </r>
       <r>   16.5096    0.0000 </r>
       <r>   19.7854    0.0000 </r>
       <r>   19.7854    0.0000 </r>
       <r>   20.1668    0.0000 </r>
       <r>   22.7481    0.0000 </r>
      </set>
      <set comment="kpoint 3">
       <r>  -10.1638    1.0000 </r>
       <r>   -7.9447    1.0000 </r>
       <r>   -7.9447    1.0000 </r>
       <r>   -7.7510    1.0000 </r>
       <r>   -7.7510    1.0000 </r>
       <r>   -7.5867    1.0000 </r>
       <r>   -2.1641    1.0000 </r>
       <r>    0.8869    1.0000 </r>
       <r>    0.8869    1.0000 </r>
       <r>    4.1824    0.0000 </r>
       <r>    7.6222    0.0000 </r>
       <r>    7.6222    0.0000 </r>
       <r>    8.5918    0.0000 </r>
       <r>   10.5012    0.0000 </r>
       <r>   11.3151    0.0000 </r>
       <r>   11.3151    0.0000 </r>
       <r>   14.7405    0.0000 </r>
       <r>   16.2927    0.0000 </r>
       <r>   16.2927    0.0000 </r>
       <r>   16.8207    0.0000 </r>
       <r>   17.3605    0.0000 </r>
       <r>   17.3605    0.0000 </r>
       <r>   19.7419    0.0000 </r>
       <r>   23.1632    0.0000 </r>
      </set>
      <set comment="kpoint 4">
       <r>  -10.0825    1.0000 </r>
       <r>   -7.9332    1.0000 </r>
       <r>   -7.9332    1.0000 </r>
       <r>   -7.7464    1.0000 </r>
       <r>   -7.7464    1.0000 </r>
       <r>   -7.3398    1.0000 </r>
       <r>   -3.0261    1.0000 </r>
       <r>    0.7190    1.0000 </r>
       <r>    0.7190    1.0000 </r>
       <r>    4.0747    0.0000 </r>
       <r>    7.5729    0.0000 </r>
       <r>    7.5729    0.0000 </r>
       <r>    9.4426    0.0000 </r>
       <r>   11.0935    0.0000 </r>
       <r>   12.8205    0.0000 </r>
       <r>   12.8205    0.0000 </r>
       <r>   13.7581    0.0000 </r>
       <r>   14.1254    0.0000 </r>
       <r>   14.1254    0.0000 </r>
       <r>   18.5404    0.0000 </r>
       <r>   20.0710    0.0000 </r>
       <r>   20.0710    0.0000 </r>
       <r>   20.6630    0.0000 </r>
       <r>   20.9698    0.0000 </r>
      </set>
      <set comment="kpoint 5">
       <r>  -10.3107    1.0000 </r>
       <r>   -7.9568    1.0000 </r>
       <r>   -7.9568    1.0000 </r>
       <r>   -7.8859    1.0000 </r>
       <r>   -7.7575    1.0000 </r>
       <r>   -7.7465    1.0000 </r>
       <r>   -0.2191    1.0000 </r>
       <r>    0.8991    1.0000 </r>
       <r>    0.8991    1.0000 </r>
       <r>    4.6522    0.0000 </r>
       <r>    6.0589    0.0000 </r>
       <r>    7.9574    0.0000 </r>
       <r>    7.9574    0.0000 </r>
       <r>    9.5406    0.0000 </r>
       <r>   11.7038    0.0000 </r>
       <r>   12.0316    0.0000 </r>
       <r>   13.3396    0.0000 </r>
       <r>   13.3396    0.0000 </r>
       <r>   13.8749    0.0000 </r>
       <r>   17.5455    0.0000 </r>
       <r>   19.5792    0.0000 </r>
       <r>   19.5792    0.0000 </r>
       <r>   20.1696    0.0000 </r>
       <r>   20.8268    0.0000 </r>
      </set>
      <set comment="kpoint 6">
       <r>  -10.1642    1.0000 </r>
       <r>   -7.9335    1.0000 </r>
       <r>   -7.9249    1.0000 </r>
       <r>   -7.7867    1.0000 </r>
       <r>   -7.7419    1.0000 </r>
       <r>   -7.6202    1.0000 </r>
       <r>   -1.6923    1.0000 </r>
       <r>    0.3932    1.0000 </r>
       <r>    0.4867    1.0000 </r>
       <r>    5.1246    0.0000 </r>
       <r>    6.3707    0.0000 </r>
       <r>    8.0717    0.0000 </r>
       <r>    8.5344    0.0000 </r>
       <r>   10.2940    0.0000 </r>
       <r>   12.2123    0.0000 </r>
       <r>   12.2363    0.0000 </r>
       <r>   14.2118    0.0000 </r>
       <r>   15.3030    0.0000 </r>
       <r>   16.3914    0.0000 </r>
       <r>   16.5007    0.0000 </r>
       <r>   16.6591    0.0000 </r>
       <r>   19.7498    0.0000 </r>
       <r>   20.3674    0.0000 </r>
       <r>   20.4805    0.0000 </r>
      </set>
      <set comment="kpoint 7">
       <r>  -10.0573    1.0000 </r>
       <r>   -7.9197    1.0000 </r>
       <r>   -7.9110    1.0000 </r>
       <r>   -7.7662    1.0000 </r>
       <r>   -7.7436    1.0000 </r>
       <r>   -7.3066    1.0000 </r>
       <r>   -2.8079    1.0000 </r>
       <r>   -0.1382    1.0000 </r>
       <r>    0.4000    1.0000 </r>
       <r>    5.0425    0.0000 </r>
       <r>    7.0514    0.0000 </r>
       <r>    8.3425    0.0000 </r>
       <r>    8.9459    0.0000 </r>
       <r>   11.2624    0.0000 </r>
       <r>   12.4777    0.0000 </r>
       <r>   12.8991    0.0000 </r>
       <r>   13.7163    0.0000 </r>
       <r>   14.4192    0.0000 </r>
       <r>   17.0358    0.0000 </r>
       <r>   17.8000    0.0000 </r>
       <r>   18.3704    0.0000 </r>
       <r>   19.5075    0.0000 </r>
       <r>   20.3011    0.0000 </r>
       <r>   20.8211    0.0000 </r>
      </set>
      <set comment="kpoint 8">
       <r>  -10.0831    1.0000 </r>
       <r>   -7.9236    1.0000 </r>
       <r>   -7.9209    1.0000 </r>
       <r>   -7.7561    1.0000 </r>
       <r>   -7.7545    1.0000 </r>
       <r>   -7.3893    1.0000 </r>
       <r>   -2.5392    1.0000 </r>
       <r>   -0.2761    1.0000 </r>
       <r>    0.6972    1.0000 </r>
       <r>    5.1050    0.0000 </r>
       <r>    7.2961    0.0000 </r>
       <r>    8.0510    0.0000 </r>
       <r>    8.6958    0.0000 </r>
       <r>   10.8908    0.0000 </r>
       <r>   11.6745    0.0000 </r>
       <r>   12.7879    0.0000 </r>
       <r>   13.9089    0.0000 </r>
       <r>   15.6799    0.0000 </r>
       <r>   16.8253    0.0000 </r>
       <r>   16.8624    0.0000 </r>
       <r>   18.0104    0.0000 </r>
       <r>   19.6830    0.0000 </r>
       <r>   20.6145    0.0000 </r>
       <r>   21.4184    0.0000 </r>
      </set>
      <set comment="kpoint 9">
       <r>  -10.2213    1.0000 </r>
       <r>   -7.9549    1.0000 </r>
       <r>   -7.9414    1.0000 </r>
       <r>   -7.7683    1.0000 </r>
       <r>   -7.7609    1.0000 </r>
       <r>   -7.7060    1.0000 </r>
       <r>   -1.2599    1.0000 </r>
       <r>    0.2675    1.0000 </r>
       <r>    1.1455    1.0000 </r>
       <r>    4.9084    0.0000 </r>
       <r>    7.0034    0.0000 </r>
       <r>    7.5966    0.0000 </r>
       <r>    7.8759    0.0000 </r>
       <r>   10.0993    0.0000 </r>
       <r>   11.4289    0.0000 </r>
       <r>   12.2760    0.0000 </r>
       <r>   13.2684    0.0000 </r>
       <r>   14.5869    0.0000 </r>
       <r>   16.3228    0.0000 </r>
       <r>   16.7429    0.0000 </r>
       <r>   18.6131    0.0000 </r>
       <r>   19.7024    0.0000 </r>
       <r>   19.8304    0.0000 </r>
       <r>   20.4100    0.0000 </r>
      </set>
      <set comment="kpoint 10">
       <r>  -10.0825    1.0000 </r>
       <r>   -7.8864    1.0000 </r>
       <r>   -7.8864    1.0000 </r>
       <r>   -7.8194    1.0000 </r>
       <r>   -7.7337    1.0000 </r>
       <r>   -7.4817    1.0000 </r>
       <r>   -2.0706    1.0000 </r>
       <r>   -0.0033    1.0000 </r>
       <r>   -0.0033    1.0000 </r>
       <r>    5.0466    0.0000 </r>
       <r>    5.4203    0.0000 </r>
       <r>    9.6718    0.0000 </r>
       <r>    9.9721    0.0000 </r>
       <r>    9.9721    0.0000 </r>
       <r>   12.7378    0.0000 </r>
       <r>   14.4653    0.0000 </r>
       <r>   15.5193    0.0000 </r>
       <r>   15.5193    0.0000 </r>
       <r>   15.7132    0.0000 </r>
       <r>   16.1971    0.0000 </r>
       <r>   16.1971    0.0000 </r>
       <r>   17.5761    0.0000 </r>
       <r>   17.5876    0.0000 </r>
       <r>   22.0550    0.0000 </r>
      </set>
      <set comment="kpoint 11">
       <r>  -10.0075    1.0000 </r>
       <r>   -7.8805    1.0000 </r>
       <r>   -7.8682    1.0000 </r>
       <r>   -7.8064    1.0000 </r>
       <r>   -7.7346    1.0000 </r>
       <r>   -7.2237    1.0000 </r>
       <r>   -2.7020    1.0000 </r>
       <r>   -0.6651    1.0000 </r>
       <r>   -0.1404    1.0000 </r>
       <r>    5.1127    0.0000 </r>
       <r>    6.0144    0.0000 </r>
       <r>    9.3611    0.0000 </r>
       <r>   10.1661    0.0000 </r>
       <r>   11.5563    0.0000 </r>
       <r>   13.1868    0.0000 </r>
       <r>   13.9095    0.0000 </r>
       <r>   14.6074    0.0000 </r>
       <r>   14.9472    0.0000 </r>
       <r>   16.8579    0.0000 </r>
       <r>   17.3252    0.0000 </r>
       <r>   17.7779    0.0000 </r>
       <r>   18.0678    0.0000 </r>
       <r>   18.8138    0.0000 </r>
       <r>   19.5864    0.0000 </r>
      </set>
      <set comment="kpoint 12">
       <r>  -10.0085    1.0000 </r>
       <r>   -7.8976    1.0000 </r>
       <r>   -7.8847    1.0000 </r>
       <r>   -7.7761    1.0000 </r>
       <r>   -7.7489    1.0000 </r>
       <r>   -7.1718    1.0000 </r>
       <r>   -2.7172    1.0000 </r>
       <r>   -1.1356    1.0000 </r>
       <r>    0.1716    1.0000 </r>
       <r>    5.3498    0.0000 </r>
       <r>    7.4840    0.0000 </r>
       <r>    9.3002    0.0000 </r>
       <r>    9.3127    0.0000 </r>
       <r>    9.9044    0.0000 </r>
       <r>   11.4243    0.0000 </r>
       <r>   14.6859    0.0000 </r>
       <r>   15.2052    0.0000 </r>
       <r>   16.0837    0.0000 </r>
       <r>   16.6621    0.0000 </r>
       <r>   16.8918    0.0000 </r>
       <r>   18.1460    0.0000 </r>
       <r>   19.7583    0.0000 </r>
       <r>   20.0262    0.0000 </r>
       <r>   20.2674    0.0000 </r>
      </set>
      <set comment="kpoint 13">
       <r>   -9.9830    1.0000 </r>
       <r>   -7.8487    1.0000 </r>
       <r>   -7.8487    1.0000 </r>
       <r>   -7.8337    1.0000 </r>
       <r>   -7.7273    1.0000 </r>
       <r>   -7.1694    1.0000 </r>
       <r>   -2.9219    1.0000 </r>
       <r>   -0.3774    1.0000 </r>
       <r>   -0.3774    1.0000 </r>
       <r>    4.8545    0.0000 </r>
       <r>    4.9752    0.0000 </r>
       <r>   11.2556    0.0000 </r>
       <r>   11.6759    0.0000 </r>
       <r>   11.6759    0.0000 </r>
       <r>   13.3292    0.0000 </r>
       <r>   14.0126    0.0000 </r>
       <r>   14.0126    0.0000 </r>
       <r>   14.3579    0.0000 </r>
       <r>   16.3490    0.0000 </r>
       <r>   17.8758    0.0000 </r>
       <r>   18.3124    0.0000 </r>
       <r>   18.3124    0.0000 </r>
       <r>   18.6463    0.0000 </r>
       <r>   18.8035    0.0000 </r>
      </set>
      <set comment="kpoint 14">
       <r>  -10.0574    1.0000 </r>
       <r>   -7.9059    1.0000 </r>
       <r>   -7.8974    1.0000 </r>
       <r>   -7.7855    1.0000 </r>
       <r>   -7.7424    1.0000 </r>
       <r>   -7.3575    1.0000 </r>
       <r>   -2.3737    1.0000 </r>
       <r>   -0.5751    1.0000 </r>
       <r>    0.1867    1.0000 </r>
       <r>    5.8900    0.0000 </r>
       <r>    6.4379    0.0000 </r>
       <r>    7.6476    0.0000 </r>
       <r>    9.8473    0.0000 </r>
       <r>   10.6082    0.0000 </r>
       <r>   12.7468    0.0000 </r>
       <r>   13.9265    0.0000 </r>
       <r>   14.0569    0.0000 </r>
       <r>   14.7249    0.0000 </r>
       <r>   16.4333    0.0000 </r>
       <r>   17.4313    0.0000 </r>
       <r>   17.8716    0.0000 </r>
       <r>   18.8323    0.0000 </r>
       <r>   20.3864    0.0000 </r>
       <r>   20.9125    0.0000 </r>
      </set>
      <set comment="kpoint 15">
       <r>  -10.0085    1.0000 </r>
       <r>   -7.8980    1.0000 </r>
       <r>   -7.8851    1.0000 </r>
       <r>   -7.7741    1.0000 </r>
       <r>   -7.7500    1.0000 </r>
       <r>   -7.1714    1.0000 </r>
       <r>   -2.7559    1.0000 </r>
       <r>   -0.9031    1.0000 </r>
       <r>   -0.0980    1.0000 </r>
       <r>    6.0246    0.0000 </r>
       <r>    6.9371    0.0000 </r>
       <r>    8.1382    0.0000 </r>
       <r>    9.6736    0.0000 </r>
       <r>   10.3858    0.0000 </r>
       <r>   12.9407    0.0000 </r>
       <r>   13.6833    0.0000 </r>
       <r>   14.1344    0.0000 </r>
       <r>   16.4359    0.0000 </r>
       <r>   16.9340    0.0000 </r>
       <r>   17.1373    0.0000 </r>
       <r>   18.1180    0.0000 </r>
       <r>   19.0432    0.0000 </r>
       <r>   20.1573    0.0000 </r>
       <r>   20.7593    0.0000 </r>
      </set>
      <set comment="kpoint 16">
       <r>   -9.9844    1.0000 </r>
       <r>   -7.8756    1.0000 </r>
       <r>   -7.8692    1.0000 </r>
       <r>   -7.7941    1.0000 </r>
       <r>   -7.7418    1.0000 </r>
       <r>   -7.1171    1.0000 </r>
       <r>   -2.8075    1.0000 </r>
       <r>   -0.7439    1.0000 </r>
       <r>   -0.6106    1.0000 </r>
       <r>    6.0523    0.0000 </r>
       <r>    6.0546    0.0000 </r>
       <r>    9.0737    0.0000 </r>
       <r>    9.3698    0.0000 </r>
       <r>   12.0991    0.0000 </r>
       <r>   13.5745    0.0000 </r>
       <r>   13.8205    0.0000 </r>
       <r>   13.8851    0.0000 </r>
       <r>   16.3456    0.0000 </r>
       <r>   17.2870    0.0000 </r>
       <r>   17.7162    0.0000 </r>
       <r>   17.7589    0.0000 </r>
       <r>   17.8912    0.0000 </r>
       <r>   18.0982    0.0000 </r>
       <r>   20.8803    0.0000 </r>
      </set>
     </set>
    </set>
   </array>
  </eigenvalues>
  <separator name="orbital magnetization" >
   <v name="MAGDIPOLOUT">      0.00000000      0.00000000      0.00000000</v>
  </separator>
  <dos>
   <i name="efermi">      1.55614419 </i>
   <total>
    <array>
     <dimension dim="1">gridpoints</dimension>
     <dimension dim="2">spin</dimension>
     <field>energy</field>
     <field>total</field>
     <field>integrated</field>
     <set>
      <set comment="spin 1">
       <r>   -12.4344     0.0000     0.0000 </r>
       <r>   -12.3085     0.0000     0.0000 </r>
       <r>   -12.1826     0.0000     0.0000 </r>
       <r>   -12.0567     0.0000     0.0000 </r>
       <r>   -11.9308     0.0000     0.0000 </r>
       <r>   -11.8049     0.0000     0.0000 </r>
       <r>   -11.6790     0.0000     0.0000 </r>
       <r>   -11.5531     0.0000     0.0000 </r>
       <r>   -11.4272     0.0000     0.0000 </r>
       <r>   -11.3013     0.0000     0.0000 </r>
       <r>   -11.1754     0.0000     0.0000 </r>
       <r>   -11.0495     0.0000     0.0000 </r>
       <r>   -10.9237     0.0000     0.0000 </r>
       <r>   -10.7978     0.0000     0.0000 </r>
       <r>   -10.6719     0.0000     0.0000 </r>
       <r>   -10.5460     0.0000     0.0000 </r>
       <r>   -10.4201     0.0095     0.0000 </r>
       <r>   -10.2942     0.6062     0.0376 </r>
       <r>   -10.1683     1.6313     0.1616 </r>
       <r>   -10.0424     7.4595     0.6146 </r>
       <r>    -9.9165     1.0296     1.0000 </r>
       <r>    -9.7906     0.0000     1.0000 </r>
       <r>    -9.6647     0.0000     1.0000 </r>
       <r>    -9.5388     0.0000     1.0000 </r>
       <r>    -9.4129     0.0000     1.0000 </r>
       <r>    -9.2870     0.0000     1.0000 </r>
       <r>    -9.1611     0.0000     1.0000 </r>
       <r>    -9.0352     0.0000     1.0000 </r>
       <r>    -8.9093     0.0000     1.0000 </r>
       <r>    -8.7834     0.0000     1.0000 </r>
       <r>    -8.6575     0.0000     1.0000 </r>
       <r>    -8.5316     0.0000     1.0000 </r>
       <r>    -8.4057     0.0000     1.0000 </r>
       <r>    -8.2798     0.0000     1.0000 </r>
       <r>    -8.1539     0.0000     1.0000 </r>
       <r>    -8.0280     0.0000     1.0000 </r>
       <r>    -7.9021    32.2518     2.1957 </r>
       <r>    -7.7762    29.7396     3.5949 </r>
       <r>    -7.6503    10.4484     5.1212 </r>
       <r>    -7.5244     0.9800     5.2368 </r>
       <r>    -7.3985     1.3640     5.3829 </r>
       <r>    -7.2726     2.5664     5.6535 </r>
       <r>    -7.1467     1.5378     5.9790 </r>
       <r>    -7.0208     0.0000     6.0000 </r>
       <r>    -6.8949     0.0000     6.0000 </r>
       <r>    -6.7690     0.0000     6.0000 </r>
       <r>    -6.6431     0.0000     6.0000 </r>
       <r>    -6.5172     0.0000     6.0000 </r>
       <r>    -6.3913     0.0000     6.0000 </r>
       <r>    -6.2654     0.0000     6.0000 </r>
       <r>    -6.1395     0.0000     6.0000 </r>
       <r>    -6.0136     0.0000     6.0000 </r>
       <r>    -5.8877     0.0000     6.0000 </r>
       <r>    -5.7618     0.0000     6.0000 </r>
       <r>    -5.6359     0.0000     6.0000 </r>
       <r>    -5.5100     0.0000     6.0000 </r>
       <r>    -5.3841     0.0000     6.0000 </r>
       <r>    -5.2582     0.0000     6.0000 </r>
       <r>    -5.1323     0.0000     6.0000 </r>
       <r>    -5.0064     0.0000     6.0000 </r>
       <r>    -4.8805     0.0000     6.0000 </r>
       <r>    -4.7546     0.0000     6.0000 </r>
       <r>    -4.6287     0.0000     6.0000 </r>
       <r>    -4.5028     0.0000     6.0000 </r>
       <r>    -4.3769     0.0000     6.0000 </r>
       <r>    -4.2510     0.0000     6.0000 </r>
       <r>    -4.1251     0.0000     6.0000 </r>
       <r>    -3.9992     0.0000     6.0000 </r>
       <r>    -3.8733     0.0000     6.0000 </r>
       <r>    -3.7474     0.0000     6.0000 </r>
       <r>    -3.6215     0.0000     6.0000 </r>
       <r>    -3.4956     0.0000     6.0000 </r>
       <r>    -3.3697     0.0000     6.0000 </r>
       <r>    -3.2438     0.0000     6.0000 </r>
       <r>    -3.1179     0.0000     6.0000 </r>
       <r>    -2.9920     0.0066     6.0001 </r>
       <r>    -2.8661     0.2164     6.0092 </r>
       <r>    -2.7402     4.0451     6.1965 </r>
       <r>    -2.6143     1.2596     6.4478 </r>
       <r>    -2.4884     0.7006     6.5728 </r>
       <r>    -2.3625     0.4165     6.6374 </r>
       <r>    -2.2366     0.3709     6.6869 </r>
       <r>    -2.1107     0.3308     6.7310 </r>
       <r>    -1.9848     0.2921     6.7702 </r>
       <r>    -1.8589     0.2506     6.8044 </r>
       <r>    -1.7330     0.2060     6.8332 </r>
       <r>    -1.6071     0.1639     6.8564 </r>
       <r>    -1.4812     0.1329     6.8749 </r>
       <r>    -1.3553     0.1125     6.8903 </r>
       <r>    -1.2294     0.1024     6.9037 </r>
       <r>    -1.1035     0.1057     6.9163 </r>
       <r>    -0.9776     0.3452     6.9412 </r>
       <r>    -0.8517     0.9109     7.0178 </r>
       <r>    -0.7258     0.9648     7.1410 </r>
       <r>    -0.5999     0.8803     7.2790 </r>
       <r>    -0.4740     0.8440     7.3838 </r>
       <r>    -0.3481     1.0186     7.4995 </r>
       <r>    -0.2222     1.1894     7.6397 </r>
       <r>    -0.0963     1.2283     7.7919 </r>
       <r>     0.0296     1.2437     7.9481 </r>
       <r>     0.1555     1.2104     8.1031 </r>
       <r>     0.2814     1.1730     8.2529 </r>
       <r>     0.4073     1.1767     8.4005 </r>
       <r>     0.5332     1.1496     8.5477 </r>
       <r>     0.6591     1.0107     8.6851 </r>
       <r>     0.7850     0.6770     8.7934 </r>
       <r>     0.9109     0.4703     8.8632 </r>
       <r>     1.0368     0.3713     8.9158 </r>
       <r>     1.1627     0.3096     8.9584 </r>
       <r>     1.2886     0.1570     8.9893 </r>
       <r>     1.4145     0.0230     8.9994 </r>
       <r>     1.5404     0.0000     9.0000 </r>
       <r>     1.6663     0.0000     9.0000 </r>
       <r>     1.7922     0.0000     9.0000 </r>
       <r>     1.9181     0.0000     9.0000 </r>
       <r>     2.0440     0.0000     9.0000 </r>
       <r>     2.1699     0.0000     9.0000 </r>
       <r>     2.2958     0.0000     9.0000 </r>
       <r>     2.4217     0.0000     9.0000 </r>
       <r>     2.5476     0.0000     9.0000 </r>
       <r>     2.6735     0.0000     9.0000 </r>
       <r>     2.7994     0.0000     9.0000 </r>
       <r>     2.9253     0.0000     9.0000 </r>
       <r>     3.0512     0.0004     9.0000 </r>
       <r>     3.1771     0.0017     9.0001 </r>
       <r>     3.3030     0.0037     9.0005 </r>
       <r>     3.4289     0.0067     9.0011 </r>
       <r>     3.5548     0.0105     9.0022 </r>
       <r>     3.6807     0.0151     9.0038 </r>
       <r>     3.8066     0.0205     9.0060 </r>
       <r>     3.9325     0.0268     9.0090 </r>
       <r>     4.0584     0.0358     9.0128 </r>
       <r>     4.1843     0.0789     9.0195 </r>
       <r>     4.3102     0.1489     9.0338 </r>
       <r>     4.4361     0.2143     9.0567 </r>
       <r>     4.5620     0.2752     9.0876 </r>
       <r>     4.6879     0.3324     9.1259 </r>
       <r>     4.8138     0.3992     9.1718 </r>
       <r>     4.9397     0.5210     9.2281 </r>
       <r>     5.0656     0.8337     9.3111 </r>
       <r>     5.1915     1.0781     9.4380 </r>
       <r>     5.3174     1.0185     9.5716 </r>
       <r>     5.4433     0.8576     9.6897 </r>
       <r>     5.5692     0.7249     9.7889 </r>
       <r>     5.6951     0.6285     9.8738 </r>
       <r>     5.8210     0.5685     9.9487 </r>
       <r>     5.9469     0.5767    10.0190 </r>
       <r>     6.0728     0.5095    10.1088 </r>
       <r>     6.1987     0.4194    10.1579 </r>
       <r>     6.3246     0.4869    10.2149 </r>
       <r>     6.4505     0.5829    10.2821 </r>
       <r>     6.5764     0.6499    10.3597 </r>
       <r>     6.7023     0.7151    10.4457 </r>
       <r>     6.8282     0.7783    10.5397 </r>
       <r>     6.9541     0.8415    10.6416 </r>
       <r>     7.0800     1.0009    10.7628 </r>
       <r>     7.2059     0.8016    10.8769 </r>
       <r>     7.3318     0.5415    10.9620 </r>
       <r>     7.4577     0.3858    11.0183 </r>
       <r>     7.5836     0.3735    11.0656 </r>
       <r>     7.7095     0.6736    11.1284 </r>
       <r>     7.8354     0.9527    11.2321 </r>
       <r>     7.9613     1.1069    11.3631 </r>
       <r>     8.0872     1.0642    11.5019 </r>
       <r>     8.2131     1.0659    11.6381 </r>
       <r>     8.3390     0.6942    11.7533 </r>
       <r>     8.4649     0.6672    11.8377 </r>
       <r>     8.5908     0.7079    11.9222 </r>
       <r>     8.7167     0.7509    12.0174 </r>
       <r>     8.8426     0.7777    12.1119 </r>
       <r>     8.9685     0.9007    12.2193 </r>
       <r>     9.0944     0.7755    12.3245 </r>
       <r>     9.2203     0.7141    12.4176 </r>
       <r>     9.3462     0.6250    12.5058 </r>
       <r>     9.4721     0.7637    12.5882 </r>
       <r>     9.5980     0.8393    12.6912 </r>
       <r>     9.7239     0.6773    12.7904 </r>
       <r>     9.8498     0.4952    12.8624 </r>
       <r>     9.9757     0.4752    12.9218 </r>
       <r>    10.1016     0.4932    12.9836 </r>
       <r>    10.2275     0.6204    13.0489 </r>
       <r>    10.3534     0.9066    13.1477 </r>
       <r>    10.4793     0.9543    13.2671 </r>
       <r>    10.6052     0.9420    13.3857 </r>
       <r>    10.7311     0.9278    13.5044 </r>
       <r>    10.8570     0.8131    13.6151 </r>
       <r>    10.9829     0.7794    13.7129 </r>
       <r>    11.1088     0.8084    13.8129 </r>
       <r>    11.2347     0.5871    13.9052 </r>
       <r>    11.3606     0.4870    13.9671 </r>
       <r>    11.4865     0.5444    14.0315 </r>
       <r>    11.6124     0.7423    14.1091 </r>
       <r>    11.7383     0.7565    14.2074 </r>
       <r>    11.8642     0.7065    14.2990 </r>
       <r>    11.9901     0.7041    14.3873 </r>
       <r>    12.1160     0.7761    14.4790 </r>
       <r>    12.2419     0.9512    14.5889 </r>
       <r>    12.3678     0.8801    14.6958 </r>
       <r>    12.4937     0.9500    14.8122 </r>
       <r>    12.6196     0.8744    14.9268 </r>
       <r>    12.7455     0.8319    15.0338 </r>
       <r>    12.8714     1.3377    15.1659 </r>
       <r>    12.9973     0.8706    15.2848 </r>
       <r>    13.1232     0.8218    15.3915 </r>
       <r>    13.2491     0.8395    15.4942 </r>
       <r>    13.3750     0.6615    15.5913 </r>
       <r>    13.5009     0.5204    15.6641 </r>
       <r>    13.6268     0.5363    15.7290 </r>
       <r>    13.7527     1.6827    15.8336 </r>
       <r>    13.8786     2.1470    16.0577 </r>
       <r>    14.0045     1.9344    16.3285 </r>
       <r>    14.1304     1.5635    16.5609 </r>
       <r>    14.2563     1.1935    16.7309 </r>
       <r>    14.3822     0.9748    16.8664 </r>
       <r>    14.5081     0.7707    16.9760 </r>
       <r>    14.6340     0.6776    17.0655 </r>
       <r>    14.7599     0.7638    17.1546 </r>
       <r>    14.8858     0.9201    17.2603 </r>
       <r>    15.0117     0.9856    17.3838 </r>
       <r>    15.1376     0.9247    17.5043 </r>
       <r>    15.2635     0.8397    17.6156 </r>
       <r>    15.3894     0.6833    17.7121 </r>
       <r>    15.5153     0.5978    17.7916 </r>
       <r>    15.6412     0.5704    17.8652 </r>
       <r>    15.7671     0.5241    17.9344 </r>
       <r>    15.8930     0.4819    17.9976 </r>
       <r>    16.0189     0.4535    18.0563 </r>
       <r>    16.1448     0.4441    18.1124 </r>
       <r>    16.2707     0.4965    18.1707 </r>
       <r>    16.3966     1.5777    18.2773 </r>
       <r>    16.5225     0.9997    18.3966 </r>
       <r>    16.6484     1.7301    18.5702 </r>
       <r>    16.7743     2.1966    18.8215 </r>
       <r>    16.9002     2.4522    19.1100 </r>
       <r>    17.0261     1.5005    19.3689 </r>
       <r>    17.1520     1.3815    19.5436 </r>
       <r>    17.2779     1.3437    19.7139 </r>
       <r>    17.4038     1.4368    19.8921 </r>
       <r>    17.5297     1.0009    20.0458 </r>
       <r>    17.6556     0.6781    20.1499 </r>
       <r>    17.7815     1.4432    20.2317 </r>
       <r>    17.9074     1.2913    20.3937 </r>
       <r>    18.0333     2.1102    20.6038 </r>
       <r>    18.1591     1.3823    20.8517 </r>
       <r>    18.2850     0.7561    20.9819 </r>
       <r>    18.4109     0.5580    21.0590 </r>
       <r>    18.5368     0.6260    21.1332 </r>
       <r>    18.6627     0.7277    21.2182 </r>
       <r>    18.7886     0.6769    21.3094 </r>
       <r>    18.9145     0.6645    21.3909 </r>
       <r>    19.0404     0.7560    21.4798 </r>
       <r>    19.1663     0.8499    21.5807 </r>
       <r>    19.2922     0.9695    21.6949 </r>
       <r>    19.4181     1.1159    21.8259 </r>
       <r>    19.5440     1.2580    21.9766 </r>
       <r>    19.6699     1.5111    22.1411 </r>
       <r>    19.7958     0.5036    22.2908 </r>
       <r>    19.9217     0.6727    22.3632 </r>
       <r>    20.0476     0.9792    22.4656 </r>
       <r>    20.1735     1.4897    22.6274 </r>
       <r>    20.2994     1.7342    22.8254 </r>
       <r>    20.4253     1.5231    23.0470 </r>
       <r>    20.5512     1.1245    23.2183 </r>
       <r>    20.6771     0.8950    23.3372 </r>
       <r>    20.8030     1.3638    23.4658 </r>
       <r>    20.9289     0.9617    23.6219 </r>
       <r>    21.0548     0.6870    23.7259 </r>
       <r>    21.1807     0.4564    23.7972 </r>
       <r>    21.3066     0.2884    23.8435 </r>
       <r>    21.4325     0.1880    23.8725 </r>
       <r>    21.5584     0.1610    23.8945 </r>
       <r>    21.6843     0.1373    23.9132 </r>
       <r>    21.8102     0.1169    23.9292 </r>
       <r>    21.9361     0.0999    23.9428 </r>
       <r>    22.0620     0.0861    23.9545 </r>
       <r>    22.1879     0.0744    23.9646 </r>
       <r>    22.3138     0.0636    23.9732 </r>
       <r>    22.4397     0.0539    23.9806 </r>
       <r>    22.5656     0.0451    23.9868 </r>
       <r>    22.6915     0.0372    23.9920 </r>
       <r>    22.8174     0.0254    23.9961 </r>
       <r>    22.9433     0.0132    23.9985 </r>
       <r>    23.0692     0.0052    23.9996 </r>
       <r>    23.1951     0.0013    23.9999 </r>
       <r>    23.3210     0.0000    24.0000 </r>
       <r>    23.4469     0.0000    24.0000 </r>
       <r>    23.5728     0.0000    24.0000 </r>
       <r>    23.6987     0.0000    24.0000 </r>
       <r>    23.8246     0.0000    24.0000 </r>
       <r>    23.9505     0.0000    24.0000 </r>
       <r>    24.0764     0.0000    24.0000 </r>
       <r>    24.2023     0.0000    24.0000 </r>
       <r>    24.3282     0.0000    24.0000 </r>
       <r>    24.4541     0.0000    24.0000 </r>
       <r>    24.5800     0.0000    24.0000 </r>
       <r>    24.7059     0.0000    24.0000 </r>
       <r>    24.8318     0.0000    24.0000 </r>
       <r>    24.9577     0.0000    24.0000 </r>
       <r>    25.0836     0.0000    24.0000 </r>
       <r>    25.2095     0.0000    24.0000 </r>
       <r>    25.3354     0.0000    24.0000 </r>
      </set>
      <set comment="spin 2">
       <r>   -12.4344     0.0000     0.0000 </r>
       <r>   -12.3085     0.0000     0.0000 </r>
       <r>   -12.1826     0.0000     0.0000 </r>
       <r>   -12.0567     0.0000     0.0000 </r>
       <r>   -11.9308     0.0000     0.0000 </r>
       <r>   -11.8049     0.0000     0.0000 </r>
       <r>   -11.6790     0.0000     0.0000 </r>
       <r>   -11.5531     0.0000     0.0000 </r>
       <r>   -11.4272     0.0000     0.0000 </r>
       <r>   -11.3013     0.0000     0.0000 </r>
       <r>   -11.1754     0.0000     0.0000 </r>
       <r>   -11.0495     0.0000     0.0000 </r>
       <r>   -10.9237     0.0000     0.0000 </r>
       <r>   -10.7978     0.0000     0.0000 </r>
       <r>   -10.6719     0.0000     0.0000 </r>
       <r>   -10.5460     0.0000     0.0000 </r>
       <r>   -10.4201     0.0107     0.0001 </r>
       <r>   -10.2942     0.6097     0.0380 </r>
       <r>   -10.1683     1.6447     0.1628 </r>
       <r>   -10.0424     7.4671     0.6188 </r>
       <r>    -9.9165     1.0296     1.0000 </r>
       <r>    -9.7906     0.0000     1.0000 </r>
       <r>    -9.6647     0.0000     1.0000 </r>
       <r>    -9.5388     0.0000     1.0000 </r>
       <r>    -9.4129     0.0000     1.0000 </r>
       <r>    -9.2870     0.0000     1.0000 </r>
       <r>    -9.1611     0.0000     1.0000 </r>
       <r>    -9.0352     0.0000     1.0000 </r>
       <r>    -8.9093     0.0000     1.0000 </r>
       <r>    -8.7834     0.0000     1.0000 </r>
       <r>    -8.6575     0.0000     1.0000 </r>
       <r>    -8.5316     0.0000     1.0000 </r>
       <r>    -8.4057     0.0000     1.0000 </r>
       <r>    -8.2798     0.0000     1.0000 </r>
       <r>    -8.1539     0.0000     1.0000 </r>
       <r>    -8.0280     0.0000     1.0000 </r>
       <r>    -7.9021    32.3513     2.2040 </r>
       <r>    -7.7762    30.0977     3.6023 </r>
       <r>    -7.6503    10.4480     5.1215 </r>
       <r>    -7.5244     0.9810     5.2372 </r>
       <r>    -7.3985     1.3654     5.3834 </r>
       <r>    -7.2726     2.5671     5.6544 </r>
       <r>    -7.1467     1.5130     5.9796 </r>
       <r>    -7.0208     0.0000     6.0000 </r>
       <r>    -6.8949     0.0000     6.0000 </r>
       <r>    -6.7690     0.0000     6.0000 </r>
       <r>    -6.6431     0.0000     6.0000 </r>
       <r>    -6.5172     0.0000     6.0000 </r>
       <r>    -6.3913     0.0000     6.0000 </r>
       <r>    -6.2654     0.0000     6.0000 </r>
       <r>    -6.1395     0.0000     6.0000 </r>
       <r>    -6.0136     0.0000     6.0000 </r>
       <r>    -5.8877     0.0000     6.0000 </r>
       <r>    -5.7618     0.0000     6.0000 </r>
       <r>    -5.6359     0.0000     6.0000 </r>
       <r>    -5.5100     0.0000     6.0000 </r>
       <r>    -5.3841     0.0000     6.0000 </r>
       <r>    -5.2582     0.0000     6.0000 </r>
       <r>    -5.1323     0.0000     6.0000 </r>
       <r>    -5.0064     0.0000     6.0000 </r>
       <r>    -4.8805     0.0000     6.0000 </r>
       <r>    -4.7546     0.0000     6.0000 </r>
       <r>    -4.6287     0.0000     6.0000 </r>
       <r>    -4.5028     0.0000     6.0000 </r>
       <r>    -4.3769     0.0000     6.0000 </r>
       <r>    -4.2510     0.0000     6.0000 </r>
       <r>    -4.1251     0.0000     6.0000 </r>
       <r>    -3.9992     0.0000     6.0000 </r>
       <r>    -3.8733     0.0000     6.0000 </r>
       <r>    -3.7474     0.0000     6.0000 </r>
       <r>    -3.6215     0.0000     6.0000 </r>
       <r>    -3.4956     0.0000     6.0000 </r>
       <r>    -3.3697     0.0000     6.0000 </r>
       <r>    -3.2438     0.0000     6.0000 </r>
       <r>    -3.1179     0.0000     6.0000 </r>
       <r>    -2.9920     0.0070     6.0001 </r>
       <r>    -2.8661     0.2205     6.0094 </r>
       <r>    -2.7402     4.0412     6.2002 </r>
       <r>    -2.6143     1.2551     6.4490 </r>
       <r>    -2.4884     0.6964     6.5735 </r>
       <r>    -2.3625     0.4161     6.6378 </r>
       <r>    -2.2366     0.3706     6.6872 </r>
       <r>    -2.1107     0.3305     6.7313 </r>
       <r>    -1.9848     0.2918     6.7705 </r>
       <r>    -1.8589     0.2503     6.8047 </r>
       <r>    -1.7330     0.2057     6.8334 </r>
       <r>    -1.6071     0.1636     6.8565 </r>
       <r>    -1.4812     0.1327     6.8751 </r>
       <r>    -1.3553     0.1124     6.8904 </r>
       <r>    -1.2294     0.1024     6.9038 </r>
       <r>    -1.1035     0.1063     6.9164 </r>
       <r>    -0.9776     0.3485     6.9415 </r>
       <r>    -0.8517     0.9145     7.0188 </r>
       <r>    -0.7258     0.9677     7.1420 </r>
       <r>    -0.5999     0.8769     7.2799 </r>
       <r>    -0.4740     0.8446     7.3846 </r>
       <r>    -0.3481     1.0202     7.5004 </r>
       <r>    -0.2222     1.1902     7.6408 </r>
       <r>    -0.0963     1.2285     7.7931 </r>
       <r>     0.0296     1.2435     7.9493 </r>
       <r>     0.1555     1.2099     8.1042 </r>
       <r>     0.2814     1.1727     8.2540 </r>
       <r>     0.4073     1.1767     8.4015 </r>
       <r>     0.5332     1.1489     8.5488 </r>
       <r>     0.6591     1.0091     8.6860 </r>
       <r>     0.7850     0.6747     8.7940 </r>
       <r>     0.9109     0.4694     8.8636 </r>
       <r>     1.0368     0.3707     8.9161 </r>
       <r>     1.1627     0.3091     8.9586 </r>
       <r>     1.2886     0.1557     8.9895 </r>
       <r>     1.4145     0.0225     8.9994 </r>
       <r>     1.5404     0.0000     9.0000 </r>
       <r>     1.6663     0.0000     9.0000 </r>
       <r>     1.7922     0.0000     9.0000 </r>
       <r>     1.9181     0.0000     9.0000 </r>
       <r>     2.0440     0.0000     9.0000 </r>
       <r>     2.1699     0.0000     9.0000 </r>
       <r>     2.2958     0.0000     9.0000 </r>
       <r>     2.4217     0.0000     9.0000 </r>
       <r>     2.5476     0.0000     9.0000 </r>
       <r>     2.6735     0.0000     9.0000 </r>
       <r>     2.7994     0.0000     9.0000 </r>
       <r>     2.9253     0.0000     9.0000 </r>
       <r>     3.0512     0.0004     9.0000 </r>
       <r>     3.1771     0.0017     9.0001 </r>
       <r>     3.3030     0.0038     9.0005 </r>
       <r>     3.4289     0.0067     9.0011 </r>
       <r>     3.5548     0.0105     9.0022 </r>
       <r>     3.6807     0.0151     9.0038 </r>
       <r>     3.8066     0.0206     9.0060 </r>
       <r>     3.9325     0.0269     9.0090 </r>
       <r>     4.0584     0.0360     9.0129 </r>
       <r>     4.1843     0.0795     9.0195 </r>
       <r>     4.3102     0.1494     9.0340 </r>
       <r>     4.4361     0.2148     9.0570 </r>
       <r>     4.5620     0.2757     9.0879 </r>
       <r>     4.6879     0.3328     9.1262 </r>
       <r>     4.8138     0.3998     9.1721 </r>
[...]
       </set>
       <set comment="band 12">
        <r>  0.0832  0.0000  0.0000  0.0000  0.0034  0.0000  0.0013  0.0000  0.0004 </r>
        <r>  0.0000  0.1154  0.0000  0.2308  0.0030  0.0000  0.0100  0.0000  0.0004 </r>
       </set>
       <set comment="band 13">
        <r>  0.0000  0.0621  0.1134  0.0310  0.0006  0.0022  0.0000  0.0045  0.0049 </r>
        <r>  0.0000  0.0620  0.1133  0.0310  0.0022  0.0079  0.0000  0.0158  0.0173 </r>
       </set>
       <set comment="band 14">
        <r>  0.0000  0.0756  0.0931  0.0378  0.0007  0.0018  0.0000  0.0037  0.0060 </r>
        <r>  0.0000  0.0755  0.0930  0.0378  0.0026  0.0065  0.0000  0.0130  0.0211 </r>
       </set>
       <set comment="band 15">
        <r>  0.0000  0.0000  0.0000  0.0000  0.0000  0.0000  0.0000  0.0000  0.0000 </r>
        <r>  0.0000  0.0000  0.0000  0.0000  0.0000  0.2216  0.0000  0.1108  0.0000 </r>
       </set>
       <set comment="band 16">
        <r>  0.0000  0.0002  0.0276  0.0001  0.0001  0.0179  0.0000  0.0358  0.0006 </r>
        <r>  0.0000  0.0002  0.0271  0.0001  0.0004  0.0904  0.0000  0.1808  0.0031 </r>
       </set>
       <set comment="band 17">
        <r>  0.0000  0.0184  0.0004  0.0092  0.0060  0.0002  0.0000  0.0005  0.0477 </r>
        <r>  0.0000  0.0181  0.0003  0.0090  0.0301  0.0012  0.0000  0.0023  0.2410 </r>
       </set>
       <set comment="band 18">
        <r>  0.0000  0.0640  0.0000  0.1280  0.0070  0.0000  0.0236  0.0000  0.0009 </r>
        <r>  0.1283  0.0000  0.0000  0.0000  0.0084  0.0000  0.0032  0.0000  0.0011 </r>
       </set>
       <set comment="band 19">
        <r>  0.0000  0.0000  0.0000  0.0000  0.0000  0.1121  0.0000  0.0560  0.0000 </r>
        <r>  0.0000  0.0000  0.0000  0.0000  0.0000  0.0000  0.0000  0.0000  0.0000 </r>
       </set>
       <set comment="band 20">
        <r>  0.0000  0.0011  0.0000  0.0022  0.0018  0.0000  0.0062  0.0000  0.0002 </r>
        <r>  0.0233  0.0000  0.0000  0.0000  0.2641  0.0000  0.0990  0.0000  0.0330 </r>
       </set>
       <set comment="band 21">
        <r>  0.0000  0.0000  0.0464  0.0000  0.0000  0.0020  0.0000  0.0040  0.0000 </r>
        <r>  0.0000  0.0000  0.0008  0.0000  0.0000  0.0114  0.0000  0.0228  0.0000 </r>
       </set>
       <set comment="band 22">
        <r>  0.0000  0.0309  0.0000  0.0155  0.0007  0.0000  0.0000  0.0000  0.0054 </r>
        <r>  0.0000  0.0006  0.0000  0.0003  0.0038  0.0000  0.0000  0.0000  0.0304 </r>
       </set>
       <set comment="band 23">
        <r>  0.0324  0.0000  0.0000  0.0000  0.0136  0.0000  0.0051  0.0000  0.0017 </r>
        <r>  0.0000  0.0056  0.0000  0.0112  0.0014  0.0000  0.0049  0.0000  0.0002 </r>
       </set>
       <set comment="band 24">
        <r>  0.0000  0.0545  0.0000  0.1089  0.0002  0.0000  0.0007  0.0000  0.0000 </r>
        <r>  0.0148  0.0000  0.0000  0.0000  0.0036  0.0000  0.0013  0.0000  0.0004 </r>
       </set>
      </set>
      <set comment="kpoint 14">
       <set comment="band 1">
        <r>  0.0113  0.0017  0.0015  0.0065  0.0325  0.0077  0.0767  0.0157  0.0165 </r>
        <r>  0.5346  0.0000  0.0000  0.0000  0.0000  0.0000  0.0000  0.0000  0.0000 </r>
       </set>
       <set comment="band 2">
        <r>  0.0001  0.0001  0.0001  0.0000  0.0389  0.1737  0.2406  0.1396  0.3395 </r>
        <r>  0.0001  0.0056  0.0042  0.0002  0.0001  0.0001  0.0000  0.0003  0.0004 </r>
       </set>
       <set comment="band 3">
        <r>  0.0000  0.0001  0.0002  0.0001  0.1474  0.1971  0.0207  0.2382  0.3282 </r>
        <r>  0.0001  0.0042  0.0039  0.0026  0.0000  0.0000  0.0001  0.0003  0.0002 </r>
       </set>
       <set comment="band 4">
        <r>  0.0003  0.0000  0.0000  0.0000  0.5452  0.0173  0.2093  0.0376  0.1338 </r>
        <r>  0.0003  0.0003  0.0001  0.0013  0.0002  0.0000  0.0002  0.0001  0.0001 </r>
       </set>
       <set comment="band 5">
        <r>  0.0000  0.0000  0.0000  0.0000  0.0155  0.5075  0.0095  0.4133  0.0070 </r>
        <r>  0.0000  0.0000  0.0000  0.0000  0.0000  0.0002  0.0000  0.0000  0.0001 </r>
       </set>
       <set comment="band 6">
        <r>  0.0085  0.0003  0.0003  0.0018  0.1592  0.0390  0.3806  0.1022  0.1149 </r>
        <r>  0.0958  0.0005  0.0006  0.0049  0.0001  0.0000  0.0001  0.0000  0.0001 </r>
       </set>
       <set comment="band 7">
        <r>  0.1953  0.0034  0.0047  0.0026  0.0086  0.0005  0.0124  0.0016  0.0002 </r>
        <r>  0.0274  0.0268  0.0397  0.1845  0.0007  0.0001  0.0016  0.0003  0.0002 </r>
       </set>
       <set comment="band 8">
        <r>  0.0118  0.0089  0.0270  0.0284  0.0057  0.0103  0.0008  0.0021  0.0054 </r>
        <r>  0.0009  0.0973  0.1705  0.0951  0.0005  0.0005  0.0005  0.0001  0.0002 </r>
       </set>
       <set comment="band 9">
        <r>  0.0035  0.0352  0.0230  0.0051  0.0039  0.0031  0.0064  0.0059  0.0118 </r>
        <r>  0.0009  0.2519  0.1568  0.0060  0.0007  0.0002  0.0003  0.0002  0.0004 </r>
       </set>
       <set comment="band 10">
        <r>  0.2524  0.0034  0.0053  0.0020  0.0037  0.0027  0.0028  0.0001  0.0037 </r>
        <r>  0.0262  0.0695  0.0434  0.1041  0.0068  0.0035  0.0190  0.0015  0.0038 </r>
       </set>
       <set comment="band 11">
        <r>  0.0006  0.0458  0.0057  0.0552  0.0048  0.0012  0.0138  0.0011  0.0021 </r>
        <r>  0.0405  0.0103  0.0275  0.0213  0.0207  0.0002  0.0149  0.0001  0.0047 </r>
       </set>
       <set comment="band 12">
        <r>  0.0002  0.0347  0.0429  0.0109  0.0100  0.0072  0.0049  0.0010  0.0024 </r>
        <r>  0.0133  0.0188  0.0240  0.0055  0.0183  0.0246  0.0193  0.0011  0.0067 </r>
       </set>
       <set comment="band 13">
        <r>  0.0012  0.0773  0.0794  0.0100  0.0040  0.0045  0.0005  0.0063  0.0079 </r>
        <r>  0.0081  0.0501  0.0462  0.0358  0.0046  0.0176  0.0017  0.0230  0.0318 </r>
       </set>
       <set comment="band 14">
        <r>  0.0138  0.0121  0.0185  0.0064  0.0079  0.0084  0.0104  0.0008  0.0090 </r>
        <r>  0.0011  0.0065  0.0193  0.1040  0.0133  0.0293  0.0147  0.0247  0.0126 </r>
       </set>
       <set comment="band 15">
        <r>  0.0000  0.0122  0.0244  0.0934  0.0037  0.0078  0.0050  0.0246  0.0045 </r>
        <r>  0.0238  0.0007  0.0095  0.0181  0.0025  0.0198  0.0054  0.0167  0.0440 </r>
       </set>
       <set comment="band 16">
        <r>  0.0050  0.0271  0.0486  0.0264  0.0055  0.0049  0.0063  0.0058  0.0059 </r>
        <r>  0.0084  0.0019  0.0164  0.0462  0.0047  0.0123  0.0001  0.1410  0.0546 </r>
       </set>
       <set comment="band 17">
        <r>  0.0470  0.0123  0.0004  0.0249  0.0009  0.0004  0.0007  0.0014  0.0009 </r>
        <r>  0.0012  0.0077  0.0085  0.0024  0.0228  0.0424  0.0094  0.0138  0.0008 </r>
       </set>
       <set comment="band 18">
        <r>  0.0127  0.0054  0.0028  0.0081  0.0114  0.0156  0.0036  0.0071  0.0048 </r>
        <r>  0.0063  0.0030  0.0089  0.0102  0.0107  0.0312  0.0115  0.0155  0.0040 </r>
       </set>
       <set comment="band 19">
        <r>  0.0040  0.0181  0.0291  0.0112  0.0007  0.0087  0.0011  0.0129  0.0214 </r>
        <r>  0.0004  0.0243  0.0364  0.0120  0.0219  0.0460  0.0032  0.0888  0.1141 </r>
       </set>
       <set comment="band 20">
        <r>  0.0010  0.0251  0.0034  0.0577  0.0038  0.0141  0.0053  0.0396  0.0078 </r>
        <r>  0.0158  0.0253  0.0077  0.0070  0.0496  0.0081  0.0162  0.0144  0.0039 </r>
       </set>
       <set comment="band 21">
        <r>  0.0384  0.0019  0.0194  0.0328  0.0001  0.0122  0.0008  0.0042  0.0156 </r>
        <r>  0.0140  0.0028  0.0003  0.0023  0.0259  0.0343  0.0331  0.0060  0.0347 </r>
       </set>
       <set comment="band 22">
        <r>  0.0001  0.0019  0.0034  0.0016  0.0107  0.0026  0.0029  0.0082  0.0016 </r>
        <r>  0.0075  0.0182  0.0084  0.0011  0.0213  0.0219  0.0230  0.0017  0.0104 </r>
       </set>
       <set comment="band 23">
        <r>  0.0002  0.0282  0.0154  0.0101  0.0018  0.0189  0.0071  0.0155  0.0045 </r>
        <r>  0.0001  0.0257  0.0236  0.0030  0.1417  0.0322  0.1571  0.0065  0.0197 </r>
       </set>
       <set comment="band 24">
        <r>  0.0000  0.0133  0.0147  0.0024  0.0079  0.0181  0.0099  0.0187  0.0301 </r>
        <r>  0.0006  0.0381  0.0325  0.0038  0.0531  0.0471  0.1110  0.0063  0.0245 </r>
       </set>
      </set>
      <set comment="kpoint 15">
       <set comment="band 1">
        <r>  0.0037  0.0031  0.0014  0.0063  0.0348  0.0078  0.0626  0.0160  0.0585 </r>
        <r>  0.5253  0.0000  0.0000  0.0000  0.0000  0.0000  0.0000  0.0000  0.0000 </r>
       </set>
       <set comment="band 2">
        <r>  0.0001  0.0001  0.0000  0.0001  0.0674  0.1341  0.4417  0.0598  0.2311 </r>
        <r>  0.0000  0.0040  0.0029  0.0013  0.0002  0.0001  0.0000  0.0003  0.0004 </r>
       </set>
       <set comment="band 3">
        <r>  0.0000  0.0001  0.0002  0.0000  0.0599  0.2884  0.0737  0.3223  0.1892 </r>
        <r>  0.0001  0.0029  0.0057  0.0019  0.0001  0.0000  0.0001  0.0003  0.0001 </r>
       </set>
       <set comment="band 4">
        <r>  0.0000  0.0000  0.0000  0.0000  0.4432  0.1170  0.0728  0.1392  0.1759 </r>
        <r>  0.0000  0.0000  0.0000  0.0001  0.0001  0.0001  0.0003  0.0001  0.0002 </r>
       </set>
       <set comment="band 5">
        <r>  0.0001  0.0000  0.0000  0.0000  0.1854  0.3651  0.0311  0.3420  0.0274 </r>
        <r>  0.0000  0.0003  0.0002  0.0003  0.0000  0.0001  0.0000  0.0000  0.0000 </r>
       </set>
       <set comment="band 6">
        <r>  0.0030  0.0011  0.0005  0.0024  0.1578  0.0282  0.2592  0.0672  0.2670 </r>
        <r>  0.1289  0.0007  0.0003  0.0003  0.0000  0.0001  0.0001  0.0000  0.0001 </r>
       </set>
       <set comment="band 7">
        <r>  0.2187  0.0006  0.0001  0.0075  0.0013  0.0009  0.0003  0.0010  0.0009 </r>
        <r>  0.0049  0.0523  0.0187  0.1788  0.0009  0.0001  0.0010  0.0004  0.0013 </r>
       </set>
       <set comment="band 8">
        <r>  0.0143  0.0259  0.0116  0.0253  0.0035  0.0052  0.0114  0.0021  0.0025 </r>
        <r>  0.0031  0.1783  0.0654  0.1010  0.0004  0.0003  0.0006  0.0001  0.0001 </r>
       </set>
       <set comment="band 9">
        <r>  0.0012  0.0205  0.0423  0.0054  0.0031  0.0096  0.0032  0.0060  0.0028 </r>
        <r>  0.0001  0.1025  0.2877  0.0087  0.0004  0.0006  0.0005  0.0002  0.0001 </r>
       </set>
       <set comment="band 10">
        <r>  0.2128  0.0017  0.0083  0.0179  0.0002  0.0057  0.0060  0.0005  0.0032 </r>
        <r>  0.0288  0.0781  0.0580  0.0528  0.0043  0.0071  0.0172  0.0010  0.0073 </r>
       </set>
       <set comment="band 11">
        <r>  0.0014  0.0419  0.0191  0.0055  0.0026  0.0064  0.0155  0.0030  0.0030 </r>
        <r>  0.0140  0.0290  0.0372  0.0209  0.0126  0.0125  0.0226  0.0004  0.0035 </r>
       </set>
       <set comment="band 12">
        <r>  0.0518  0.0216  0.0509  0.0241  0.0048  0.0005  0.0040  0.0023  0.0022 </r>
        <r>  0.0178  0.0376  0.0092  0.0955  0.0114  0.0150  0.0062  0.0097  0.0145 </r>
       </set>
       <set comment="band 13">
        <r>  0.0003  0.0278  0.0100  0.0477  0.0124  0.0026  0.0001  0.0087  0.0114 </r>
        <r>  0.0149  0.0205  0.0071  0.0138  0.0277  0.0037  0.0136  0.0245  0.0138 </r>
       </set>
       <set comment="band 14">
        <r>  0.0001  0.0630  0.0731  0.0136  0.0074  0.0134  0.0054  0.0004  0.0070 </r>
        <r>  0.0187  0.0353  0.0321  0.0495  0.0035  0.0428  0.0087  0.0087  0.0085 </r>
       </set>
       <set comment="band 15">
        <r>  0.0002  0.0108  0.0250  0.0004  0.0021  0.0090  0.0041  0.0178  0.0084 </r>
        <r>  0.0061  0.0000  0.0311  0.0844  0.0150  0.0198  0.0082  0.0077  0.0111 </r>
       </set>
       <set comment="band 16">
        <r>  0.0007  0.0011  0.0176  0.0868  0.0034  0.0042  0.0083  0.0154  0.0013 </r>
        <r>  0.0199  0.0012  0.0000  0.0083  0.0056  0.0015  0.0023  0.1655  0.0902 </r>
       </set>
       <set comment="band 17">
        <r>  0.0369  0.0518  0.0254  0.0096  0.0113  0.0034  0.0015  0.0033  0.0034 </r>
        <r>  0.0024  0.0104  0.0036  0.0195  0.0100  0.0168  0.0264  0.0008  0.0047 </r>
       </set>
       <set comment="band 18">
        <r>  0.0049  0.0274  0.0123  0.0123  0.0042  0.0099  0.0052  0.0001  0.0002 </r>
        <r>  0.0028  0.0751  0.0297  0.0094  0.0830  0.0831  0.0135  0.0083  0.0382 </r>
       </set>
       <set comment="band 19">
        <r>  0.0004  0.0075  0.0162  0.0656  0.0008  0.0007  0.0025  0.0166  0.0073 </r>
        <r>  0.0003  0.0261  0.0174  0.0522  0.0153  0.0054  0.0114  0.0363  0.0444 </r>
       </set>
       <set comment="band 20">
        <r>  0.0035  0.0191  0.0065  0.0232  0.0002  0.0007  0.0006  0.0075  0.0045 </r>
        <r>  0.0034  0.0073  0.0161  0.0005  0.1181  0.0162  0.0058  0.0436  0.0524 </r>
       </set>
       <set comment="band 21">
        <r>  0.0335  0.0034  0.0014  0.0033  0.0063  0.0041  0.0063  0.0129  0.0229 </r>
        <r>  0.0102  0.0007  0.0008  0.0008  0.0299  0.0121  0.0540  0.0059  0.0436 </r>
       </set>
       <set comment="band 22">
        <r>  0.0038  0.0005  0.0000  0.0052  0.0290  0.0285  0.0020  0.0118  0.0209 </r>
        <r>  0.0283  0.0022  0.0015  0.0003  0.0096  0.0519  0.0524  0.0546  0.0009 </r>
       </set>
       <set comment="band 23">
        <r>  0.0004  0.0149  0.0037  0.0476  0.0030  0.0030  0.0075  0.0005  0.0049 </r>
        <r>  0.0053  0.0050  0.0123  0.0000  0.0192  0.0129  0.0240  0.0038  0.0019 </r>
       </set>
       <set comment="band 24">
        <r>  0.0003  0.0397  0.0220  0.0137  0.0030  0.0074  0.0042  0.0150  0.0237 </r>
        <r>  0.0001  0.0163  0.0437  0.0002  0.0175  0.0431  0.1387  0.0289  0.0939 </r>
       </set>
      </set>
      <set comment="kpoint 16">
       <set comment="band 1">
        <r>  0.0000  0.0038  0.0014  0.0062  0.0350  0.0081  0.1091  0.0162  0.0257 </r>
        <r>  0.5209  0.0000  0.0000  0.0000  0.0000  0.0000  0.0000  0.0000  0.0000 </r>
       </set>
       <set comment="band 2">
        <r>  0.0000  0.0001  0.0001  0.0000  0.0947  0.1141  0.1913  0.2282  0.3113 </r>
        <r>  0.0001  0.0022  0.0033  0.0011  0.0002  0.0002  0.0000  0.0004  0.0005 </r>
       </set>
       <set comment="band 3">
        <r>  0.0001  0.0001  0.0002  0.0001  0.1821  0.1318  0.0538  0.2395  0.3266 </r>
        <r>  0.0000  0.0033  0.0028  0.0038  0.0000  0.0001  0.0000  0.0001  0.0002 </r>
       </set>
       <set comment="band 4">
        <r>  0.0002  0.0000  0.0000  0.0000  0.4871  0.0391  0.1778  0.0776  0.1625 </r>
        <r>  0.0000  0.0005  0.0002  0.0008  0.0001  0.0001  0.0003  0.0001  0.0002 </r>
       </set>
       <set comment="band 5">
        <r>  0.0001  0.0000  0.0000  0.0000  0.0074  0.6204  0.0024  0.3142  0.0079 </r>
        <r>  0.0000  0.0002  0.0002  0.0002  0.0000  0.0000  0.0000  0.0000  0.0000 </r>
       </set>
       <set comment="band 6">
        <r>  0.0000  0.0017  0.0005  0.0028  0.1346  0.0357  0.4140  0.0713  0.1104 </r>
        <r>  0.1432  0.0000  0.0000  0.0000  0.0001  0.0000  0.0000  0.0000  0.0000 </r>
       </set>
       <set comment="band 7">
        <r>  0.2422  0.0000  0.0000  0.0000  0.0056  0.0004  0.0021  0.0002  0.0007 </r>
        <r>  0.0000  0.0820  0.0251  0.1389  0.0007  0.0002  0.0022  0.0004  0.0006 </r>
       </set>
       <set comment="band 8">
        <r>  0.0023  0.0213  0.0320  0.0107  0.0083  0.0046  0.0028  0.0056  0.0068 </r>
        <r>  0.0000  0.1223  0.1443  0.1002  0.0000  0.0000  0.0001  0.0000  0.0001 </r>
       </set>
       <set comment="band 9">
        <r>  0.0000  0.0258  0.0277  0.0239  0.0006  0.0013  0.0006  0.0026  0.0034 </r>
        <r>  0.0001  0.1224  0.1837  0.0612  0.0009  0.0003  0.0003  0.0002  0.0003 </r>
       </set>
       <set comment="band 10">
        <r>  0.0000  0.0255  0.0018  0.0491  0.0066  0.0007  0.0215  0.0015  0.0028 </r>
        <r>  0.0322  0.0225  0.0338  0.0112  0.0257  0.0000  0.0096  0.0001  0.0033 </r>
       </set>
       <set comment="band 11">
        <r>  0.2260  0.0023  0.0035  0.0012  0.0118  0.0007  0.0044  0.0005  0.0018 </r>
        <r>  0.0000  0.0632  0.0425  0.0838  0.0108  0.0003  0.0362  0.0006  0.0022 </r>
       </set>
       <set comment="band 12">
        <r>  0.0000  0.0439  0.0505  0.0373  0.0013  0.0034  0.0007  0.0067  0.0090 </r>
        <r>  0.0431  0.0292  0.0439  0.0146  0.0005  0.0282  0.0001  0.0145  0.0009 </r>
       </set>
       <set comment="band 13">
        <r>  0.0421  0.0244  0.0365  0.0122  0.0071  0.0053  0.0026  0.0037  0.0028 </r>
        <r>  0.0000  0.0390  0.0046  0.0733  0.0078  0.0116  0.0133  0.0231  0.0313 </r>
       </set>
       <set comment="band 14">
        <r>  0.0020  0.0488  0.0732  0.0244  0.0022  0.0052  0.0002  0.0099  0.0130 </r>
        <r>  0.0000  0.0896  0.0829  0.0963  0.0001  0.0003  0.0000  0.0006  0.0007 </r>
       </set>
       <set comment="band 15">
        <r>  0.0000  0.0483  0.0566  0.0399  0.0035  0.0041  0.0072  0.0082  0.0112 </r>
        <r>  0.0000  0.0026  0.0039  0.0013  0.0167  0.0587  0.0002  0.1017  0.1287 </r>
       </set>
       <set comment="band 16">
        <r>  0.0064  0.0024  0.0036  0.0012  0.0041  0.0300  0.0014  0.0162  0.0027 </r>
        <r>  0.0000  0.0425  0.0220  0.0630  0.0049  0.0100  0.0054  0.0200  0.0269 </r>
       </set>
       <set comment="band 17">
        <r>  0.0000  0.0269  0.0041  0.0498  0.0025  0.0000  0.0086  0.0000  0.0003 </r>
        <r>  0.0499  0.0001  0.0001  0.0000  0.0123  0.1342  0.0044  0.0696  0.0059 </r>
       </set>
       <set comment="band 18">
        <r>  0.0000  0.0090  0.0093  0.0086  0.0001  0.0000  0.0003  0.0000  0.0000 </r>
        <r>  0.0010  0.0019  0.0028  0.0009  0.1076  0.0089  0.0396  0.0134  0.0290 </r>
       </set>
       <set comment="band 19">
        <r>  0.0000  0.0452  0.0000  0.0905  0.0015  0.0005  0.0046  0.0010  0.0016 </r>
        <r>  0.0119  0.0313  0.0469  0.0156  0.0321  0.0443  0.0119  0.0237  0.0068 </r>
       </set>
       <set comment="band 20">
        <r>  0.0000  0.0274  0.0338  0.0210  0.0022  0.0031  0.0039  0.0063  0.0085 </r>
        <r>  0.0392  0.0123  0.0185  0.0062  0.0270  0.0106  0.0096  0.0118  0.0147 </r>
       </set>
       <set comment="band 21">
        <r>  0.0496  0.0007  0.0011  0.0004  0.0024  0.0218  0.0005  0.0157  0.0087 </r>
        <r>  0.0000  0.0013  0.0001  0.0026  0.0024  0.0070  0.0004  0.0140  0.0187 </r>
       </set>
       <set comment="band 22">
        <r>  0.0056  0.0047  0.0070  0.0023  0.0205  0.0210  0.0061  0.0291  0.0351 </r>
        <r>  0.0000  0.0008  0.0002  0.0014  0.0087  0.0088  0.0193  0.0177  0.0243 </r>
       </set>
       <set comment="band 23">
        <r>  0.0162  0.0001  0.0002  0.0001  0.0052  0.0326  0.0019  0.0176  0.0030 </r>
        <r>  0.0000  0.0061  0.0000  0.0123  0.0166  0.0375  0.0138  0.0750  0.1005 </r>
       </set>
       <set comment="band 24">
        <r>  0.0186  0.0008  0.0018  0.0004  0.0026  0.0022  0.0007  0.0043  0.0045 </r>
        <r>  0.0000  0.0104  0.0152  0.0058  0.0945  0.0001  0.3679  0.0003  0.0120 </r>
       </set>
      </set>
     </set>
    </set>
   </array>
  </projected>
 </calculation>
 <structure name="finalpos" >
  <crystal>
   <varray name="basis" >
    <v>       4.01975093       0.00000000       2.32080404 </v>
    <v>       1.33991663       3.78985854       2.32080404 </v>
    <v>       0.00000000       0.00000000       4.64161015 </v>
   </varray>
   <i name="volume">     70.71162285 </i>
   <varray name="rec_basis" >
    <v>       0.24877163      -0.08795401       0.00000000 </v>
    <v>       0.00000000       0.26386209       0.00000000 </v>
    <v>      -0.12438576      -0.08795400       0.21544248 </v>
   </varray>
  </crystal>
  <varray name="positions" >
   <v>       0.00000000       0.00000000       0.00000000 </v>
   <v>       0.25000000       0.25000000       0.25000000 </v>
  </varray>
 </structure>
</modeling>
