<?xml version="1.0" encoding="ISO-8859-1"?>
<modeling>
 <generator>
  <i name="program" type="string">vasp </i>
  <i name="version" type="string">6.4.2  </i>
  <i name="subversion" type="string">20Jul23 (build Mar 15 2024 16:31:38) complex                          parallel </i>
  <i name="platform" type="string">LinuxIFC </i>
  <i name="date" type="string">2025 03 19 </i>
  <i name="time" type="string">15:37:45 </i>
 </generator>
 <incar>
  <i type="string" name="PREC">Accurate</i>
  <i type="string" name="ALGO">Fast</i>
  <i type="int" name="ISPIN">     1</i>
  <i type="int" name="ICHARG">    11</i>
  <i type="int" name="NELM">   200</i>
  <i name="EDIFF">      0.00001000</i>
  <i type="int" name="NSW">     0</i>
  <i type="int" name="ISYM">     2</i>
  <i name="ENCUT">    680.00000000</i>
  <i name="ENAUG">   1360.00000000</i>
  <i type="int" name="NBANDS">    58</i>
  <i type="int" name="NEDOS">  2000</i>
  <i type="logical" name="LREAL"> F  </i>
  <i type="int" name="ISMEAR">    -5</i>
  <i name="SIGMA">      0.05000000</i>
  <i type="int" name="LMAXMIX">     4</i>
  <i type="logical" name="LWAVE"> T  </i>
  <i type="logical" name="LCHARG"> F  </i>
  <i type="logical" name="LVTOT"> T  </i>
  <i type="int" name="LORBIT">    11</i>
  <i type="logical" name="LELF"> F  </i>
  <i type="logical" name="LOPTICS"> T  </i>
  <i type="logical" name="LASPH"> T  </i>
  <i type="logical" name="LAECHG"> T  </i>
  <i name="CSHIFT">      0.00001000</i>
  <i type="string" name="GGA">Ps</i>
  <i type="logical" name="LMIXTAU"> T  </i>
 </incar>
 <primitive_cell>
  <structure name="primitive_cell" >
   <crystal>
    <varray name="basis" >
     <v>       4.93901185       0.00000000      -4.41848219 </v>
     <v>      -0.98753537       4.83927803      -4.41848219 </v>
     <v>       0.00000000       0.00000000       6.62697690 </v>
    </varray>
    <i name="volume">    158.39304179 </i>
    <varray name="rec_basis" >
     <v>       0.20246965       0.04131731       0.00000000 </v>
     <v>       0.00000000       0.20664239       0.00000000 </v>
     <v>       0.13499497       0.16532509       0.15089837 </v>
    </varray>
   </crystal>
   <varray name="positions" >
    <v>       0.75000000       0.25000000       0.50000000 </v>
    <v>       0.00000000       0.00000000       0.00000000 </v>
    <v>       0.25000000       0.75000000       0.50000000 </v>
    <v>       0.50000000       0.50000000       0.00000000 </v>
    <v>       0.36432714       0.37124032       0.47758056 </v>
    <v>       0.89365977       0.88674759       0.52241944 </v>
    <v>       0.11325241       0.63567286       0.00691218 </v>
    <v>       0.62875968       0.10634023       0.99308782 </v>
   </varray>
  </structure>
  <varray name="primitive_index" >
   <v type="int" >        1 </v>
   <v type="int" >        2 </v>
   <v type="int" >        3 </v>
   <v type="int" >        4 </v>
   <v type="int" >        5 </v>
   <v type="int" >        6 </v>
   <v type="int" >        7 </v>
   <v type="int" >        8 </v>
  </varray>
 </primitive_cell>
 <kpoints>
  <generation param="Gamma">
   <v type="int" name="divisions">       5        5        5 </v>
   <v name="usershift">      0.00000000       0.00000000       0.00000000 </v>
   <v name="genvec1">      0.20000000       0.00000000       0.00000000 </v>
   <v name="genvec2">      0.00000000       0.20000000       0.00000000 </v>
   <v name="genvec3">     -0.00000000      -0.00000000       0.20000000 </v>
   <v name="shift">      0.00000000       0.00000000       0.00000000 </v>
  </generation>
  <varray name="kpointlist" >
   <v>       0.00000000       0.00000000       0.00000000 </v>
   <v>       0.20000000       0.00000000       0.00000000 </v>
   <v>       0.40000000      -0.00000000       0.00000000 </v>
   <v>       0.20000000       0.20000000       0.00000000 </v>
   <v>       0.40000000       0.20000000       0.00000000 </v>
   <v>      -0.40000000      -0.20000000      -0.40000000 </v>
   <v>      -0.40000000       0.20000000       0.00000000 </v>
   <v>       0.40000000      -0.20000000      -0.20000000 </v>
   <v>      -0.20000000       0.20000000       0.00000000 </v>
   <v>       0.40000000       0.40000000       0.00000000 </v>
   <v>      -0.40000000       0.40000000       0.00000000 </v>
   <v>       0.20000000       0.20000000       0.20000000 </v>
   <v>      -0.20000000       0.20000000       0.20000000 </v>
   <v>      -0.40000000       0.40000000       0.20000000 </v>
   <v>       0.40000000      -0.40000000       0.20000000 </v>
   <v>      -0.20000000       0.40000000       0.20000000 </v>
   <v>      -0.40000000      -0.40000000       0.20000000 </v>
   <v>      -0.20000000      -0.40000000       0.20000000 </v>
   <v>      -0.20000000      -0.20000000       0.20000000 </v>
   <v>      -0.40000000       0.40000000       0.40000000 </v>
   <v>      -0.40000000      -0.40000000       0.40000000 </v>
  </varray>
  <varray name="weights" >
   <v>       0.00800000 </v>
   <v>       0.06400000 </v>
   <v>       0.06400000 </v>
   <v>       0.06400000 </v>
   <v>       0.06400000 </v>
   <v>       0.06400000 </v>
   <v>       0.06400000 </v>
   <v>       0.06400000 </v>
   <v>       0.03200000 </v>
   <v>       0.06400000 </v>
   <v>       0.03200000 </v>
   <v>       0.06400000 </v>
   <v>       0.03200000 </v>
   <v>       0.03200000 </v>
   <v>       0.03200000 </v>
   <v>       0.06400000 </v>
   <v>       0.06400000 </v>
   <v>       0.06400000 </v>
   <v>       0.01600000 </v>
   <v>       0.03200000 </v>
   <v>       0.01600000 </v>
  </varray>
  <varray name="tetrahedronlist"  type="int" >
   <v type="int" >        8       10       12       12       12 </v>
   <v type="int" >        6        5       10       12       12 </v>
   <v type="int" >        6        6       10       12       12 </v>
   <v type="int" >        2        6       10       12       17 </v>
   <v type="int" >        2        5       10       12       17 </v>
   <v type="int" >        2        6        8       12       14 </v>
   <v type="int" >        2        6       10       12       14 </v>
   <v type="int" >        4        6       10       14       17 </v>
   <v type="int" >        4        6        8       14       16 </v>
   <v type="int" >        2        6       14       16       20 </v>
   <v type="int" >        2        6       14       17       20 </v>
   <v type="int" >        2        8       13       16       16 </v>
   <v type="int" >        2        8       14       16       16 </v>
   <v type="int" >        2       14       16       16       20 </v>
   <v type="int" >        2       13       15       16       16 </v>
   <v type="int" >        2       15       16       16       17 </v>
   <v type="int" >        4       16       16       17       20 </v>
   <v type="int" >        2        5        7       13       15 </v>
   <v type="int" >        2        5       13       15       16 </v>
   <v type="int" >        4        5       15       16       17 </v>
   <v type="int" >        4        5        7       10       15 </v>
   <v type="int" >        2        5        6       10       15 </v>
   <v type="int" >        2        5        6       15       17 </v>
   <v type="int" >        2        7       10       12       12 </v>
   <v type="int" >        2        5        7       10       12 </v>
   <v type="int" >        8        5        6       10       12 </v>
   <v type="int" >        2        5       10       12       15 </v>
   <v type="int" >        2        5        7       12       15 </v>
   <v type="int" >        4        5        7       15       16 </v>
   <v type="int" >        4        5       10       15       17 </v>
   <v type="int" >        2        5       15       17       20 </v>
   <v type="int" >        2        5       15       16       20 </v>
   <v type="int" >        2       10       14       17       17 </v>
   <v type="int" >        2       10       15       17       17 </v>
   <v type="int" >        2       15       17       17       20 </v>
   <v type="int" >        2       14       17       17       20 </v>
   <v type="int" >        4       17       17       20       21 </v>
   <v type="int" >        2       14       16       18       20 </v>
   <v type="int" >        2       14       17       18       20 </v>
   <v type="int" >        8       17       18       20       21 </v>
   <v type="int" >        8       16       17       18       20 </v>
   <v type="int" >        4       17       18       18       20 </v>
   <v type="int" >        4       18       18       20       21 </v>
   <v type="int" >        2        4        5       16       17 </v>
   <v type="int" >        4        4       16       17       18 </v>
   <v type="int" >        4        4       17       18       18 </v>
   <v type="int" >        4        4        5        6       17 </v>
   <v type="int" >        2        3        4        6       17 </v>
   <v type="int" >        4        3        4       17       18 </v>
   <v type="int" >        8        5        6        7       12 </v>
   <v type="int" >        2        4        5        6        7 </v>
   <v type="int" >        4        3        4        6        7 </v>
   <v type="int" >        2        5        6        7       16 </v>
   <v type="int" >        2        3        6        7       16 </v>
   <v type="int" >        2        7       15       16       16 </v>
   <v type="int" >        2        7       13       16       16 </v>
   <v type="int" >        2       13       14       16       16 </v>
   <v type="int" >        2       15       16       16       20 </v>
   <v type="int" >        2       14       16       16       17 </v>
   <v type="int" >        2       15       17       18       20 </v>
   <v type="int" >        2       15       16       18       20 </v>
   <v type="int" >        4       17       18       19       21 </v>
   <v type="int" >        4       18       18       19       21 </v>
   <v type="int" >        4        4       18       19       21 </v>
   <v type="int" >        4        2        4       18       18 </v>
   <v type="int" >        4        2       18       18       19 </v>
   <v type="int" >        8        2        4       18       19 </v>
   <v type="int" >        8        2        3        4       18 </v>
   <v type="int" >        2        2        3        8       18 </v>
   <v type="int" >        2        2        4        8       18 </v>
   <v type="int" >        2        3        4        7       13 </v>
   <v type="int" >        4        2        3        4       13 </v>
   <v type="int" >        4        2        3        8       13 </v>
   <v type="int" >        4        3        7       13       16 </v>
   <v type="int" >        2        3       13       14       16 </v>
   <v type="int" >        2        3        8       13       14 </v>
   <v type="int" >        2        6       13       14       16 </v>
   <v type="int" >        2        6        8       13       14 </v>
   <v type="int" >        4        6        8       10       14 </v>
   <v type="int" >        4        6       14       16       17 </v>
   <v type="int" >        2        5        6       14       17 </v>
   <v type="int" >        2        5        6       10       14 </v>
   <v type="int" >        2        4        6       16       17 </v>
   <v type="int" >        2        3        4        5       17 </v>
   <v type="int" >        2        2        4        7       18 </v>
   <v type="int" >        2        2        3        7       18 </v>
   <v type="int" >        4        2        4        9       19 </v>
   <v type="int" >        4        2        4        7        9 </v>
   <v type="int" >        4        2        4        8        9 </v>
   <v type="int" >        2        4        8        9       11 </v>
   <v type="int" >        2        4        7        9       11 </v>
   <v type="int" >        2        2        8        8       13 </v>
   <v type="int" >        2        2        8        8        9 </v>
   <v type="int" >        2        8        8        9       11 </v>
   <v type="int" >        2        8        8       13       14 </v>
   <v type="int" >        2        8        8       10       14 </v>
   <v type="int" >        2        8        8       10       11 </v>
   <v type="int" >        2        6        8       10       12 </v>
   <v type="int" >        2        8       10       12       12 </v>
   <v type="int" >        2        4        5        6        8 </v>
   <v type="int" >        8        5        6        8       12 </v>
   <v type="int" >        4        3        4        5        8 </v>
   <v type="int" >        2        3        5        8       16 </v>
   <v type="int" >        2        5        6        8       16 </v>
   <v type="int" >        2        3        4        8       13 </v>
   <v type="int" >        4        3        8       13       16 </v>
   <v type="int" >        4        2        3        7       13 </v>
   <v type="int" >        2        3        7       13       15 </v>
   <v type="int" >        2        3       13       15       16 </v>
   <v type="int" >        2        2        7        7        9 </v>
   <v type="int" >        2        2        7        7       13 </v>
   <v type="int" >        2        7        7       13       15 </v>
   <v type="int" >        2        7        7        9       11 </v>
   <v type="int" >        2        7        7       10       11 </v>
   <v type="int" >        2        7        7       10       15 </v>
   <v type="int" >        2        8        9       11       12 </v>
   <v type="int" >        2        7        9       11       12 </v>
   <v type="int" >        4        7       10       11       12 </v>
   <v type="int" >        4        8       10       11       12 </v>
   <v type="int" >        4       10       11       12       12 </v>
   <v type="int" >        2        4        6       12       17 </v>
   <v type="int" >        2        4        5       12       17 </v>
   <v type="int" >        4        4        5       17       18 </v>
   <v type="int" >        4        4        6       17       18 </v>
   <v type="int" >        4        4       17       18       21 </v>
   <v type="int" >        2        6       16       18       20 </v>
   <v type="int" >        2        6       17       18       20 </v>
   <v type="int" >        4       17       18       20       20 </v>
   <v type="int" >        4       18       20       20       21 </v>
   <v type="int" >        2       15       16       17       17 </v>
   <v type="int" >        4       16       17       17       20 </v>
   <v type="int" >        2       17       17       20       20 </v>
   <v type="int" >        2       14       15       17       17 </v>
   <v type="int" >        2       14       16       17       17 </v>
   <v type="int" >        2        6       10       14       15 </v>
   <v type="int" >        2        6       14       15       17 </v>
   <v type="int" >        2        3        6        8       14 </v>
   <v type="int" >        2        3        6       14       16 </v>
   <v type="int" >        2        5        8       10       12 </v>
   <v type="int" >        2        5        6        8       10 </v>
   <v type="int" >        6        3        5        6        8 </v>
   <v type="int" >        4        4        5        8       12 </v>
   <v type="int" >        2        4        5        8       18 </v>
   <v type="int" >        2        3        5        8       18 </v>
   <v type="int" >        2        5       17       18       20 </v>
   <v type="int" >        2        5       16       18       20 </v>
   <v type="int" >        4       17       20       21       21 </v>
   <v type="int" >        2       20       20       21       21 </v>
   <v type="int" >        2        3        6       16       17 </v>
   <v type="int" >        4        3       16       17       18 </v>
   <v type="int" >        4        3        5       16       18 </v>
   <v type="int" >        6        3        3        6       16 </v>
   <v type="int" >        4        3        5        6       16 </v>
   <v type="int" >        2        5       14       15       17 </v>
   <v type="int" >        2        5       10       14       15 </v>
   <v type="int" >        2        3        5       15       16 </v>
   <v type="int" >        2        3        5        7       15 </v>
   <v type="int" >        2        3        5       16       17 </v>
   <v type="int" >        6        3        3        5       16 </v>
   <v type="int" >        4        3        6       16       18 </v>
   <v type="int" >        2        4        6        7       18 </v>
   <v type="int" >        2        3        6        7       18 </v>
   <v type="int" >        6        3        5        6        7 </v>
   <v type="int" >        4        4        6        7       12 </v>
   <v type="int" >        2        6        7       10       12 </v>
   <v type="int" >        2        5        6        7       10 </v>
   <v type="int" >        2        4        8       11       12 </v>
   <v type="int" >        2        4        7       11       12 </v>
   <v type="int" >        4       10       11       11       12 </v>
   <v type="int" >        2        8       10       10       14 </v>
   <v type="int" >        2        8       10       10       11 </v>
   <v type="int" >        2       10       10       11       11 </v>
   <v type="int" >        2       10       10       14       15 </v>
   <v type="int" >        2        7       10       10       15 </v>
   <v type="int" >        2        7       10       10       11 </v>
   <v type="int" >        4        4       17       18       19 </v>
   <v type="int" >        2        4        5       10       17 </v>
   <v type="int" >        2        4        6       10       17 </v>
   <v type="int" >        2        5       15       16       18 </v>
   <v type="int" >        2        5       15       17       18 </v>
   <v type="int" >        2        5        7       11       15 </v>
   <v type="int" >        2        5       10       11       15 </v>
   <v type="int" >        2        7        7       13       16 </v>
   <v type="int" >        2        7        7       15       16 </v>
   <v type="int" >        2        7        7       11       15 </v>
   <v type="int" >        2        7        7        9       13 </v>
   <v type="int" >        2        7        7        8        9 </v>
   <v type="int" >        2        7        7        8       11 </v>
   <v type="int" >        4        2        4        9       13 </v>
   <v type="int" >        2        4        7        9       13 </v>
   <v type="int" >        4        4        7        8        9 </v>
   <v type="int" >        4        2        2        4        9 </v>
   <v type="int" >        4        2        3        4        9 </v>
   <v type="int" >        2        3        4        8        9 </v>
   <v type="int" >        4        2        2       18       19 </v>
   <v type="int" >        4        2        2        4       18 </v>
   <v type="int" >        2        2        4        6       18 </v>
   <v type="int" >        2        2        3        6       18 </v>
   <v type="int" >        2        6       14       17       18 </v>
   <v type="int" >        2        6       14       16       18 </v>
   <v type="int" >        2        6       10       11       14 </v>
   <v type="int" >        2        6        8       11       14 </v>
   <v type="int" >        2       10       10       15       17 </v>
   <v type="int" >        2       10       10       14       17 </v>
   <v type="int" >        2       10       10       11       14 </v>
   <v type="int" >        2       10       10       11       15 </v>
   <v type="int" >        4       10       10       10       11 </v>
   <v type="int" >        2        7       11       12       15 </v>
   <v type="int" >        2       10       11       12       15 </v>
   <v type="int" >        4       10       10       11       12 </v>
   <v type="int" >        4        7        8       11       12 </v>
   <v type="int" >        2        6        8       11       12 </v>
   <v type="int" >        2        6       10       11       12 </v>
   <v type="int" >        2        4        5        7        8 </v>
   <v type="int" >        2        5        7        8       12 </v>
   <v type="int" >        2        3        3        5        8 </v>
   <v type="int" >        4        3        4       16       18 </v>
   <v type="int" >        2        3        4        5       16 </v>
   <v type="int" >        2        3        6        8       16 </v>
   <v type="int" >        2        3        3        8       16 </v>
   <v type="int" >        2        8        8       14       16 </v>
   <v type="int" >        2        8        8       13       16 </v>
   <v type="int" >        2        8        8        9       13 </v>
   <v type="int" >        2        8        8       11       14 </v>
   <v type="int" >        2        7        8        8       11 </v>
   <v type="int" >        2        7        8        8        9 </v>
   <v type="int" >        2       10       11       12       14 </v>
   <v type="int" >        2        8       11       12       14 </v>
   <v type="int" >        2        5       10       11       12 </v>
   <v type="int" >        2        5        7       11       12 </v>
   <v type="int" >        4       10       10       12       12 </v>
   <v type="int" >        2        4        6       10       12 </v>
   <v type="int" >        2        4        5       10       12 </v>
   <v type="int" >        2        6        7       12       12 </v>
   <v type="int" >        2        2        3        6        7 </v>
   <v type="int" >        2        2        4        6        7 </v>
   <v type="int" >        2        3        5       13       16 </v>
   <v type="int" >        2        3        5        7       13 </v>
   <v type="int" >        2        3        8        9       13 </v>
   <v type="int" >        4        2        3        9       13 </v>
   <v type="int" >        2        4        8        9       13 </v>
   <v type="int" >        2        3        4        7        9 </v>
   <v type="int" >        2        6        7        8       12 </v>
   <v type="int" >        2        4        6        7        8 </v>
   <v type="int" >        2        3        3        6        7 </v>
   <v type="int" >        2        5        8       12       12 </v>
   <v type="int" >        2        2        4        5        8 </v>
   <v type="int" >        2        2        3        5        8 </v>
   <v type="int" >        2        4        7        9       12 </v>
   <v type="int" >        2        4        8        9       12 </v>
   <v type="int" >        4        1        2        4        9 </v>
   <v type="int" >        2        2        2        7       13 </v>
   <v type="int" >        2        2        2        7        9 </v>
   <v type="int" >        4        1        2        2        9 </v>
   <v type="int" >        4        2        2        9       13 </v>
   <v type="int" >        4        2        2        2        9 </v>
   <v type="int" >        4        1        2        2        2 </v>
   <v type="int" >        2        2        3        5       18 </v>
   <v type="int" >        2        2        4        5       18 </v>
   <v type="int" >        2        3        4        6       16 </v>
   <v type="int" >        2        3        3        7       16 </v>
   <v type="int" >        2        3        5        7       16 </v>
   <v type="int" >        2        3        6        8       13 </v>
   <v type="int" >        2        3        6       13       16 </v>
   <v type="int" >        2        3        7        9       13 </v>
   <v type="int" >        2        2        2        8        9 </v>
   <v type="int" >        2        2        2        8       13 </v>
   <v type="int" >        4        1        2        9       19 </v>
   <v type="int" >        4        1        2        2       19 </v>
   <v type="int" >        4        1        2        4       19 </v>
  </varray>
  <i name="volumeweight">      0.00133333 </i>
 </kpoints>
 <parameters>
  <separator name="general" >
   <i type="string" name="SYSTEM">unknown system</i>
   <i type="logical" name="LCOMPAT"> F  </i>
  </separator>
  <separator name="electronic" >
   <i type="string" name="PREC">accura</i>
   <i name="ENMAX">    680.00000000</i>
   <i name="ENAUG">   1360.00000000</i>
   <i name="EDIFF">      0.00001000</i>
   <i type="int" name="IALGO">    68</i>
   <i type="int" name="IWAVPR">    10</i>
   <i type="int" name="NBANDS">    60</i>
   <i type="int" name="NBANDSLOW">    -1</i>
   <i type="int" name="NBANDSHIGH">    -1</i>
   <i name="NELECT">     72.00000000</i>
   <i type="int" name="TURBO">     0</i>
   <i type="int" name="IRESTART">     0</i>
   <i type="int" name="NREBOOT">     0</i>
   <i type="int" name="NMIN">     0</i>
   <i name="EREF">      0.00000000</i>
   <separator name="electronic smearing" >
    <i type="int" name="ISMEAR">    -5</i>
    <i name="SIGMA">      0.05000000</i>
    <i name="KSPACING">      0.50000000</i>
    <i type="logical" name="KGAMMA"> T  </i>
    <i type="logical" name="KBLOWUP"> T  </i>
   </separator>
   <separator name="electronic projectors" >
    <i type="logical" name="LREAL"> F  </i>
    <v name="ROPT">      0.00000000      0.00000000      0.00000000      0.00000000</v>
    <i type="int" name="LMAXPAW">  -100</i>
    <i type="int" name="LMAXMIX">     4</i>
    <i type="logical" name="NLSPLINE"> F  </i>
   </separator>
   <separator name="electronic startup" >
    <i type="int" name="ISTART">     0</i>
    <i type="int" name="ICHARG">    11</i>
    <i type="int" name="INIWAV">     1</i>
   </separator>
   <separator name="electronic spin" >
    <i type="int" name="ISPIN">     1</i>
    <i type="logical" name="LNONCOLLINEAR"> F  </i>
    <v name="MAGMOM">      1.00000000      1.00000000      1.00000000      1.00000000      1.00000000      1.00000000      1.00000000      1.00000000</v>
    <i name="NUPDOWN">     -1.00000000</i>
    <i type="logical" name="LSORBIT"> F  </i>
    <v name="SAXIS">      0.00000000      0.00000000      1.00000000</v>
    <i type="logical" name="LSPIRAL"> F  </i>
    <v name="QSPIRAL">      0.00000000      0.00000000      0.00000000</v>
    <i type="logical" name="LZEROZ"> F  </i>
   </separator>
   <separator name="electronic exchange-correlation" >
    <i type="logical" name="LASPH"> T  </i>
    <i type="logical" name="LMETAGGA"> F  </i>
   </separator>
   <separator name="electronic convergence" >
    <i type="int" name="NELM">   200</i>
    <i type="int" name="NELMDL">    -5</i>
    <i type="int" name="NELMIN">     2</i>
    <i name="ENINI">    680.00000000</i>
    <separator name="electronic convergence detail" >
     <i type="logical" name="LDIAG"> T  </i>
     <i type="logical" name="LSUBROT"> F  </i>
     <i name="WEIMIN">      0.00000000</i>
     <i name="EBREAK">      0.00000004</i>
     <i name="DEPER">      0.30000000</i>
     <i type="int" name="NRMM">     4</i>
     <i name="TIME">      0.40000000</i>
    </separator>
   </separator>
   <separator name="electronic mixer" >
    <i name="AMIX">      0.40000000</i>
    <i name="BMIX">      1.00000000</i>
    <i name="AMIN">      0.10000000</i>
    <i name="AMIX_MAG">      1.60000000</i>
    <i name="BMIX_MAG">      1.00000000</i>
    <separator name="electronic mixer details" >
     <i type="int" name="IMIX">     4</i>
     <i type="logical" name="MIXFIRST"> F  </i>
     <i type="int" name="MAXMIX">   -45</i>
     <i name="WC">    100.00000000</i>
     <i type="int" name="INIMIX">     1</i>
     <i type="int" name="MIXPRE">     1</i>
     <i type="int" name="MREMOVE">     5</i>
    </separator>
   </separator>
   <separator name="electronic dipolcorrection" >
    <i type="logical" name="LDIPOL"> F  </i>
    <i type="logical" name="LMONO"> F  </i>
    <i type="int" name="IDIPOL">     0</i>
    <i name="EPSILON">      1.00000000</i>
    <v name="DIPOL">   -100.00000000   -100.00000000   -100.00000000</v>
    <i name="EFIELD">      0.00000000</i>
   </separator>
  </separator>
  <separator name="grids" >
   <i type="int" name="NGX">    56</i>
   <i type="int" name="NGY">    56</i>
   <i type="int" name="NGZ">    56</i>
   <i type="int" name="NGXF">   112</i>
   <i type="int" name="NGYF">   112</i>
   <i type="int" name="NGZF">   112</i>
   <i type="logical" name="ADDGRID"> F  </i>
  </separator>
  <separator name="ionic" >
   <i type="int" name="NSW">     0</i>
   <i type="int" name="IBRION">    -1</i>
   <i type="int" name="MDALGO">     0</i>
   <i type="int" name="ISIF">     2</i>
   <i name="PSTRESS">      0.00000000</i>
   <i name="EDIFFG">      0.00010000</i>
   <i type="int" name="NFREE">     0</i>
   <i name="POTIM">      0.50000000</i>
   <i name="SMASS">     -3.00000000</i>
   <i name="SCALEE">      1.00000000</i>
  </separator>
  <separator name="ionic md" >
   <i name="TEBEG">      0.00010000</i>
   <i name="TEEND">      0.00010000</i>
   <i type="int" name="NBLOCK">     1</i>
   <i type="int" name="KBLOCK">     1</i>
   <i type="int" name="NPACO">   256</i>
   <i name="APACO">     10.00000000</i>
  </separator>
  <separator name="symmetry" >
   <i type="int" name="ISYM">     2</i>
   <i name="SYMPREC">      0.00001000</i>
  </separator>
  <separator name="dos" >
   <i type="int" name="LORBIT">    11</i>
   <v name="RWIGS">     -1.00000000     -1.00000000     -1.00000000     -1.00000000</v>
   <i type="int" name="NEDOS">  2000</i>
   <i name="EMIN">     10.00000000</i>
   <i name="EMAX">    -10.00000000</i>
   <i name="EFERMI">      0.00000000</i>
  </separator>
  <separator name="writing" >
   <i type="int" name="NWRITE">     2</i>
   <i type="logical" name="LWAVE"> T  </i>
   <i type="logical" name="LDOWNSAMPLE"> F  </i>
   <i type="logical" name="LCHARG"> F  </i>
   <i type="logical" name="LPARD"> F  </i>
   <i type="logical" name="LVTOT"> T  </i>
   <i type="logical" name="LVHAR"> F  </i>
   <i type="logical" name="LELF"> F  </i>
   <i type="logical" name="LOPTICS"> T  </i>
   <v name="STM">      0.00000000      0.00000000      0.00000000      0.00000000      0.00000000      0.00000000      0.00000000</v>
  </separator>
  <separator name="performance" >
   <i type="int" name="NPAR">    12</i>
   <i type="int" name="NSIM">     4</i>
   <i type="int" name="NBLK">    -1</i>
   <i type="logical" name="LPLANE"> T  </i>
   <i type="logical" name="LSCALAPACK"> T  </i>
   <i type="logical" name="LSCAAWARE"> T  </i>
   <i type="logical" name="LSCALU"> F  </i>
   <i type="logical" name="LASYNC"> F  </i>
   <i type="logical" name="LORBITALREAL"> F  </i>
  </separator>
  <separator name="miscellaneous" >
   <i type="int" name="IDIOT">     3</i>
   <i type="int" name="PHON_NSTRUCT">    -1</i>
   <i type="logical" name="LMUSIC"> F  </i>
   <v name="POMASS">     65.39000000     63.54600000    118.71000000     32.06600000</v>
   <v name="DARWINR">      0.00000000      0.00000000      0.00000000      0.00000000</v>
   <v name="DARWINV">      1.00000000      1.00000000      1.00000000      1.00000000</v>
   <i type="logical" name="LCORR"> T  </i>
  </separator>
  <i type="logical" name="GGA_COMPAT"> T  </i>
  <i type="logical" name="LBERRY"> F  </i>
  <i type="int" name="ICORELEVEL">     0</i>
  <i type="logical" name="LDAU"> F  </i>
  <i type="int" name="I_CONSTRAINED_M">     0</i>
  <separator name="electronic exchange-correlation" >
   <i type="string" name="GGA">PS</i>
   <i type="int" name="VOSKOWN">     0</i>
   <i type="logical" name="LHFCALC"> F  </i>
   <i type="string" name="PRECFOCK"></i>
   <i type="logical" name="LSYMGRAD"> F  </i>
   <i type="logical" name="LHFONE"> F  </i>
   <i type="logical" name="LRHFCALC"> F  </i>
   <i type="logical" name="LTHOMAS"> F  </i>
   <i type="logical" name="LMODELHF"> F  </i>
   <i type="logical" name="LFOCKACE"> F  </i>
   <i name="ENCUT4O">     -1.00000000</i>
   <i type="int" name="EXXOEP">     0</i>
   <i type="int" name="FOURORBIT">     0</i>
   <i name="AEXX">      0.00000000</i>
   <i name="HFALPHA">      0.00000000</i>
   <i name="MCALPHA">      0.00000000</i>
   <i name="ALDAX">      1.00000000</i>
   <i name="AGGAX">      1.00000000</i>
   <i name="ALDAC">      1.00000000</i>
   <i name="AGGAC">      1.00000000</i>
   <i type="int" name="NKREDX">     1</i>
   <i type="int" name="NKREDY">     1</i>
   <i type="int" name="NKREDZ">     1</i>
   <i type="logical" name="SHIFTRED"> F  </i>
   <i type="logical" name="ODDONLY"> F  </i>
   <i type="logical" name="EVENONLY"> F  </i>
   <i type="int" name="LMAXFOCK">     0</i>
   <i type="int" name="NMAXFOCKAE">     0</i>
   <i type="logical" name="LFOCKAEDFT"> F  </i>
   <i name="HFSCREEN">      0.00000000</i>
   <i name="HFSCREENC">      0.00000000</i>
   <i type="int" name="NBANDSGWLOW">     0</i>
  </separator>
  <separator name="vdW DFT" >
   <i type="logical" name="LUSE_VDW"> F  </i>
   <i type="int" name="IVDW_NL">     1</i>
   <i type="logical" name="LSPIN_VDW"> F  </i>
   <i name="Zab_VDW">     -0.84910000</i>
   <i name="PARAM1">      0.12340000</i>
   <i name="PARAM2">      1.00000000</i>
   <i name="PARAM3">      0.00000000</i>
  </separator>
  <separator name="model GW" >
   <i type="int" name="MODEL_GW">     0</i>
   <i name="MODEL_EPS0">     11.87947813</i>
   <i name="MODEL_ALPHA">      1.00000000</i>
  </separator>
  <separator name="linear response parameters" >
   <i type="logical" name="LEPSILON"> F  </i>
   <i type="logical" name="LRPA"> F  </i>
   <i type="logical" name="LNABLA"> F  </i>
   <i type="logical" name="LVEL"> F  </i>
   <i name="CSHIFT">      0.00001000</i>
   <i name="OMEGAMAX">     -1.00000000</i>
   <i name="DEG_THRESHOLD">      0.00200000</i>
   <i name="RTIME">     -0.10000000</i>
   <i name="WPLASMAI">      0.00000000</i>
   <v name="DFIELD">      0.00000000      0.00000000      0.00000000</v>
   <v name="WPLASMA">      0.00000000      0.00000000      0.00000000      0.00000000      0.00000000      0.00000000      0.00000000      0.00000000      0.00000000</v>
  </separator>
  <separator name="orbital magnetization" >
   <i type="logical" name="NUCIND"> F  </i>
   <v name="MAGPOS">      0.00000000      0.00000000      0.00000000</v>
   <i type="logical" name="LNICSALL"> T  </i>
   <i type="logical" name="ORBITALMAG"> F  </i>
   <i type="logical" name="LMAGBLOCH"> F  </i>
   <i type="logical" name="LCHIMAG"> F  </i>
   <i type="logical" name="LGAUGE"> T  </i>
   <i type="int" name="MAGATOM">     0</i>
   <v name="MAGDIPOL">      0.00000000      0.00000000      0.00000000</v>
   <v name="AVECCONST">      0.00000000      0.00000000      0.00000000</v>
  </separator>
  <separator name="response functions" >
   <i type="logical" name="LALL_IN_ONE"> F  </i>
   <i type="int" name="IALL_IN_ONE">    -1</i>
   <i type="int" name="NBANDS_WAVE">    -1</i>
   <i type="logical" name="LFINITE_TEMPERATURE"> F  </i>
   <i type="logical" name="LADDER"> F  </i>
   <i type="logical" name="LRPAFORCE"> F  </i>
   <i type="logical" name="LFXC"> F  </i>
   <i type="logical" name="LHARTREE"> T  </i>
   <i type="int" name="IBSE">     0</i>
   <v type="int" name="KPOINT">    -1     0     0     0</v>
   <i type="logical" name="LTCTC"> F  </i>
   <i type="logical" name="LTCTE"> F  </i>
   <i type="logical" name="LTETE"> F  </i>
   <i type="logical" name="LTRIPLET"> F  </i>
   <i type="logical" name="LFXCEPS"> F  </i>
   <i type="logical" name="LFXHEG"> F  </i>
   <i type="int" name="NATURALO">     2</i>
   <i type="logical" name="LHOLEGF"> F  </i>
   <i type="logical" name="L2ORDER"> F  </i>
   <i type="logical" name="LDMP1"> F  </i>
   <i type="logical" name="LMP2LT"> F  </i>
   <i type="logical" name="LSMP2LT"> F  </i>
   <i type="logical" name="LGWLF"> F  </i>
   <i name="ENCUTGW">     -1.60000002</i>
   <i name="ENCUTGWSOFT">     -1.60000002</i>
   <i name="ENCUTLF">     -1.00000000</i>
   <i type="logical" name="LESF_SPLINES"> F  </i>
   <i type="int" name="LMAXMP2">    -1</i>
   <i name="SCISSOR">      0.00000000</i>
   <i type="int" name="NOMEGA">     0</i>
   <i type="int" name="NOMEGAR">     0</i>
   <i type="int" name="NBANDSGW">    -1</i>
   <i type="int" name="NBANDSO">    -1</i>
   <i type="int" name="NBANDSV">    -1</i>
   <i type="int" name="NELMGW">     1</i>
   <i type="int" name="NELMHF">     1</i>
   <i type="int" name="DIM">     3</i>
   <i type="int" name="IESPILON">     4</i>
   <i type="int" name="ANTIRES">     0</i>
   <i name="OMEGAMAX">    -30.00000000</i>
   <i name="OMEGAMIN">    -30.00000000</i>
   <i name="OMEGATL">   -200.00000000</i>
   <i type="int" name="OMEGAGRID">     0</i>
   <i name="CSHIFT">      0.00001000</i>
   <i type="logical" name="LSELFENERGY"> F  </i>
   <i type="logical" name="LSPECTRAL"> F  </i>
   <i type="logical" name="LSPECTRALGW"> F  </i>
   <i type="logical" name="LSINGLES"> F  </i>
   <i type="logical" name="LFERMIGW"> F  </i>
   <i type="logical" name="ODDONLYGW"> F  </i>
   <i type="logical" name="EVENONLYGW"> F  </i>
   <i type="int" name="NKREDLFX">     1</i>
   <i type="int" name="NKREDLFY">     1</i>
   <i type="int" name="NKREDLFZ">     1</i>
   <i type="int" name="MAXMEM">  2800</i>
   <i type="int" name="TELESCOPE">     0</i>
   <i type="int" name="NTAUPAR">    -1</i>
   <i type="int" name="NOMEGAPAR">    -1</i>
   <i name="DAMP_NEWTON">      0.80000001</i>
   <i name="LAMBDA">      1.00000000</i>
  </separator>
  <separator name="External order field" >
   <i name="OFIELD_KAPPA">      0.00000000</i>
   <v name="OFIELD_K">      0.00000000      0.00000000      0.00000000</v>
   <i name="OFIELD_Q6_NEAR">      0.00000000</i>
   <i name="OFIELD_Q6_FAR">      0.00000000</i>
   <i name="OFIELD_A">      0.00000000</i>
  </separator>
  <separator name="optional k-points parameters" >
   <i type="int" name="KPOINTS_OPT_MODE">     1</i>
   <i type="logical" name="LKPOINTS_OPT"> F  </i>
  </separator>
 </parameters>
 <atominfo>
  <atoms>       8 </atoms>
  <types>       4 </types>
  <array name="atoms" >
   <dimension dim="1">ion</dimension>
   <field type="string">element</field>
   <field type="int">atomtype</field>
   <set>
    <rc><c>Zn</c><c>   1</c></rc>
    <rc><c>Cu</c><c>   2</c></rc>
    <rc><c>Cu</c><c>   2</c></rc>
    <rc><c>Sn</c><c>   3</c></rc>
    <rc><c>S </c><c>   4</c></rc>
    <rc><c>S </c><c>   4</c></rc>
    <rc><c>S </c><c>   4</c></rc>
    <rc><c>S </c><c>   4</c></rc>
   </set>
  </array>
  <array name="atomtypes" >
   <dimension dim="1">type</dimension>
   <field type="int">atomspertype</field>
   <field type="string">element</field>
   <field>mass</field>
   <field>valence</field>
   <field type="string">pseudopotential</field>
   <set>
    <rc><c>   1</c><c>Zn</c><c>     65.39000000</c><c>     12.00000000</c><c>  PAW_PBE Zn 06Sep2000                  </c></rc>
    <rc><c>   2</c><c>Cu</c><c>     63.54600000</c><c>     11.00000000</c><c>  PAW_PBE Cu 22Jun2005                  </c></rc>
    <rc><c>   1</c><c>Sn</c><c>    118.71000000</c><c>     14.00000000</c><c>  PAW_PBE Sn_d 06Sep2000                </c></rc>
    <rc><c>   4</c><c>S </c><c>     32.06600000</c><c>      6.00000000</c><c>  PAW_PBE S 06Sep2000                   </c></rc>
   </set>
  </array>
 </atominfo>
 <structure name="initialpos" >
  <crystal>
   <varray name="basis" >
    <v>       4.93901185       0.00000000      -4.41848219 </v>
    <v>      -0.98753537       4.83927803      -4.41848219 </v>
    <v>       0.00000000       0.00000000       6.62697690 </v>
   </varray>
   <i name="volume">    158.39304179 </i>
   <varray name="rec_basis" >
    <v>       0.20246965       0.04131731       0.00000000 </v>
    <v>       0.00000000       0.20664239       0.00000000 </v>
    <v>       0.13499497       0.16532509       0.15089837 </v>
   </varray>
  </crystal>
  <varray name="positions" >
   <v>       0.75000000       0.25000000       0.50000000 </v>
   <v>       0.00000000       0.00000000       0.00000000 </v>
   <v>       0.25000000       0.75000000       0.50000000 </v>
   <v>       0.50000000       0.50000000       0.00000000 </v>
   <v>       0.36432714       0.37124032       0.47758056 </v>
   <v>       0.89365977       0.88674759       0.52241944 </v>
   <v>       0.11325241       0.63567286       0.00691218 </v>
   <v>       0.62875968       0.10634023       0.99308782 </v>
  </varray>
 </structure>
 <calculation>
  <scstep>
   <time name="dav">    0.56    0.56</time>
   <time name="total">    0.74    0.75</time>
   <energy>
    <i name="alphaZ">    202.50320330 </i>
    <i name="ewald">  -5034.42253749 </i>
    <i name="hartreedc">  -2381.54141530 </i>
    <i name="XCdc">    257.71606940 </i>
    <i name="pawpsdc">   8501.51294912 </i>
    <i name="pawaedc">  -8920.30715743 </i>
    <i name="eentropy">      0.00000000 </i>
    <i name="bandstr">    583.08521838 </i>
    <i name="atom">   7525.42945373 </i>
    <i name="e_fr_energy">    733.97578371 </i>
    <i name="e_wo_entrp">    733.97578371 </i>
    <i name="e_0_energy">    733.97578371 </i>
   </energy>
  </scstep>
  <scstep>
   <time name="dav">    0.50    0.50</time>
   <time name="total">    0.54    0.54</time>
   <energy>
    <i name="e_fr_energy">     87.67978672 </i>
    <i name="e_wo_entrp">     87.67978672 </i>
    <i name="e_0_energy">     87.67978672 </i>
   </energy>
  </scstep>
  <scstep>
   <time name="dav">    0.54    0.55</time>
   <time name="total">    0.57    0.58</time>
   <energy>
    <i name="e_fr_energy">    -29.00143995 </i>
    <i name="e_wo_entrp">    -29.00143995 </i>
    <i name="e_0_energy">    -29.00143995 </i>
   </energy>
  </scstep>
  <scstep>
   <time name="dav">    0.55    0.56</time>
   <time name="total">    0.57    0.59</time>
   <energy>
    <i name="e_fr_energy">    -35.54604827 </i>
    <i name="e_wo_entrp">    -35.54604827 </i>
    <i name="e_0_energy">    -35.54604827 </i>
   </energy>
  </scstep>
  <scstep>
   <time name="dav">    0.60    0.62</time>
   <time name="total">    0.63    0.64</time>
   <energy>
    <i name="e_fr_energy">    -35.79478712 </i>
    <i name="e_wo_entrp">    -35.79478712 </i>
    <i name="e_0_energy">    -35.79478712 </i>
   </energy>
  </scstep>
  <scstep>
   <time name="diag">    0.17    0.18</time>
   <time name="diis">    0.31    0.31</time>
   <time name="orth">    0.03    0.03</time>
   <time name="total">    0.53    0.54</time>
   <energy>
    <i name="e_fr_energy">    -35.80323172 </i>
    <i name="e_wo_entrp">    -35.80323172 </i>
    <i name="e_0_energy">    -35.80323172 </i>
   </energy>
  </scstep>
  <scstep>
   <time name="diag">    0.16    0.18</time>
   <time name="diis">    0.33    0.33</time>
   <time name="orth">    0.03    0.03</time>
   <time name="total">    0.55    0.56</time>
   <energy>
    <i name="e_fr_energy">    -35.80516810 </i>
    <i name="e_wo_entrp">    -35.80516810 </i>
    <i name="e_0_energy">    -35.80516810 </i>
   </energy>
  </scstep>
  <scstep>
   <time name="diag">    0.16    0.17</time>
   <time name="diis">    0.34    0.34</time>
   <time name="orth">    0.03    0.03</time>
   <time name="total">    0.56    0.57</time>
   <energy>
    <i name="e_fr_energy">    -35.80541698 </i>
    <i name="e_wo_entrp">    -35.80541698 </i>
    <i name="e_0_energy">    -35.80541698 </i>
   </energy>
  </scstep>
  <scstep>
   <time name="diag">    0.16    0.17</time>
   <time name="diis">    0.33    0.33</time>
   <time name="orth">    0.03    0.03</time>
   <time name="total">    0.54    0.56</time>
   <energy>
    <i name="e_fr_energy">    -35.80551578 </i>
    <i name="e_wo_entrp">    -35.80551578 </i>
    <i name="e_0_energy">    -35.80551578 </i>
   </energy>
  </scstep>
  <scstep>
   <time name="diag">    0.16    0.18</time>
   <time name="diis">    0.30    0.30</time>
   <time name="orth">    0.03    0.03</time>
   <time name="total">    0.52    0.53</time>
   <energy>
    <i name="e_fr_energy">    -35.80553657 </i>
    <i name="e_wo_entrp">    -35.80553657 </i>
    <i name="e_0_energy">    -35.80553657 </i>
   </energy>
  </scstep>
  <scstep>
   <time name="diag">    0.16    0.18</time>
   <time name="diis">    0.26    0.26</time>
   <time name="orth">    0.03    0.03</time>
   <time name="total">    0.48    0.50</time>
   <energy>
    <i name="e_fr_energy">    -35.80554491 </i>
    <i name="e_wo_entrp">    -35.80554491 </i>
    <i name="e_0_energy">    -35.80554491 </i>
   </energy>
  </scstep>
  <scstep>
   <time name="diag">    0.19    0.20</time>
   <time name="diis">    0.23    0.23</time>
   <time name="orth">    0.03    0.03</time>
   <time name="total">    0.47    0.49</time>
   <energy>
    <i name="alphaZ">    202.50320330 </i>
    <i name="ewald">  -5034.42253749 </i>
    <i name="hartreedc">  -2381.54141530 </i>
    <i name="XCdc">    257.71606940 </i>
    <i name="pawpsdc">   8501.51294912 </i>
    <i name="pawaedc">  -8920.30715743 </i>
    <i name="eentropy">      0.00000000 </i>
    <i name="bandstr">   -186.69611232 </i>
    <i name="atom">   7525.42945373 </i>
    <i name="e_fr_energy">    -35.80554699 </i>
    <i name="e_wo_entrp">    -35.80554699 </i>
    <i name="e_0_energy">    -35.80554699 </i>
   </energy>
  </scstep>
  <structure>
   <crystal>
    <varray name="basis" >
     <v>       4.93901185       0.00000000      -4.41848219 </v>
     <v>      -0.98753537       4.83927803      -4.41848219 </v>
     <v>       0.00000000       0.00000000       6.62697690 </v>
    </varray>
    <i name="volume">    158.39304179 </i>
    <varray name="rec_basis" >
     <v>       0.20246965       0.04131731       0.00000000 </v>
     <v>       0.00000000       0.20664239       0.00000000 </v>
     <v>       0.13499497       0.16532509       0.15089837 </v>
    </varray>
   </crystal>
   <varray name="positions" >
    <v>       0.75000000       0.25000000       0.50000000 </v>
    <v>       0.00000000       0.00000000       0.00000000 </v>
    <v>       0.25000000       0.75000000       0.50000000 </v>
    <v>       0.50000000       0.50000000       0.00000000 </v>
    <v>       0.36432714       0.37124032       0.47758056 </v>
    <v>       0.89365977       0.88674759       0.52241944 </v>
    <v>       0.11325241       0.63567286       0.00691218 </v>
    <v>       0.62875968       0.10634023       0.99308782 </v>
   </varray>
  </structure>
  <varray name="forces" >
   <v>      -0.00000000      -0.00000000       0.00000000 </v>
   <v>      -0.00000000      -0.00000000      -0.00000000 </v>
   <v>      -0.00000000       0.00000000      -0.00000000 </v>
   <v>      -0.00000000      -0.00000000      -0.00000000 </v>
   <v>      -0.09420979      -0.02151704      -0.15923523 </v>
   <v>       0.15701262       0.09843015       0.01878486 </v>
   <v>      -0.12017353       0.09660965       0.10449510 </v>
   <v>       0.05737071      -0.17352276       0.03595527 </v>
  </varray>
  <varray name="stress" >
   <v>     -14.28233286      -0.04747610       0.08669620 </v>
   <v>      -0.04747652     -14.30170952       0.10617451 </v>
   <v>       0.08669597       0.10617470     -14.43745097 </v>
  </varray>
  <energy>
   <i name="e_fr_energy">    -35.80554699 </i>
   <i name="e_wo_entrp">    -35.80554699 </i>
   <i name="e_0_energy">    -35.80554699 </i>
  </energy>
  <time name="totalsc">    7.81    8.02</time>
  <eigenvalues>
   <array>
    <dimension dim="1">band</dimension>
    <dimension dim="2">kpoint</dimension>
    <dimension dim="3">spin</dimension>
    <field>eigene</field>
    <field>occ</field>
    <set>
     <set comment="spin 1">
      <set comment="kpoint 1">
       <r>  -17.2910    1.0000 </r>
       <r>  -17.2870    1.0000 </r>
       <r>  -17.2870    1.0000 </r>
       <r>  -17.2064    1.0000 </r>
       <r>  -17.2014    1.0000 </r>
       <r>   -9.6917    1.0000 </r>
       <r>   -8.1376    1.0000 </r>
       <r>   -8.1203    1.0000 </r>
       <r>   -8.1203    1.0000 </r>
       <r>   -3.2325    1.0000 </r>
       <r>   -2.2871    1.0000 </r>
       <r>   -2.2177    1.0000 </r>
       <r>   -2.2080    1.0000 </r>
       <r>   -2.2080    1.0000 </r>
       <r>   -2.1075    1.0000 </r>
       <r>   -0.8969    1.0000 </r>
       <r>   -0.2808    1.0000 </r>
       <r>   -0.1247    1.0000 </r>
       <r>    0.3460    1.0000 </r>
       <r>    0.3789    1.0000 </r>
       <r>    0.3789    1.0000 </r>
       <r>    1.0354    1.0000 </r>
       <r>    1.0354    1.0000 </r>
       <r>    1.5178    1.0000 </r>
       <r>    1.5178    1.0000 </r>
       <r>    1.5399    1.0000 </r>
       <r>    2.6422    1.0000 </r>
       <r>    2.7104    1.0000 </r>
       <r>    2.9162    1.0000 </r>
       <r>    3.1762    1.0000 </r>
       <r>    3.1878    1.0000 </r>
       <r>    3.1878    1.0000 </r>
       <r>    3.3613    1.0000 </r>
       <r>    4.8305    1.0000 </r>
       <r>    4.8305    1.0000 </r>
       <r>    4.8945    1.0000 </r>
       <r>    5.0454    0.0000 </r>
       <r>    6.7471    0.0000 </r>
       <r>    7.6014    0.0000 </r>
       <r>    8.5483    0.0000 </r>
       <r>    8.5484    0.0000 </r>
       <r>    9.6869    0.0000 </r>
       <r>    9.9266    0.0000 </r>
       <r>   10.0949    0.0000 </r>
       <r>   10.0950    0.0000 </r>
       <r>   10.5818    0.0000 </r>
       <r>   11.6284    0.0000 </r>
       <r>   11.6284    0.0000 </r>
       <r>   11.7073    0.0000 </r>
       <r>   11.8422    0.0000 </r>
       <r>   14.5228    0.0000 </r>
       <r>   15.4705    0.0000 </r>
       <r>   15.4914    0.0000 </r>
       <r>   15.5173    0.0000 </r>
       <r>   15.5183    0.0000 </r>
       <r>   15.6769    0.0000 </r>
       <r>   15.7388    0.0000 </r>
       <r>   16.7697    0.0000 </r>
       <r>   16.8836    0.0000 </r>
       <r>   17.6378    0.0000 </r>
      </set>
      <set comment="kpoint 2">
       <r>  -17.2912    1.0000 </r>
       <r>  -17.2872    1.0000 </r>
       <r>  -17.2870    1.0000 </r>
       <r>  -17.2062    1.0000 </r>
       <r>  -17.2013    1.0000 </r>
       <r>   -9.5547    1.0000 </r>
       <r>   -8.2438    1.0000 </r>
       <r>   -8.1855    1.0000 </r>
       <r>   -8.1592    1.0000 </r>
       <r>   -3.1682    1.0000 </r>
       <r>   -2.2544    1.0000 </r>
       <r>   -2.2487    1.0000 </r>
       <r>   -2.2183    1.0000 </r>
       <r>   -2.2017    1.0000 </r>
       <r>   -2.0868    1.0000 </r>
       <r>   -0.9413    1.0000 </r>
       <r>   -0.4249    1.0000 </r>
       <r>   -0.1389    1.0000 </r>
       <r>    0.2003    1.0000 </r>
       <r>    0.5553    1.0000 </r>
       <r>    0.6702    1.0000 </r>
       <r>    0.9270    1.0000 </r>
       <r>    1.0345    1.0000 </r>
       <r>    1.4198    1.0000 </r>
       <r>    1.4858    1.0000 </r>
       <r>    1.6695    1.0000 </r>
       <r>    2.7343    1.0000 </r>
       <r>    2.8191    1.0000 </r>
       <r>    2.9430    1.0000 </r>
       <r>    3.0514    1.0000 </r>
       <r>    3.1284    1.0000 </r>
       <r>    3.3379    1.0000 </r>
       <r>    3.4654    1.0000 </r>
       <r>    4.0727    1.0000 </r>
       <r>    4.5091    1.0000 </r>
       <r>    4.7358    1.0000 </r>
       <r>    5.9210    0.0000 </r>
       <r>    7.3305    0.0000 </r>
       <r>    7.8555    0.0000 </r>
       <r>    8.2430    0.0000 </r>
       <r>    8.3949    0.0000 </r>
       <r>    9.5220    0.0000 </r>
       <r>    9.9685    0.0000 </r>
       <r>   10.1105    0.0000 </r>
       <r>   10.2297    0.0000 </r>
       <r>   10.5861    0.0000 </r>
       <r>   11.1713    0.0000 </r>
       <r>   11.8414    0.0000 </r>
       <r>   12.7003    0.0000 </r>
       <r>   13.1219    0.0000 </r>
       <r>   13.5198    0.0000 </r>
       <r>   14.1685    0.0000 </r>
       <r>   14.3422    0.0000 </r>
       <r>   14.5740    0.0000 </r>
       <r>   15.0953    0.0000 </r>
       <r>   15.2426    0.0000 </r>
       <r>   15.4421    0.0000 </r>
       <r>   16.4034    0.0000 </r>
       <r>   16.5905    0.0000 </r>
       <r>   17.0115    0.0000 </r>
      </set>
      <set comment="kpoint 3">
       <r>  -17.2915    1.0000 </r>
       <r>  -17.2875    1.0000 </r>
       <r>  -17.2870    1.0000 </r>
       <r>  -17.2059    1.0000 </r>
       <r>  -17.2011    1.0000 </r>
       <r>   -9.2051    1.0000 </r>
       <r>   -8.5951    1.0000 </r>
       <r>   -8.2631    1.0000 </r>
       <r>   -8.2050    1.0000 </r>
       <r>   -3.0622    1.0000 </r>
       <r>   -2.2943    1.0000 </r>
       <r>   -2.2546    1.0000 </r>
       <r>   -2.1953    1.0000 </r>
       <r>   -2.1744    1.0000 </r>
       <r>   -2.0510    1.0000 </r>
       <r>   -0.8911    1.0000 </r>
       <r>   -0.4880    1.0000 </r>
       <r>   -0.1557    1.0000 </r>
       <r>    0.2313    1.0000 </r>
       <r>    0.4620    1.0000 </r>
       <r>    0.5764    1.0000 </r>
       <r>    0.9140    1.0000 </r>
       <r>    1.1072    1.0000 </r>
       <r>    1.3616    1.0000 </r>
       <r>    1.4994    1.0000 </r>
       <r>    1.7542    1.0000 </r>
       <r>    2.8551    1.0000 </r>
       <r>    2.8888    1.0000 </r>
       <r>    2.9929    1.0000 </r>
       <r>    3.0562    1.0000 </r>
       <r>    3.1976    1.0000 </r>
       <r>    3.4701    1.0000 </r>
       <r>    3.6112    1.0000 </r>
       <r>    3.7823    1.0000 </r>
       <r>    3.9384    1.0000 </r>
       <r>    4.4329    1.0000 </r>
       <r>    6.4363    0.0000 </r>
       <r>    7.8965    0.0000 </r>
       <r>    8.0169    0.0000 </r>
       <r>    8.6326    0.0000 </r>
       <r>    8.9344    0.0000 </r>
       <r>    9.4965    0.0000 </r>
       <r>    9.9726    0.0000 </r>
       <r>   10.1795    0.0000 </r>
       <r>   10.7194    0.0000 </r>
       <r>   10.9091    0.0000 </r>
       <r>   11.0567    0.0000 </r>
       <r>   11.3941    0.0000 </r>
       <r>   12.1071    0.0000 </r>
       <r>   12.8060    0.0000 </r>
       <r>   12.8846    0.0000 </r>
       <r>   13.1807    0.0000 </r>
       <r>   13.6029    0.0000 </r>
       <r>   14.0256    0.0000 </r>
       <r>   14.1408    0.0000 </r>
       <r>   15.0164    0.0000 </r>
       <r>   15.4752    0.0000 </r>
       <r>   15.6682    0.0000 </r>
       <r>   16.9200    0.0000 </r>
       <r>   17.4846    0.0000 </r>
      </set>
      <set comment="kpoint 4">
       <r>  -17.2914    1.0000 </r>
       <r>  -17.2872    1.0000 </r>
       <r>  -17.2872    1.0000 </r>
       <r>  -17.2060    1.0000 </r>
       <r>  -17.2012    1.0000 </r>
       <r>   -9.3798    1.0000 </r>
       <r>   -8.3471    1.0000 </r>
       <r>   -8.2476    1.0000 </r>
       <r>   -8.2390    1.0000 </r>
       <r>   -3.1710    1.0000 </r>
       <r>   -2.2833    1.0000 </r>
       <r>   -2.2647    1.0000 </r>
       <r>   -2.1870    1.0000 </r>
       <r>   -2.1750    1.0000 </r>
       <r>   -2.0557    1.0000 </r>
       <r>   -1.0597    1.0000 </r>
       <r>   -0.6036    1.0000 </r>
       <r>    0.0752    1.0000 </r>
       <r>    0.2842    1.0000 </r>
       <r>    0.4901    1.0000 </r>
       <r>    0.6564    1.0000 </r>
       <r>    1.0116    1.0000 </r>
       <r>    1.1062    1.0000 </r>
       <r>    1.3772    1.0000 </r>
       <r>    1.6149    1.0000 </r>
       <r>    1.6686    1.0000 </r>
       <r>    2.7654    1.0000 </r>
       <r>    2.8992    1.0000 </r>
       <r>    2.9799    1.0000 </r>
       <r>    3.0643    1.0000 </r>
       <r>    3.1968    1.0000 </r>
       <r>    3.3705    1.0000 </r>
       <r>    3.5015    1.0000 </r>
       <r>    3.8196    1.0000 </r>
       <r>    4.5634    1.0000 </r>
       <r>    4.5895    1.0000 </r>
       <r>    5.9184    0.0000 </r>
       <r>    7.5328    0.0000 </r>
       <r>    7.6576    0.0000 </r>
       <r>    7.8800    0.0000 </r>
       <r>    8.5784    0.0000 </r>
       <r>    9.6909    0.0000 </r>
       <r>   10.0470    0.0000 </r>
       <r>   10.2332    0.0000 </r>
       <r>   10.3956    0.0000 </r>
       <r>   10.5986    0.0000 </r>
       <r>   11.8256    0.0000 </r>
       <r>   11.9401    0.0000 </r>
       <r>   12.2495    0.0000 </r>
       <r>   12.7790    0.0000 </r>
       <r>   12.9720    0.0000 </r>
       <r>   13.5397    0.0000 </r>
       <r>   14.3921    0.0000 </r>
       <r>   14.4843    0.0000 </r>
       <r>   14.8526    0.0000 </r>
       <r>   15.3573    0.0000 </r>
       <r>   15.5136    0.0000 </r>
       <r>   15.9252    0.0000 </r>
       <r>   16.7771    0.0000 </r>
       <r>   17.2111    0.0000 </r>
      </set>
      <set comment="kpoint 5">
       <r>  -17.2918    1.0000 </r>
       <r>  -17.2875    1.0000 </r>
       <r>  -17.2871    1.0000 </r>
       <r>  -17.2056    1.0000 </r>
       <r>  -17.2010    1.0000 </r>
       <r>   -9.0604    1.0000 </r>
       <r>   -8.6049    1.0000 </r>
       <r>   -8.3628    1.0000 </r>
       <r>   -8.2478    1.0000 </r>
       <r>   -3.1372    1.0000 </r>
       <r>   -2.3195    1.0000 </r>
       <r>   -2.2707    1.0000 </r>
       <r>   -2.1746    1.0000 </r>
       <r>   -2.1447    1.0000 </r>
       <r>   -2.0476    1.0000 </r>
       <r>   -1.0960    1.0000 </r>
       <r>   -0.7413    1.0000 </r>
       <r>   -0.2694    1.0000 </r>
       <r>    0.3512    1.0000 </r>
       <r>    0.5688    1.0000 </r>
       <r>    0.8198    1.0000 </r>
       <r>    1.0070    1.0000 </r>
       <r>    1.1626    1.0000 </r>
       <r>    1.4036    1.0000 </r>
       <r>    1.6451    1.0000 </r>
       <r>    1.7036    1.0000 </r>
       <r>    2.8297    1.0000 </r>
       <r>    2.8760    1.0000 </r>
       <r>    2.9787    1.0000 </r>
       <r>    3.0791    1.0000 </r>
       <r>    3.3814    1.0000 </r>
       <r>    3.4605    1.0000 </r>
       <r>    3.7011    1.0000 </r>
       <r>    3.8161    1.0000 </r>
       <r>    4.1195    1.0000 </r>
       <r>    4.3857    1.0000 </r>
       <r>    6.1294    0.0000 </r>
       <r>    7.6720    0.0000 </r>
       <r>    8.0415    0.0000 </r>
       <r>    8.4919    0.0000 </r>
       <r>    8.9115    0.0000 </r>
       <r>    9.6058    0.0000 </r>
       <r>    9.9449    0.0000 </r>
       <r>   10.3123    0.0000 </r>
       <r>   10.6549    0.0000 </r>
       <r>   10.9429    0.0000 </r>
       <r>   11.4331    0.0000 </r>
       <r>   11.6055    0.0000 </r>
       <r>   11.6779    0.0000 </r>
       <r>   12.2695    0.0000 </r>
       <r>   12.5531    0.0000 </r>
       <r>   13.0933    0.0000 </r>
       <r>   14.0788    0.0000 </r>
       <r>   14.4317    0.0000 </r>
       <r>   14.7067    0.0000 </r>
       <r>   15.1750    0.0000 </r>
       <r>   15.6588    0.0000 </r>
       <r>   16.0877    0.0000 </r>
       <r>   16.7028    0.0000 </r>
       <r>   17.0371    0.0000 </r>
      </set>
      <set comment="kpoint 6">
       <r>  -17.2918    1.0000 </r>
       <r>  -17.2875    1.0000 </r>
       <r>  -17.2871    1.0000 </r>
       <r>  -17.2056    1.0000 </r>
       <r>  -17.2010    1.0000 </r>
       <r>   -9.0605    1.0000 </r>
       <r>   -8.6046    1.0000 </r>
       <r>   -8.3636    1.0000 </r>
       <r>   -8.2471    1.0000 </r>
       <r>   -3.1404    1.0000 </r>
       <r>   -2.3116    1.0000 </r>
       <r>   -2.2600    1.0000 </r>
       <r>   -2.1779    1.0000 </r>
       <r>   -2.1495    1.0000 </r>
       <r>   -2.0594    1.0000 </r>
       <r>   -1.0708    1.0000 </r>
       <r>   -0.7504    1.0000 </r>
       <r>   -0.2601    1.0000 </r>
       <r>    0.2288    1.0000 </r>
       <r>    0.6567    1.0000 </r>
       <r>    0.8838    1.0000 </r>
       <r>    1.0164    1.0000 </r>
       <r>    1.0850    1.0000 </r>
       <r>    1.4306    1.0000 </r>
       <r>    1.6053    1.0000 </r>
       <r>    1.7415    1.0000 </r>
       <r>    2.8113    1.0000 </r>
       <r>    2.8928    1.0000 </r>
       <r>    2.9840    1.0000 </r>
       <r>    3.0467    1.0000 </r>
       <r>    3.3485    1.0000 </r>
       <r>    3.5558    1.0000 </r>
       <r>    3.6978    1.0000 </r>
       <r>    3.7939    1.0000 </r>
       <r>    4.1199    1.0000 </r>
       <r>    4.3674    1.0000 </r>
       <r>    6.1307    0.0000 </r>
       <r>    7.6656    0.0000 </r>
       <r>    8.0553    0.0000 </r>
       <r>    8.5194    0.0000 </r>
       <r>    8.7999    0.0000 </r>
       <r>    9.7341    0.0000 </r>
       <r>    9.9677    0.0000 </r>
       <r>   10.2998    0.0000 </r>
       <r>   10.6648    0.0000 </r>
       <r>   10.8380    0.0000 </r>
       <r>   11.4450    0.0000 </r>
       <r>   11.5896    0.0000 </r>
       <r>   11.7561    0.0000 </r>
       <r>   12.2168    0.0000 </r>
       <r>   12.5350    0.0000 </r>
       <r>   13.1056    0.0000 </r>
       <r>   14.1206    0.0000 </r>
       <r>   14.3603    0.0000 </r>
       <r>   14.8109    0.0000 </r>
       <r>   15.1401    0.0000 </r>
       <r>   15.6375    0.0000 </r>
       <r>   16.0840    0.0000 </r>
       <r>   16.7760    0.0000 </r>
       <r>   17.0441    0.0000 </r>
      </set>
      <set comment="kpoint 7">
       <r>  -17.2917    1.0000 </r>
       <r>  -17.2875    1.0000 </r>
       <r>  -17.2872    1.0000 </r>
       <r>  -17.2056    1.0000 </r>
       <r>  -17.2010    1.0000 </r>
       <r>   -9.1828    1.0000 </r>
       <r>   -8.5172    1.0000 </r>
       <r>   -8.3440    1.0000 </r>
       <r>   -8.1910    1.0000 </r>
       <r>   -3.1229    1.0000 </r>
       <r>   -2.3184    1.0000 </r>
       <r>   -2.2436    1.0000 </r>
       <r>   -2.1967    1.0000 </r>
       <r>   -2.1583    1.0000 </r>
       <r>   -2.0852    1.0000 </r>
       <r>   -1.1924    1.0000 </r>
       <r>   -0.7051    1.0000 </r>
       <r>   -0.2168    1.0000 </r>
       <r>    0.1248    1.0000 </r>
       <r>    0.5761    1.0000 </r>
       <r>    0.9487    1.0000 </r>
       <r>    1.0186    1.0000 </r>
       <r>    1.0772    1.0000 </r>
       <r>    1.4154    1.0000 </r>
       <r>    1.6556    1.0000 </r>
       <r>    1.7367    1.0000 </r>
       <r>    2.8165    1.0000 </r>
       <r>    2.8907    1.0000 </r>
       <r>    2.9554    1.0000 </r>
       <r>    3.1217    1.0000 </r>
       <r>    3.3283    1.0000 </r>
       <r>    3.4603    1.0000 </r>
       <r>    3.6226    1.0000 </r>
       <r>    3.8822    1.0000 </r>
       <r>    4.2219    1.0000 </r>
       <r>    4.3636    1.0000 </r>
       <r>    6.2268    0.0000 </r>
       <r>    7.8982    0.0000 </r>
       <r>    8.0630    0.0000 </r>
       <r>    8.3299    0.0000 </r>
       <r>    8.9502    0.0000 </r>
       <r>    9.5698    0.0000 </r>
       <r>    9.9633    0.0000 </r>
       <r>   10.4060    0.0000 </r>
       <r>   10.6651    0.0000 </r>
       <r>   10.9995    0.0000 </r>
       <r>   11.4992    0.0000 </r>
       <r>   11.7419    0.0000 </r>
       <r>   11.9115    0.0000 </r>
       <r>   12.1914    0.0000 </r>
       <r>   12.4849    0.0000 </r>
       <r>   13.1090    0.0000 </r>
       <r>   13.5843    0.0000 </r>
       <r>   14.3041    0.0000 </r>
       <r>   14.8522    0.0000 </r>
       <r>   15.4144    0.0000 </r>
       <r>   15.5647    0.0000 </r>
       <r>   15.8181    0.0000 </r>
       <r>   16.6170    0.0000 </r>
       <r>   17.0380    0.0000 </r>
      </set>
      <set comment="kpoint 8">
       <r>  -17.2917    1.0000 </r>
       <r>  -17.2875    1.0000 </r>
       <r>  -17.2872    1.0000 </r>
       <r>  -17.2056    1.0000 </r>
       <r>  -17.2010    1.0000 </r>
       <r>   -9.1829    1.0000 </r>
       <r>   -8.5173    1.0000 </r>
       <r>   -8.3440    1.0000 </r>
       <r>   -8.1906    1.0000 </r>
       <r>   -3.1339    1.0000 </r>
       <r>   -2.2671    1.0000 </r>
       <r>   -2.2534    1.0000 </r>
       <r>   -2.2112    1.0000 </r>
       <r>   -2.1529    1.0000 </r>
       <r>   -2.0991    1.0000 </r>
       <r>   -1.1843    1.0000 </r>
       <r>   -0.7412    1.0000 </r>
       <r>   -0.1369    1.0000 </r>
       <r>    0.0361    1.0000 </r>
       <r>    0.6429    1.0000 </r>
       <r>    0.8633    1.0000 </r>
       <r>    0.9886    1.0000 </r>
       <r>    1.1323    1.0000 </r>
       <r>    1.4401    1.0000 </r>
       <r>    1.5764    1.0000 </r>
       <r>    1.8245    1.0000 </r>
       <r>    2.8459    1.0000 </r>
       <r>    2.8906    1.0000 </r>
       <r>    2.9926    1.0000 </r>
       <r>    3.0210    1.0000 </r>
       <r>    3.3780    1.0000 </r>
       <r>    3.4287    1.0000 </r>
       <r>    3.6940    1.0000 </r>
       <r>    3.8164    1.0000 </r>
       <r>    4.2093    1.0000 </r>
       <r>    4.3788    1.0000 </r>
       <r>    6.2111    0.0000 </r>
       <r>    7.8810    0.0000 </r>
       <r>    8.0551    0.0000 </r>
       <r>    8.3763    0.0000 </r>
       <r>    9.0512    0.0000 </r>
       <r>    9.4454    0.0000 </r>
       <r>    9.9711    0.0000 </r>
       <r>   10.2451    0.0000 </r>
       <r>   10.8040    0.0000 </r>
       <r>   11.0560    0.0000 </r>
       <r>   11.5340    0.0000 </r>
       <r>   11.7738    0.0000 </r>
       <r>   11.8340    0.0000 </r>
       <r>   12.1900    0.0000 </r>
       <r>   12.4772    0.0000 </r>
       <r>   13.1057    0.0000 </r>
       <r>   13.5513    0.0000 </r>
       <r>   14.3751    0.0000 </r>
       <r>   14.8380    0.0000 </r>
       <r>   15.4271    0.0000 </r>
       <r>   15.5827    0.0000 </r>
       <r>   15.7745    0.0000 </r>
       <r>   16.6373    0.0000 </r>
       <r>   16.9553    0.0000 </r>
      </set>
      <set comment="kpoint 9">
       <r>  -17.2914    1.0000 </r>
       <r>  -17.2873    1.0000 </r>
       <r>  -17.2872    1.0000 </r>
       <r>  -17.2060    1.0000 </r>
       <r>  -17.2012    1.0000 </r>
       <r>   -9.4776    1.0000 </r>
       <r>   -8.3045    1.0000 </r>
       <r>   -8.2314    1.0000 </r>
       <r>   -8.1393    1.0000 </r>
       <r>   -3.1461    1.0000 </r>
       <r>   -2.2752    1.0000 </r>
       <r>   -2.2421    1.0000 </r>
       <r>   -2.2243    1.0000 </r>
       <r>   -2.1775    1.0000 </r>
       <r>   -2.1028    1.0000 </r>
       <r>   -1.1013    1.0000 </r>
       <r>   -0.6100    1.0000 </r>
       <r>   -0.0245    1.0000 </r>
       <r>    0.0635    1.0000 </r>
       <r>    0.4418    1.0000 </r>
       <r>    0.9398    1.0000 </r>
       <r>    0.9628    1.0000 </r>
       <r>    1.0965    1.0000 </r>
       <r>    1.2818    1.0000 </r>
       <r>    1.6136    1.0000 </r>
       <r>    1.7266    1.0000 </r>
       <r>    2.7653    1.0000 </r>
       <r>    2.8826    1.0000 </r>
       <r>    2.9481    1.0000 </r>
       <r>    3.0378    1.0000 </r>
       <r>    3.1181    1.0000 </r>
       <r>    3.4342    1.0000 </r>
       <r>    3.5820    1.0000 </r>
       <r>    3.8375    1.0000 </r>
       <r>    4.4410    1.0000 </r>
       <r>    4.7379    1.0000 </r>
       <r>    5.9932    0.0000 </r>
       <r>    7.4856    0.0000 </r>
       <r>    8.0811    0.0000 </r>
       <r>    8.4306    0.0000 </r>
       <r>    8.6608    0.0000 </r>
       <r>    9.5126    0.0000 </r>
       <r>    9.8121    0.0000 </r>
       <r>   10.2093    0.0000 </r>
       <r>   10.3966    0.0000 </r>
       <r>   10.4723    0.0000 </r>
       <r>   11.4869    0.0000 </r>
       <r>   11.7252    0.0000 </r>
       <r>   12.9070    0.0000 </r>
       <r>   12.9711    0.0000 </r>
       <r>   13.4407    0.0000 </r>
       <r>   13.6952    0.0000 </r>
       <r>   14.0213    0.0000 </r>
       <r>   14.3078    0.0000 </r>
       <r>   14.6521    0.0000 </r>
       <r>   14.7913    0.0000 </r>
       <r>   15.0632    0.0000 </r>
       <r>   16.4475    0.0000 </r>
       <r>   16.9458    0.0000 </r>
       <r>   17.0758    0.0000 </r>
      </set>
      <set comment="kpoint 10">
       <r>  -17.2922    1.0000 </r>
       <r>  -17.2877    1.0000 </r>
       <r>  -17.2873    1.0000 </r>
       <r>  -17.2052    1.0000 </r>
       <r>  -17.2009    1.0000 </r>
       <r>   -8.9047    1.0000 </r>
       <r>   -8.5014    1.0000 </r>
       <r>   -8.4358    1.0000 </r>
       <r>   -8.4092    1.0000 </r>
       <r>   -3.2430    1.0000 </r>
       <r>   -2.3189    1.0000 </r>
       <r>   -2.2611    1.0000 </r>
       <r>   -2.1438    1.0000 </r>
       <r>   -2.1375    1.0000 </r>
       <r>   -2.1090    1.0000 </r>
       <r>   -1.3868    1.0000 </r>
       <r>   -0.8979    1.0000 </r>
       <r>   -0.6166    1.0000 </r>
       <r>    0.5202    1.0000 </r>
       <r>    0.6378    1.0000 </r>
       <r>    1.0519    1.0000 </r>
       <r>    1.0822    1.0000 </r>
       <r>    1.2938    1.0000 </r>
       <r>    1.4998    1.0000 </r>
       <r>    1.6263    1.0000 </r>
       <r>    1.8125    1.0000 </r>
       <r>    2.8349    1.0000 </r>
       <r>    2.8786    1.0000 </r>
       <r>    2.9893    1.0000 </r>
       <r>    3.0897    1.0000 </r>
       <r>    3.4311    1.0000 </r>
       <r>    3.6232    1.0000 </r>
       <r>    3.9982    1.0000 </r>
       <r>    4.0525    1.0000 </r>
       <r>    4.2685    1.0000 </r>
       <r>    4.3300    1.0000 </r>
       <r>    5.6999    0.0000 </r>
       <r>    7.3690    0.0000 </r>
       <r>    8.2090    0.0000 </r>
       <r>    8.6571    0.0000 </r>
       <r>    9.0961    0.0000 </r>
       <r>    9.4931    0.0000 </r>
       <r>    9.8627    0.0000 </r>
       <r>   10.5056    0.0000 </r>
       <r>   10.6331    0.0000 </r>
       <r>   10.7796    0.0000 </r>
       <r>   11.1416    0.0000 </r>
       <r>   11.2410    0.0000 </r>
       <r>   11.8239    0.0000 </r>
       <r>   12.3910    0.0000 </r>
       <r>   12.6996    0.0000 </r>
       <r>   12.8475    0.0000 </r>
       <r>   14.2335    0.0000 </r>
       <r>   14.4275    0.0000 </r>
       <r>   15.3103    0.0000 </r>
       <r>   15.5282    0.0000 </r>
       <r>   15.7862    0.0000 </r>
       <r>   15.9923    0.0000 </r>
       <r>   16.7732    0.0000 </r>
       <r>   17.1640    0.0000 </r>
      </set>
      <set comment="kpoint 11">
       <r>  -17.2921    1.0000 </r>
       <r>  -17.2877    1.0000 </r>
       <r>  -17.2873    1.0000 </r>
       <r>  -17.2052    1.0000 </r>
       <r>  -17.2009    1.0000 </r>
       <r>   -9.0017    1.0000 </r>
       <r>   -8.5264    1.0000 </r>
       <r>   -8.3988    1.0000 </r>
       <r>   -8.2951    1.0000 </r>
       <r>   -3.2472    1.0000 </r>
       <r>   -2.3020    1.0000 </r>
       <r>   -2.2257    1.0000 </r>
       <r>   -2.1965    1.0000 </r>
       <r>   -2.1348    1.0000 </r>
       <r>   -2.1230    1.0000 </r>
       <r>   -1.5164    1.0000 </r>
       <r>   -0.8779    1.0000 </r>
       <r>   -0.3595    1.0000 </r>
       <r>    0.0279    1.0000 </r>
       <r>    0.8088    1.0000 </r>
       <r>    1.0480    1.0000 </r>
       <r>    1.1715    1.0000 </r>
       <r>    1.2771    1.0000 </r>
       <r>    1.5312    1.0000 </r>
       <r>    1.6303    1.0000 </r>
       <r>    1.8356    1.0000 </r>
       <r>    2.8564    1.0000 </r>
       <r>    2.9063    1.0000 </r>
       <r>    2.9550    1.0000 </r>
       <r>    3.0952    1.0000 </r>
       <r>    3.4616    1.0000 </r>
       <r>    3.6325    1.0000 </r>
       <r>    3.8063    1.0000 </r>
       <r>    3.9816    1.0000 </r>
       <r>    4.2770    1.0000 </r>
       <r>    4.5172    1.0000 </r>
       <r>    5.7951    0.0000 </r>
       <r>    7.4353    0.0000 </r>
       <r>    7.9357    0.0000 </r>
       <r>    8.8210    0.0000 </r>
       <r>    8.8867    0.0000 </r>
       <r>    9.6842    0.0000 </r>
       <r>   10.0629    0.0000 </r>
       <r>   10.4627    0.0000 </r>
       <r>   10.7336    0.0000 </r>
       <r>   10.8647    0.0000 </r>
       <r>   11.0225    0.0000 </r>
       <r>   11.5268    0.0000 </r>
       <r>   11.9556    0.0000 </r>
       <r>   12.1411    0.0000 </r>
       <r>   12.7283    0.0000 </r>
       <r>   12.8955    0.0000 </r>
       <r>   13.7071    0.0000 </r>
       <r>   14.7292    0.0000 </r>
       <r>   14.8310    0.0000 </r>
       <r>   15.4960    0.0000 </r>
       <r>   15.8284    0.0000 </r>
       <r>   16.2616    0.0000 </r>
       <r>   16.7076    0.0000 </r>
       <r>   16.8777    0.0000 </r>
      </set>
      <set comment="kpoint 12">
       <r>  -17.2921    1.0000 </r>
       <r>  -17.2876    1.0000 </r>
       <r>  -17.2874    1.0000 </r>
       <r>  -17.2052    1.0000 </r>
       <r>  -17.2009    1.0000 </r>
       <r>   -8.9662    1.0000 </r>
       <r>   -8.5275    1.0000 </r>
       <r>   -8.4128    1.0000 </r>
       <r>   -8.3268    1.0000 </r>
       <r>   -3.2426    1.0000 </r>
       <r>   -2.3078    1.0000 </r>
       <r>   -2.2562    1.0000 </r>
       <r>   -2.1638    1.0000 </r>
       <r>   -2.1390    1.0000 </r>
       <r>   -2.0971    1.0000 </r>
       <r>   -1.3554    1.0000 </r>
       <r>   -1.0477    1.0000 </r>
       <r>   -0.6531    1.0000 </r>
       <r>    0.5158    1.0000 </r>
       <r>    0.8046    1.0000 </r>
       <r>    1.0233    1.0000 </r>
       <r>    1.1312    1.0000 </r>
       <r>    1.2107    1.0000 </r>
       <r>    1.5068    1.0000 </r>
       <r>    1.6466    1.0000 </r>
       <r>    1.8442    1.0000 </r>
       <r>    2.8104    1.0000 </r>
       <r>    2.8813    1.0000 </r>
       <r>    2.9956    1.0000 </r>
       <r>    3.1039    1.0000 </r>
       <r>    3.4489    1.0000 </r>
       <r>    3.6634    1.0000 </r>
       <r>    3.8794    1.0000 </r>
       <r>    3.9978    1.0000 </r>
       <r>    4.1261    1.0000 </r>
       <r>    4.4407    1.0000 </r>
       <r>    5.8653    0.0000 </r>
       <r>    7.6642    0.0000 </r>
       <r>    7.9437    0.0000 </r>
       <r>    8.3330    0.0000 </r>
       <r>    9.0956    0.0000 </r>
       <r>    9.5169    0.0000 </r>
       <r>    9.9062    0.0000 </r>
       <r>   10.5158    0.0000 </r>
       <r>   10.6832    0.0000 </r>
       <r>   10.9412    0.0000 </r>
       <r>   11.4176    0.0000 </r>
       <r>   11.7043    0.0000 </r>
       <r>   11.7192    0.0000 </r>
       <r>   12.2814    0.0000 </r>
       <r>   12.4674    0.0000 </r>
       <r>   12.6256    0.0000 </r>
       <r>   14.2633    0.0000 </r>
       <r>   14.8656    0.0000 </r>
       <r>   15.3687    0.0000 </r>
       <r>   15.5969    0.0000 </r>
       <r>   15.7134    0.0000 </r>
       <r>   15.9768    0.0000 </r>
       <r>   16.4015    0.0000 </r>
       <r>   16.7377    0.0000 </r>
      </set>
      <set comment="kpoint 13">
       <r>  -17.2915    1.0000 </r>
       <r>  -17.2875    1.0000 </r>
       <r>  -17.2870    1.0000 </r>
       <r>  -17.2059    1.0000 </r>
       <r>  -17.2011    1.0000 </r>
       <r>   -9.2826    1.0000 </r>
       <r>   -8.4676    1.0000 </r>
       <r>   -8.3667    1.0000 </r>
       <r>   -8.1228    1.0000 </r>
       <r>   -3.0455    1.0000 </r>
       <r>   -2.3198    1.0000 </r>
       <r>   -2.2365    1.0000 </r>
       <r>   -2.1939    1.0000 </r>
       <r>   -2.1809    1.0000 </r>
       <r>   -2.0642    1.0000 </r>
       <r>   -0.9479    1.0000 </r>
       <r>   -0.5003    1.0000 </r>
       <r>   -0.0395    1.0000 </r>
       <r>    0.1296    1.0000 </r>
       <r>    0.4170    1.0000 </r>
       <r>    0.5801    1.0000 </r>
       <r>    0.7957    1.0000 </r>
       <r>    1.0450    1.0000 </r>
       <r>    1.4407    1.0000 </r>
       <r>    1.4915    1.0000 </r>
       <r>    1.8218    1.0000 </r>
       <r>    2.8607    1.0000 </r>
       <r>    2.8845    1.0000 </r>
       <r>    2.9692    1.0000 </r>
       <r>    3.0500    1.0000 </r>
       <r>    3.2160    1.0000 </r>
       <r>    3.4031    1.0000 </r>
       <r>    3.5589    1.0000 </r>
       <r>    3.9550    1.0000 </r>
       <r>    4.1059    1.0000 </r>
       <r>    4.3554    1.0000 </r>
       <r>    6.4595    0.0000 </r>
       <r>    7.7901    0.0000 </r>
       <r>    8.0903    0.0000 </r>
       <r>    8.5118    0.0000 </r>
       <r>    8.9004    0.0000 </r>
       <r>    9.5486    0.0000 </r>
       <r>   10.3954    0.0000 </r>
       <r>   10.4451    0.0000 </r>
       <r>   10.9132    0.0000 </r>
       <r>   11.0710    0.0000 </r>
       <r>   11.1420    0.0000 </r>
       <r>   11.6760    0.0000 </r>
       <r>   12.0692    0.0000 </r>
       <r>   12.2046    0.0000 </r>
       <r>   12.5058    0.0000 </r>
       <r>   12.5991    0.0000 </r>
       <r>   12.8192    0.0000 </r>
       <r>   14.2227    0.0000 </r>
       <r>   14.3703    0.0000 </r>
       <r>   15.4629    0.0000 </r>
       <r>   15.7903    0.0000 </r>
       <r>   16.1096    0.0000 </r>
       <r>   16.8776    0.0000 </r>
       <r>   17.7111    0.0000 </r>
      </set>
      <set comment="kpoint 14">
       <r>  -17.2918    1.0000 </r>
       <r>  -17.2875    1.0000 </r>
       <r>  -17.2871    1.0000 </r>
       <r>  -17.2056    1.0000 </r>
       <r>  -17.2010    1.0000 </r>
       <r>   -8.9606    1.0000 </r>
       <r>   -8.5660    1.0000 </r>
       <r>   -8.5513    1.0000 </r>
       <r>   -8.2236    1.0000 </r>
       <r>   -3.1492    1.0000 </r>
       <r>   -2.3256    1.0000 </r>
       <r>   -2.2811    1.0000 </r>
       <r>   -2.1675    1.0000 </r>
       <r>   -2.1280    1.0000 </r>
       <r>   -2.0175    1.0000 </r>
       <r>   -1.0901    1.0000 </r>
       <r>   -0.6003    1.0000 </r>
       <r>   -0.2529    1.0000 </r>
       <r>    0.0703    1.0000 </r>
       <r>    0.7493    1.0000 </r>
       <r>    0.9532    1.0000 </r>
       <r>    0.9772    1.0000 </r>
       <r>    1.0677    1.0000 </r>
       <r>    1.4524    1.0000 </r>
       <r>    1.5738    1.0000 </r>
       <r>    1.7407    1.0000 </r>
       <r>    2.8368    1.0000 </r>
       <r>    2.8766    1.0000 </r>
       <r>    2.9254    1.0000 </r>
       <r>    3.0598    1.0000 </r>
       <r>    3.3078    1.0000 </r>
       <r>    3.5201    1.0000 </r>
       <r>    3.7433    1.0000 </r>
       <r>    3.8921    1.0000 </r>
       <r>    4.1868    1.0000 </r>
       <r>    4.1962    1.0000 </r>
       <r>    6.1647    0.0000 </r>
       <r>    7.6591    0.0000 </r>
       <r>    8.0052    0.0000 </r>
       <r>    8.5422    0.0000 </r>
       <r>    8.8445    0.0000 </r>
       <r>    9.4926    0.0000 </r>
       <r>    9.9827    0.0000 </r>
       <r>   10.2663    0.0000 </r>
       <r>   10.7813    0.0000 </r>
       <r>   10.9577    0.0000 </r>
       <r>   11.0120    0.0000 </r>
       <r>   11.4278    0.0000 </r>
       <r>   11.7914    0.0000 </r>
       <r>   11.9145    0.0000 </r>
       <r>   13.0402    0.0000 </r>
       <r>   13.5071    0.0000 </r>
       <r>   13.8292    0.0000 </r>
       <r>   14.3713    0.0000 </r>
       <r>   14.6295    0.0000 </r>
       <r>   15.1579    0.0000 </r>
       <r>   16.1548    0.0000 </r>
       <r>   16.2814    0.0000 </r>
       <r>   16.6815    0.0000 </r>
       <r>   16.9451    0.0000 </r>
      </set>
      <set comment="kpoint 15">
       <r>  -17.2918    1.0000 </r>
       <r>  -17.2875    1.0000 </r>
       <r>  -17.2871    1.0000 </r>
       <r>  -17.2056    1.0000 </r>
       <r>  -17.2010    1.0000 </r>
       <r>   -8.9604    1.0000 </r>
       <r>   -8.5693    1.0000 </r>
       <r>   -8.5479    1.0000 </r>
       <r>   -8.2240    1.0000 </r>
       <r>   -3.1384    1.0000 </r>
       <r>   -2.3536    1.0000 </r>
       <r>   -2.2832    1.0000 </r>
       <r>   -2.1655    1.0000 </r>
       <r>   -2.1293    1.0000 </r>
       <r>   -1.9977    1.0000 </r>
       <r>   -1.1135    1.0000 </r>
       <r>   -0.5563    1.0000 </r>
       <r>   -0.3729    1.0000 </r>
       <r>    0.2716    1.0000 </r>
       <r>    0.7687    1.0000 </r>
       <r>    0.8158    1.0000 </r>
       <r>    0.9470    1.0000 </r>
       <r>    1.1188    1.0000 </r>
       <r>    1.4653    1.0000 </r>
       <r>    1.5952    1.0000 </r>
       <r>    1.6796    1.0000 </r>
       <r>    2.8245    1.0000 </r>
       <r>    2.8554    1.0000 </r>
       <r>    2.9515    1.0000 </r>
       <r>    3.1381    1.0000 </r>
       <r>    3.3425    1.0000 </r>
       <r>    3.4230    1.0000 </r>
       <r>    3.6579    1.0000 </r>
       <r>    3.9486    1.0000 </r>
       <r>    4.1542    1.0000 </r>
       <r>    4.2751    1.0000 </r>
       <r>    6.1710    0.0000 </r>
       <r>    7.6530    0.0000 </r>
       <r>    7.9754    0.0000 </r>
[...]
        <r>  0.0000  0.0112  0.0020  0.0014  0.0445  0.0248  0.1193  0.0588  0.0271 </r>
        <r>  0.0000  0.0047  0.0022  0.0078  0.0004  0.0013  0.0015  0.0013  0.0012 </r>
        <r>  0.0001  0.0131  0.0027  0.0154  0.0000  0.0000  0.0000  0.0000  0.0000 </r>
        <r>  0.0001  0.0071  0.0039  0.0202  0.0000  0.0000  0.0000  0.0000  0.0000 </r>
        <r>  0.0010  0.0127  0.0188  0.0280  0.0000  0.0000  0.0000  0.0000  0.0000 </r>
        <r>  0.0010  0.0057  0.0034  0.0504  0.0000  0.0000  0.0000  0.0000  0.0000 </r>
       </set>
       <set comment="band 37">
        <r>  0.0001  0.0000  0.0000  0.0000  0.0009  0.0033  0.0003  0.0008  0.0080 </r>
        <r>  0.0000  0.0005  0.0015  0.0003  0.0091  0.0359  0.0224  0.0239  0.0004 </r>
        <r>  0.0001  0.0001  0.0003  0.0001  0.0231  0.0010  0.0018  0.0200  0.0234 </r>
        <r>  0.1843  0.0001  0.0004  0.0001  0.0000  0.0001  0.0001  0.0001  0.0000 </r>
        <r>  0.0040  0.0022  0.0745  0.0019  0.0000  0.0000  0.0000  0.0000  0.0000 </r>
        <r>  0.0040  0.0398  0.0088  0.0300  0.0000  0.0000  0.0000  0.0000  0.0000 </r>
        <r>  0.0040  0.0026  0.0325  0.0434  0.0000  0.0000  0.0000  0.0000  0.0000 </r>
        <r>  0.0040  0.0439  0.0295  0.0052  0.0000  0.0000  0.0000  0.0000  0.0000 </r>
       </set>
       <set comment="band 38">
        <r>  0.0000  0.0189  0.0014  0.0087  0.0003  0.0036  0.0000  0.0059  0.0045 </r>
        <r>  0.0000  0.0060  0.0036  0.0016  0.0117  0.0011  0.0325  0.0071  0.0005 </r>
        <r>  0.0000  0.0070  0.0000  0.0086  0.0054  0.0061  0.0078  0.0233  0.0112 </r>
        <r>  0.0000  0.0651  0.0312  0.0071  0.0062  0.0006  0.0172  0.0035  0.0002 </r>
        <r>  0.0240  0.0016  0.0109  0.0021  0.0000  0.0000  0.0000  0.0000  0.0000 </r>
        <r>  0.0240  0.0038  0.0045  0.0063  0.0000  0.0000  0.0000  0.0000  0.0000 </r>
        <r>  0.0022  0.0023  0.0015  0.0021  0.0000  0.0000  0.0000  0.0000  0.0000 </r>
        <r>  0.0022  0.0017  0.0028  0.0014  0.0000  0.0000  0.0000  0.0000  0.0000 </r>
       </set>
       <set comment="band 39">
        <r>  0.0000  0.0043  0.0082  0.0164  0.0029  0.0012  0.0095  0.0004  0.0002 </r>
        <r>  0.0000  0.0030  0.0001  0.0082  0.0002  0.0165  0.0028  0.0164  0.0169 </r>
        <r>  0.0000  0.0055  0.0052  0.0050  0.0068  0.0118  0.0281  0.0006  0.0065 </r>
        <r>  0.0000  0.0176  0.0033  0.0825  0.0001  0.0087  0.0012  0.0088  0.0090 </r>
        <r>  0.0022  0.0019  0.0007  0.0033  0.0000  0.0000  0.0000  0.0000  0.0000 </r>
        <r>  0.0022  0.0030  0.0003  0.0026  0.0000  0.0000  0.0000  0.0000  0.0000 </r>
        <r>  0.0240  0.0026  0.0076  0.0044  0.0000  0.0000  0.0000  0.0000  0.0000 </r>
        <r>  0.0240  0.0081  0.0049  0.0016  0.0000  0.0000  0.0000  0.0000  0.0000 </r>
       </set>
       <set comment="band 40">
        <r>  0.0059  0.0007  0.0022  0.0004  0.0017  0.0002  0.0002  0.0005  0.0000 </r>
        <r>  0.0013  0.0099  0.0330  0.0066  0.0097  0.0028  0.0015  0.0012  0.0009 </r>
        <r>  0.0020  0.0004  0.0015  0.0003  0.0034  0.0018  0.0005  0.0001  0.0018 </r>
        <r>  0.0013  0.0404  0.1348  0.0269  0.0123  0.0020  0.0015  0.0020  0.0002 </r>
        <r>  0.0140  0.0062  0.0023  0.0038  0.0000  0.0000  0.0000  0.0000  0.0000 </r>
        <r>  0.0139  0.0027  0.0075  0.0021  0.0000  0.0000  0.0000  0.0000  0.0000 </r>
        <r>  0.0140  0.0058  0.0020  0.0046  0.0000  0.0000  0.0000  0.0000  0.0000 </r>
        <r>  0.0140  0.0031  0.0013  0.0079  0.0000  0.0000  0.0000  0.0000  0.0000 </r>
       </set>
       <set comment="band 41">
        <r>  0.1815  0.0028  0.0094  0.0019  0.0003  0.0005  0.0001  0.0001  0.0009 </r>
        <r>  0.0033  0.0002  0.0006  0.0001  0.0003  0.0049  0.0006  0.0029  0.0134 </r>
        <r>  0.0000  0.0033  0.0111  0.0022  0.0029  0.0146  0.0090  0.0099  0.0012 </r>
        <r>  0.0051  0.0004  0.0012  0.0002  0.0012  0.0012  0.0001  0.0031  0.0074 </r>
        <r>  0.0138  0.0042  0.0131  0.0149  0.0000  0.0000  0.0000  0.0000  0.0000 </r>
        <r>  0.0138  0.0130  0.0169  0.0022  0.0000  0.0000  0.0000  0.0000  0.0000 </r>
        <r>  0.0138  0.0149  0.0087  0.0085  0.0000  0.0000  0.0000  0.0000  0.0000 </r>
        <r>  0.0138  0.0015  0.0272  0.0034  0.0000  0.0000  0.0000  0.0000  0.0000 </r>
       </set>
       <set comment="band 42">
        <r>  0.0628  0.0137  0.0455  0.0091  0.0014  0.0013  0.0003  0.0001  0.0017 </r>
        <r>  0.0078  0.0002  0.0008  0.0002  0.0011  0.0012  0.0000  0.0032  0.0077 </r>
        <r>  0.0107  0.0067  0.0223  0.0045  0.0077  0.0051  0.0038  0.0062  0.0012 </r>
        <r>  0.0049  0.0021  0.0071  0.0014  0.0003  0.0035  0.0011  0.0026  0.0068 </r>
        <r>  0.0099  0.0024  0.0041  0.0045  0.0000  0.0000  0.0000  0.0000  0.0000 </r>
        <r>  0.0099  0.0042  0.0055  0.0014  0.0000  0.0000  0.0000  0.0000  0.0000 </r>
        <r>  0.0099  0.0044  0.0038  0.0029  0.0000  0.0000  0.0000  0.0000  0.0000 </r>
        <r>  0.0099  0.0010  0.0082  0.0019  0.0000  0.0000  0.0000  0.0000  0.0000 </r>
       </set>
       <set comment="band 43">
        <r>  0.0032  0.0005  0.0015  0.0003  0.0015  0.0080  0.0044  0.0051  0.0032 </r>
        <r>  0.0748  0.0000  0.0000  0.0000  0.0005  0.0030  0.0010  0.0029  0.0062 </r>
        <r>  0.1322  0.0000  0.0000  0.0000  0.0006  0.0023  0.0010  0.0025  0.0041 </r>
        <r>  0.0007  0.0005  0.0017  0.0003  0.0034  0.0093  0.0054  0.0088  0.0062 </r>
        <r>  0.0030  0.0054  0.0058  0.0008  0.0000  0.0000  0.0000  0.0000  0.0000 </r>
        <r>  0.0030  0.0005  0.0090  0.0025  0.0000  0.0000  0.0000  0.0000  0.0000 </r>
        <r>  0.0030  0.0017  0.0100  0.0002  0.0000  0.0000  0.0000  0.0000  0.0000 </r>
        <r>  0.0030  0.0028  0.0051  0.0041  0.0000  0.0000  0.0000  0.0000  0.0000 </r>
       </set>
       <set comment="band 44">
        <r>  0.0030  0.0047  0.0158  0.0032  0.0031  0.0023  0.0016  0.0037  0.0027 </r>
        <r>  0.1320  0.0009  0.0029  0.0006  0.0000  0.0008  0.0000  0.0008  0.0032 </r>
        <r>  0.0740  0.0040  0.0132  0.0026  0.0003  0.0029  0.0002  0.0012  0.0080 </r>
        <r>  0.0012  0.0019  0.0064  0.0013  0.0012  0.0071  0.0038  0.0047  0.0037 </r>
        <r>  0.0031  0.0009  0.0083  0.0030  0.0000  0.0000  0.0000  0.0000  0.0000 </r>
        <r>  0.0031  0.0035  0.0057  0.0031  0.0000  0.0000  0.0000  0.0000  0.0000 </r>
        <r>  0.0031  0.0035  0.0058  0.0029  0.0000  0.0000  0.0000  0.0000  0.0000 </r>
        <r>  0.0031  0.0041  0.0075  0.0007  0.0000  0.0000  0.0000  0.0000  0.0000 </r>
       </set>
       <set comment="band 45">
        <r>  0.0000  0.0179  0.0031  0.0209  0.0002  0.0024  0.0014  0.0016  0.0022 </r>
        <r>  0.0000  0.0211  0.0003  0.0401  0.0001  0.0012  0.0001  0.0016  0.0013 </r>
        <r>  0.0000  0.0045  0.0011  0.0152  0.0014  0.0009  0.0023  0.0047  0.0020 </r>
        <r>  0.0000  0.0570  0.0019  0.1182  0.0001  0.0004  0.0001  0.0009  0.0006 </r>
        <r>  0.0001  0.0123  0.0021  0.0107  0.0000  0.0000  0.0000  0.0000  0.0000 </r>
        <r>  0.0001  0.0160  0.0003  0.0088  0.0000  0.0000  0.0000  0.0000  0.0000 </r>
        <r>  0.0007  0.0033  0.0081  0.0274  0.0000  0.0000  0.0000  0.0000  0.0000 </r>
        <r>  0.0007  0.0232  0.0072  0.0085  0.0000  0.0000  0.0000  0.0000  0.0000 </r>
       </set>
       <set comment="band 46">
        <r>  0.0000  0.0157  0.0108  0.0154  0.0016  0.0001  0.0038  0.0019  0.0004 </r>
        <r>  0.0000  0.0281  0.0202  0.0131  0.0009  0.0002  0.0027  0.0003  0.0000 </r>
        <r>  0.0000  0.0122  0.0058  0.0029  0.0012  0.0028  0.0052  0.0003  0.0017 </r>
        <r>  0.0000  0.0847  0.0571  0.0353  0.0004  0.0003  0.0013  0.0000  0.0001 </r>
        <r>  0.0007  0.0039  0.0327  0.0023  0.0000  0.0000  0.0000  0.0000  0.0000 </r>
        <r>  0.0007  0.0227  0.0005  0.0157  0.0000  0.0000  0.0000  0.0000  0.0000 </r>
        <r>  0.0001  0.0063  0.0061  0.0128  0.0000  0.0000  0.0000  0.0000  0.0000 </r>
        <r>  0.0001  0.0048  0.0104  0.0100  0.0000  0.0000  0.0000  0.0000  0.0000 </r>
       </set>
       <set comment="band 47">
        <r>  0.0032  0.0004  0.0012  0.0002  0.0172  0.0030  0.0024  0.0035  0.0001 </r>
        <r>  0.0188  0.0001  0.0003  0.0001  0.0023  0.0114  0.0072  0.0076  0.0001 </r>
        <r>  0.0027  0.0001  0.0002  0.0000  0.0162  0.0048  0.0024  0.0018  0.0019 </r>
        <r>  0.0019  0.0002  0.0006  0.0001  0.0037  0.0159  0.0099  0.0107  0.0002 </r>
        <r>  0.0042  0.0057  0.0137  0.0052  0.0000  0.0000  0.0000  0.0000  0.0000 </r>
        <r>  0.0042  0.0040  0.0186  0.0020  0.0000  0.0000  0.0000  0.0000  0.0000 </r>
        <r>  0.0042  0.0073  0.0150  0.0022  0.0000  0.0000  0.0000  0.0000  0.0000 </r>
        <r>  0.0042  0.0032  0.0171  0.0044  0.0000  0.0000  0.0000  0.0000  0.0000 </r>
       </set>
       <set comment="band 48">
        <r>  0.0122  0.0002  0.0007  0.0001  0.0013  0.0064  0.0040  0.0042  0.0003 </r>
        <r>  0.0005  0.0000  0.0000  0.0000  0.0158  0.0028  0.0020  0.0025  0.0003 </r>
        <r>  0.0131  0.0002  0.0007  0.0001  0.0016  0.0082  0.0051  0.0055  0.0001 </r>
        <r>  0.0016  0.0003  0.0011  0.0002  0.0314  0.0089  0.0045  0.0033  0.0035 </r>
        <r>  0.0100  0.0026  0.0152  0.0046  0.0000  0.0000  0.0000  0.0000  0.0000 </r>
        <r>  0.0100  0.0064  0.0135  0.0026  0.0000  0.0000  0.0000  0.0000  0.0000 </r>
        <r>  0.0100  0.0059  0.0119  0.0047  0.0000  0.0000  0.0000  0.0000  0.0000 </r>
        <r>  0.0100  0.0042  0.0165  0.0018  0.0000  0.0000  0.0000  0.0000  0.0000 </r>
       </set>
       <set comment="band 49">
        <r>  0.0000  0.0753  0.0047  0.0395  0.0001  0.0007  0.0006  0.0006  0.0006 </r>
        <r>  0.0000  0.0059  0.0003  0.0040  0.0005  0.0034  0.0023  0.0026  0.0031 </r>
        <r>  0.0000  0.0492  0.0083  0.0163  0.0002  0.0007  0.0002  0.0017  0.0010 </r>
        <r>  0.0000  0.0246  0.0020  0.0165  0.0002  0.0022  0.0006  0.0027  0.0024 </r>
        <r>  0.0000  0.0011  0.0032  0.0294  0.0000  0.0000  0.0000  0.0000  0.0000 </r>
        <r>  0.0000  0.0052  0.0068  0.0217  0.0000  0.0000  0.0000  0.0000  0.0000 </r>
        <r>  0.0000  0.0034  0.0035  0.0213  0.0000  0.0000  0.0000  0.0000  0.0000 </r>
        <r>  0.0000  0.0069  0.0025  0.0189  0.0000  0.0000  0.0000  0.0000  0.0000 </r>
       </set>
       <set comment="band 50">
        <r>  0.0000  0.0203  0.0352  0.0640  0.0004  0.0002  0.0011  0.0006  0.0002 </r>
        <r>  0.0000  0.0022  0.0031  0.0048  0.0022  0.0005  0.0057  0.0027  0.0008 </r>
        <r>  0.0000  0.0098  0.0163  0.0477  0.0006  0.0006  0.0023  0.0000  0.0003 </r>
        <r>  0.0000  0.0100  0.0123  0.0209  0.0016  0.0005  0.0048  0.0009  0.0003 </r>
        <r>  0.0000  0.0151  0.0119  0.0013  0.0000  0.0000  0.0000  0.0000  0.0000 </r>
        <r>  0.0000  0.0173  0.0072  0.0038  0.0000  0.0000  0.0000  0.0000  0.0000 </r>
        <r>  0.0000  0.0263  0.0053  0.0021  0.0000  0.0000  0.0000  0.0000  0.0000 </r>
        <r>  0.0000  0.0178  0.0158  0.0001  0.0000  0.0000  0.0000  0.0000  0.0000 </r>
       </set>
       <set comment="band 51">
        <r>  0.0325  0.0008  0.0028  0.0006  0.0015  0.0001  0.0001  0.0012  0.0012 </r>
        <r>  0.0225  0.0026  0.0088  0.0018  0.0001  0.0003  0.0002  0.0002  0.0000 </r>
        <r>  0.0185  0.0002  0.0006  0.0001  0.0006  0.0002  0.0001  0.0009  0.0015 </r>
        <r>  0.0118  0.0058  0.0196  0.0039  0.0001  0.0039  0.0002  0.0022  0.0123 </r>
        <r>  0.0012  0.0213  0.0091  0.0464  0.0000  0.0000  0.0000  0.0000  0.0000 </r>
        <r>  0.0012  0.0126  0.0157  0.0485  0.0000  0.0000  0.0000  0.0000  0.0000 </r>
        <r>  0.0012  0.0435  0.0187  0.0147  0.0000  0.0000  0.0000  0.0000  0.0000 </r>
        <r>  0.0012  0.0444  0.0107  0.0219  0.0000  0.0000  0.0000  0.0000  0.0000 </r>
       </set>
       <set comment="band 52">
        <r>  0.0134  0.0003  0.0009  0.0002  0.0001  0.0017  0.0001  0.0009  0.0050 </r>
        <r>  0.0325  0.0022  0.0075  0.0015  0.0001  0.0002  0.0001  0.0002  0.0001 </r>
        <r>  0.0467  0.0004  0.0013  0.0002  0.0006  0.0003  0.0001  0.0000  0.0002 </r>
        <r>  0.0071  0.0023  0.0073  0.0015  0.0042  0.0012  0.0003  0.0062  0.0108 </r>
        <r>  0.0017  0.0466  0.0050  0.0259  0.0000  0.0000  0.0000  0.0000  0.0000 </r>
        <r>  0.0017  0.0335  0.0190  0.0248  0.0000  0.0000  0.0000  0.0000  0.0000 </r>
        <r>  0.0017  0.0233  0.0195  0.0351  0.0000  0.0000  0.0000  0.0000  0.0000 </r>
        <r>  0.0017  0.0193  0.0118  0.0464  0.0000  0.0000  0.0000  0.0000  0.0000 </r>
       </set>
       <set comment="band 53">
        <r>  0.0011  0.0004  0.0013  0.0003  0.0002  0.0001  0.0000  0.0003  0.0004 </r>
        <r>  0.0121  0.0189  0.0606  0.0120  0.0072  0.0022  0.0010  0.0006  0.0011 </r>
        <r>  0.0054  0.0000  0.0000  0.0000  0.0001  0.0000  0.0000  0.0001  0.0002 </r>
        <r>  0.0013  0.0278  0.0922  0.0183  0.0035  0.0010  0.0008  0.0010  0.0000 </r>
        <r>  0.0005  0.0248  0.0249  0.0150  0.0000  0.0000  0.0000  0.0000  0.0000 </r>
        <r>  0.0005  0.0299  0.0185  0.0160  0.0000  0.0000  0.0000  0.0000  0.0000 </r>
        <r>  0.0005  0.0223  0.0003  0.0419  0.0000  0.0000  0.0000  0.0000  0.0000 </r>
        <r>  0.0005  0.0248  0.0026  0.0372  0.0000  0.0000  0.0000  0.0000  0.0000 </r>
       </set>
       <set comment="band 54">
        <r>  0.0000  0.0014  0.0037  0.0248  0.0008  0.0018  0.0034  0.0003  0.0011 </r>
        <r>  0.0000  0.0029  0.0173  0.0614  0.0005  0.0006  0.0018  0.0000  0.0003 </r>
        <r>  0.0000  0.0025  0.0058  0.0425  0.0000  0.0020  0.0002  0.0021  0.0021 </r>
        <r>  0.0000  0.0015  0.0048  0.0149  0.0006  0.0024  0.0027  0.0011  0.0019 </r>
        <r>  0.0026  0.0173  0.0261  0.0044  0.0000  0.0000  0.0000  0.0000  0.0000 </r>
        <r>  0.0026  0.0035  0.0353  0.0089  0.0000  0.0000  0.0000  0.0000  0.0000 </r>
        <r>  0.0014  0.0080  0.0107  0.0060  0.0000  0.0000  0.0000  0.0000  0.0000 </r>
        <r>  0.0014  0.0022  0.0211  0.0015  0.0000  0.0000  0.0000  0.0000  0.0000 </r>
       </set>
       <set comment="band 55">
        <r>  0.0000  0.0222  0.0063  0.0012  0.0010  0.0007  0.0015  0.0030  0.0014 </r>
        <r>  0.0000  0.0617  0.0104  0.0092  0.0002  0.0005  0.0003  0.0014  0.0008 </r>
        <r>  0.0000  0.0378  0.0111  0.0017  0.0016  0.0001  0.0042  0.0008  0.0000 </r>
        <r>  0.0000  0.0152  0.0024  0.0034  0.0014  0.0004  0.0029  0.0031  0.0011 </r>
        <r>  0.0013  0.0021  0.0163  0.0063  0.0000  0.0000  0.0000  0.0000  0.0000 </r>
        <r>  0.0014  0.0087  0.0155  0.0007  0.0000  0.0000  0.0000  0.0000  0.0000 </r>
        <r>  0.0027  0.0081  0.0379  0.0019  0.0000  0.0000  0.0000  0.0000  0.0000 </r>
        <r>  0.0026  0.0106  0.0242  0.0133  0.0000  0.0000  0.0000  0.0000  0.0000 </r>
       </set>
       <set comment="band 56">
        <r>  0.0013  0.0060  0.0209  0.0037  0.0002  0.0065  0.0002  0.0038  0.0217 </r>
        <r>  0.0024  0.0001  0.0004  0.0001  0.0008  0.0007  0.0000  0.0021  0.0046 </r>
        <r>  0.0004  0.0050  0.0171  0.0030  0.0059  0.0019  0.0003  0.0094  0.0170 </r>
        <r>  0.0000  0.0002  0.0007  0.0001  0.0000  0.0014  0.0001  0.0011  0.0053 </r>
        <r>  0.0000  0.0127  0.0006  0.0079  0.0000  0.0000  0.0000  0.0000  0.0000 </r>
        <r>  0.0000  0.0118  0.0007  0.0086  0.0000  0.0000  0.0000  0.0000  0.0000 </r>
        <r>  0.0000  0.0043  0.0072  0.0097  0.0000  0.0000  0.0000  0.0000  0.0000 </r>
        <r>  0.0000  0.0050  0.0061  0.0104  0.0000  0.0000  0.0000  0.0000  0.0000 </r>
       </set>
       <set comment="band 57">
        <r>  0.0022  0.0011  0.0035  0.0007  0.0007  0.0011  0.0002  0.0002  0.0026 </r>
        <r>  0.0002  0.0000  0.0000  0.0000  0.0009  0.0051  0.0000  0.0073  0.0232 </r>
        <r>  0.0009  0.0006  0.0019  0.0004  0.0015  0.0001  0.0001  0.0012  0.0013 </r>
        <r>  0.0001  0.0001  0.0005  0.0001  0.0019  0.0066  0.0000  0.0112  0.0344 </r>
        <r>  0.0000  0.0005  0.0001  0.0005  0.0000  0.0000  0.0000  0.0000  0.0000 </r>
        <r>  0.0000  0.0002  0.0000  0.0008  0.0000  0.0000  0.0000  0.0000  0.0000 </r>
        <r>  0.0000  0.0009  0.0011  0.0005  0.0000  0.0000  0.0000  0.0000  0.0000 </r>
        <r>  0.0000  0.0012  0.0006  0.0007  0.0000  0.0000  0.0000  0.0000  0.0000 </r>
       </set>
       <set comment="band 58">
        <r>  0.0010  0.0232  0.0863  0.0137  0.0049  0.0005  0.0001  0.0041  0.0028 </r>
        <r>  0.0007  0.0000  0.0000  0.0002  0.0001  0.0002  0.0000  0.0005  0.0014 </r>
        <r>  0.0027  0.0156  0.0584  0.0086  0.0037  0.0037  0.0004  0.0001  0.0070 </r>
        <r>  0.0012  0.0000  0.0001  0.0001  0.0005  0.0010  0.0001  0.0022  0.0041 </r>
        <r>  0.0000  0.0131  0.0000  0.0255  0.0000  0.0000  0.0000  0.0000  0.0000 </r>
        <r>  0.0000  0.0148  0.0004  0.0240  0.0000  0.0000  0.0000  0.0000  0.0000 </r>
        <r>  0.0000  0.0174  0.0126  0.0100  0.0000  0.0000  0.0000  0.0000  0.0000 </r>
        <r>  0.0000  0.0157  0.0156  0.0106  0.0000  0.0000  0.0000  0.0000  0.0000 </r>
       </set>
       <set comment="band 59">
        <r>  0.0000  0.0098  0.0014  0.0018  0.0003  0.0009  0.0013  0.0012  0.0008 </r>
        <r>  0.0001  0.0290  0.0083  0.0001  0.0021  0.0000  0.0017  0.0002  0.0000 </r>
        <r>  0.0000  0.0123  0.0009  0.0030  0.0000  0.0016  0.0003  0.0011  0.0013 </r>
        <r>  0.0001  0.0169  0.0045  0.0001  0.0062  0.0009  0.0059  0.0026  0.0008 </r>
        <r>  0.0004  0.0013  0.0059  0.0000  0.0000  0.0000  0.0000  0.0000  0.0000 </r>
        <r>  0.0007  0.0031  0.0027  0.0004  0.0000  0.0000  0.0000  0.0000  0.0000 </r>
        <r>  0.0006  0.0006  0.0024  0.0004  0.0000  0.0000  0.0000  0.0000  0.0000 </r>
        <r>  0.0006  0.0017  0.0026  0.0011  0.0000  0.0000  0.0000  0.0000  0.0000 </r>
       </set>
       <set comment="band 60">
        <r>  0.0001  0.0001  0.0018  0.0082  0.0030  0.0012  0.0004  0.0007  0.0008 </r>
        <r>  0.0002  0.0013  0.0054  0.0256  0.0001  0.0015  0.0012  0.0001  0.0006 </r>
        <r>  0.0004  0.0007  0.0025  0.0077  0.0015  0.0008  0.0008  0.0007  0.0000 </r>
        <r>  0.0004  0.0012  0.0017  0.0193  0.0001  0.0043  0.0053  0.0022  0.0029 </r>
        <r>  0.0004  0.0012  0.0018  0.0003  0.0000  0.0000  0.0000  0.0000  0.0000 </r>
        <r>  0.0002  0.0011  0.0015  0.0016  0.0000  0.0000  0.0000  0.0000  0.0000 </r>
        <r>  0.0015  0.0019  0.0025  0.0051  0.0000  0.0000  0.0000  0.0000  0.0000 </r>
        <r>  0.0019  0.0035  0.0043  0.0034  0.0000  0.0000  0.0000  0.0000  0.0000 </r>
       </set>
      </set>
     </set>
    </set>
   </array>
  </projected>
 </calculation>
 <structure name="finalpos" >
  <crystal>
   <varray name="basis" >
    <v>       4.93901185       0.00000000      -4.41848219 </v>
    <v>      -0.98753537       4.83927803      -4.41848219 </v>
    <v>       0.00000000       0.00000000       6.62697690 </v>
   </varray>
   <i name="volume">    158.39304179 </i>
   <varray name="rec_basis" >
    <v>       0.20246965       0.04131731       0.00000000 </v>
    <v>       0.00000000       0.20664239       0.00000000 </v>
    <v>       0.13499497       0.16532509       0.15089837 </v>
   </varray>
  </crystal>
  <varray name="positions" >
   <v>       0.75000000       0.25000000       0.50000000 </v>
   <v>       0.00000000       0.00000000       0.00000000 </v>
   <v>       0.25000000       0.75000000       0.50000000 </v>
   <v>       0.50000000       0.50000000       0.00000000 </v>
   <v>       0.36432714       0.37124032       0.47758056 </v>
   <v>       0.89365977       0.88674759       0.52241944 </v>
   <v>       0.11325241       0.63567286       0.00691218 </v>
   <v>       0.62875968       0.10634023       0.99308782 </v>
  </varray>
 </structure>
</modeling>
