 vasp.6.4.2 20Jul23 (build Mar 15 2024 16:31:38) complex                        
  
 executed on             LinuxIFC date 2025.03.19  14:52:51
 running  120 mpi-ranks, on    3 nodes
 distrk:  each k-point on  120 cores,    1 groups
 distr:  one band on NCORE=  10 cores,   12 groups


--------------------------------------------------------------------------------------------------------


 INCAR:
   ALGO = Fast
   EDIFF = 1e-05
   ENAUG = 1360
   ENCUT = 680
   GGA = Ps
   ISMEAR = -5
   ISPIN = 2
   LAECHG = True
   LASPH = True
   LCHARG = True
   LELF = False
   LMAXMIX = 4
   LMIXTAU = True
   LORBIT = 11
   LREAL = False
   LVTOT = True
   LWAVE = True
   MAGMOM = 8*0.6
   NCORE = 10
   NELM = 200
   NSW = 0
   PREC = Accurate
   SIGMA = 0.2

 POTCAR:    PAW_PBE In_d 06Sep2000                
 POTCAR:    PAW_PBE Cu 22Jun2005                  
 POTCAR:    PAW_PBE Se 06Sep2000                  
 WARNING: For LVTOT=.TRUE., VASP.5.x writes the TOTAL local potential to the
     file LOCPOT. If you want only the Hartree contributions, use LVHAR=.TRUE.
     instead. 

 POTCAR:    PAW_PBE In_d 06Sep2000                
   VRHFIN =In: s2p1                                                                                 
   LEXCH  = PE                                                                                      
   EATOM  =  1576.8302 eV,  115.8937 Ry                                                             
                                                                                                    
   TITEL  = PAW_PBE In_d 06Sep2000                                                                  
   LULTRA =        F    use ultrasoft PP ?                                                          
   IUNSCR =        1    unscreen: 0-lin 1-nonlin 2-no                                               
   RPACOR =    2.200    partial core radius                                                         
   POMASS =  114.820; ZVAL   =   13.000    mass and valenz                                          
   RCORE  =    2.500    outmost cutoff radius                                                       
   RWIGS  =    3.170; RWIGS  =    1.677    wigner-seitz radius (au A)                               
   ENMAX  =  239.211; ENMIN  =  179.409 eV                                                          
   ICORE  =        3    local potential                                                             
   LCOR   =        T    correct aug charges                                                         
   LPAW   =        T    paw PP                                                                      
   EAUG   =  449.704                                                                                
   DEXC   =    0.000                                                                                
   RMAX   =    2.552    core radius for proj-oper                                                   
   RAUG   =    1.300    factor for augmentation sphere                                              
   RDEP   =    2.630    radius for radial grids                                                     
   RDEPT  =    2.033    core radius for aug-charge                                                  
                                                                                                    
   Atomic configuration                                                                             
   12 entries                                                                                       
     n  l   j            E        occ.                                                              
     1  0  0.50    -27747.9169   2.0000                                                             
     2  0  0.50     -4154.4438   2.0000                                                             
     2  1  1.50     -3728.4305   6.0000                                                             
     3  0  0.50      -788.3680   2.0000                                                             
     3  1  1.50      -648.9215   6.0000                                                             
     3  2  2.50      -432.5893  10.0000                                                             
     4  0  0.50      -119.6363   2.0000                                                             
     4  1  1.50       -78.1086   6.0000                                                             
     4  2  2.50       -18.6227  10.0000                                                             
     5  0  0.50        -8.2107   2.0000                                                             
     5  1  0.50        -2.5185   1.0000                                                             
     4  3  2.50        -2.7212   0.0000                                                             
   Description                                                                                      
     l       E           TYP  RCUT    TYP  RCUT                                                     
     2    -18.6226981     23  2.500                                                                 
     2     -1.3605826     23  2.500                                                                 
     0     -8.2107305     23  2.500                                                                 
     0     -6.1485975     23  2.500                                                                 
     1     -2.5184867     23  2.500                                                                 
     1      3.2427302     23  2.500                                                                 
     3     -1.3605826      7  2.500                                                                 
  local pseudopotential read in
  partial core-charges read in
  partial kinetic energy density read in
  atomic valenz-charges read in
  non local Contribution for L=           2  read in
    real space projection operators read in
  non local Contribution for L=           2  read in
    real space projection operators read in
  non local Contribution for L=           0  read in
    real space projection operators read in
  non local Contribution for L=           0  read in
    real space projection operators read in
  non local Contribution for L=           1  read in
    real space projection operators read in
  non local Contribution for L=           1  read in
    real space projection operators read in
    PAW grid and wavefunctions read in
 
   number of l-projection  operators is LMAX  =           6
   number of lm-projection operators is LMMAX =          18
 
 POTCAR:    PAW_PBE Cu 22Jun2005                  
   VRHFIN =Cu: d10 p1                                                                               
   LEXCH  = PE                                                                                      
   EATOM  =  1390.9808 eV,  102.2342 Ry                                                             
                                                                                                    
   TITEL  = PAW_PBE Cu 22Jun2005                                                                    
   LULTRA =        F    use ultrasoft PP ?                                                          
   IUNSCR =        1    unscreen: 0-lin 1-nonlin 2-no                                               
   RPACOR =    2.000    partial core radius                                                         
   POMASS =   63.546; ZVAL   =   11.000    mass and valenz                                          
   RCORE  =    2.300    outmost cutoff radius                                                       
   RWIGS  =    2.200; RWIGS  =    1.164    wigner-seitz radius (au A)                               
   ENMAX  =  295.446; ENMIN  =  221.585 eV                                                          
   ICORE  =        3    local potential                                                             
   LCOR   =        T    correct aug charges                                                         
   LPAW   =        T    paw PP                                                                      
   EAUG   =  586.980                                                                                
   DEXC   =    0.000                                                                                
   RMAX   =    2.344    core radius for proj-oper                                                   
   RAUG   =    1.300    factor for augmentation sphere                                              
   RDEP   =    2.302    radius for radial grids                                                     
   RDEPT  =    1.771    core radius for aug-charge                                                  
                                                                                                    
   Atomic configuration                                                                             
    9 entries                                                                                       
     n  l   j            E        occ.                                                              
     1  0  0.50     -8850.2468   2.0000                                                             
     2  0  0.50     -1062.3498   2.0000                                                             
     2  1  1.50      -916.8226   6.0000                                                             
     3  0  0.50      -114.6929   2.0000                                                             
     3  1  1.50       -72.1325   6.0000                                                             
     3  2  2.50        -5.0394  10.0000                                                             
     4  0  0.50        -4.6097   1.0000                                                             
     4  1  0.50        -4.0817   0.0000                                                             
     4  3  2.50        -1.3606   0.0000                                                             
   Description                                                                                      
     l       E           TYP  RCUT    TYP  RCUT                                                     
     2     -5.0393973     23  2.200                                                                 
     2     10.8846608     23  2.200                                                                 
     0     -4.6097109     23  2.200                                                                 
     0      8.2520465     23  2.200                                                                 
     1     -2.7211652     23  2.200                                                                 
     1     21.7055443     23  2.200                                                                 
     3      2.7211652     23  2.300                                                                 
  local pseudopotential read in
  partial core-charges read in
  partial kinetic energy density read in
  atomic valenz-charges read in
  non local Contribution for L=           2  read in
    real space projection operators read in
  non local Contribution for L=           2  read in
    real space projection operators read in
  non local Contribution for L=           0  read in
    real space projection operators read in
  non local Contribution for L=           0  read in
    real space projection operators read in
  non local Contribution for L=           1  read in
    real space projection operators read in
  non local Contribution for L=           1  read in
    real space projection operators read in
    PAW grid and wavefunctions read in
 
   number of l-projection  operators is LMAX  =           6
   number of lm-projection operators is LMMAX =          18
 
 POTCAR:    PAW_PBE Se 06Sep2000                  
   VRHFIN =Se: s2p4                                                                                 
   LEXCH  = PE                                                                                      
   EATOM  =   257.1286 eV,   18.8984 Ry                                                             
                                                                                                    
   TITEL  = PAW_PBE Se 06Sep2000                                                                    
   LULTRA =        F    use ultrasoft PP ?                                                          
   IUNSCR =        1    unscreen: 0-lin 1-nonlin 2-no                                               
   RPACOR =    1.900    partial core radius                                                         
   POMASS =   78.960; ZVAL   =    6.000    mass and valenz                                          
   RCORE  =    2.100    outmost cutoff radius                                                       
   RWIGS  =    2.200; RWIGS  =    1.164    wigner-seitz radius (au A)                               
   ENMAX  =  211.555; ENMIN  =  158.666 eV                                                          
   ICORE  =        3    local potential                                                             
   LCOR   =        T    correct aug charges                                                         
   LPAW   =        T    paw PP                                                                      
   EAUG   =  446.842                                                                                
   DEXC   =    0.000                                                                                
   RMAX   =    2.147    core radius for proj-oper                                                   
   RAUG   =    1.300    factor for augmentation sphere                                              
   RDEP   =    2.177    radius for radial grids                                                     
   RDEPT  =    1.928    core radius for aug-charge                                                  
                                                                                                    
   Atomic configuration                                                                             
   10 entries                                                                                       
     n  l   j            E        occ.                                                              
     1  0  0.50    -12503.4787   2.0000                                                             
     2  0  0.50     -1606.9547   2.0000                                                             
     2  1  1.50     -1413.3140   6.0000                                                             
     3  0  0.50      -213.4885   2.0000                                                             
     3  1  1.50      -152.9538   6.0000                                                             
     3  2  2.50       -53.1221  10.0000                                                             
     4  0  0.50       -17.2865   2.0000                                                             
     4  1  0.50        -6.5110   4.0000                                                             
     4  2  2.50        -6.8029   0.0000                                                             
     4  3  2.50        -6.8029   0.0000                                                             
   Description                                                                                      
     l       E           TYP  RCUT    TYP  RCUT                                                     
     0    -17.2865377     23  2.100                                                                 
     0    -15.3094411     23  2.100                                                                 
     1     -6.5110275     23  2.100                                                                 
     1     -0.0695192     23  2.100                                                                 
     2     -6.8029130     23  2.100                                                                 
     3     -1.3605826      7  2.100                                                                 
  local pseudopotential read in
  partial core-charges read in
  partial kinetic energy density read in
  atomic valenz-charges read in
  non local Contribution for L=           0  read in
    real space projection operators read in
  non local Contribution for L=           0  read in
    real space projection operators read in
  non local Contribution for L=           1  read in
    real space projection operators read in
  non local Contribution for L=           1  read in
    real space projection operators read in
  non local Contribution for L=           2  read in
    real space projection operators read in
    PAW grid and wavefunctions read in
 
   number of l-projection  operators is LMAX  =           5
   number of lm-projection operators is LMMAX =          13
 
 -----------------------------------------------------------------------------
|                                                                             |
|               ----> ADVICE to this user running VASP <----                  |
|                                                                             |
|     You enforced a specific xc type in the INCAR file but a different       |
|     type was found in the POTCAR file.                                      |
|     I HOPE YOU KNOW WHAT YOU ARE DOING!                                     |
|                                                                             |
 -----------------------------------------------------------------------------

  PAW_PBE In_d 06Sep2000                :
 energy of atom  1       EATOM=-1576.8302
 kinetic energy error for atom=    0.0009 (will be added to EATOM!!)
  PAW_PBE Cu 22Jun2005                  :
 energy of atom  2       EATOM=-1390.9808
 kinetic energy error for atom=    0.0018 (will be added to EATOM!!)
  PAW_PBE Se 06Sep2000                  :
 energy of atom  3       EATOM= -257.1286
 kinetic energy error for atom=    0.0004 (will be added to EATOM!!)
 
 
 POSCAR: In2 Cu2 Se4
  positions in direct lattice
  No initial velocities read in
 exchange correlation table for  LEXCH =       14
   RHO(1)=    0.500       N(1)  =     2000
   RHO(2)=  100.500       N(2)  =     4000
 


--------------------------------------------------------------------------------------------------------


 ion  position               nearest neighbor table
   1  0.500  0.500  0.000-   5 2.62   8 2.62   6 2.62   7 2.62
   2  0.750  0.250  0.500-   8 2.62   6 2.62   7 2.62   5 2.62
   3  0.000  0.000  0.000-   6 2.42   7 2.42   5 2.42   8 2.42
   4  0.250  0.750  0.500-   7 2.42   5 2.42   8 2.42   6 2.42
   5  0.345  0.375  0.250-   4 2.42   3 2.42   1 2.62   2 2.62
   6  0.905  0.875  0.250-   3 2.42   4 2.42   2 2.62   1 2.62
   7  0.125  0.655  0.750-   4 2.42   3 2.42   2 2.62   1 2.62
   8  0.625  0.095  0.750-   4 2.42   3 2.42   2 2.62   1 2.62
 
  LATTYP: Found a body centered tetragonal cell.
 ALAT       =     5.8059957800
 C/A-ratio  =     2.0079361830
  
  Lattice vectors:
  
 A1 = (   1.0538795677,  -5.1971421792,  -4.7656568808)
 A2 = (  -5.3029191999,   0.0000000000,  -4.7656572101)
 A3 = (   4.2490396322,   5.1971421792,   2.4016274909)


Analysis of symmetry for initial positions (statically):
=====================================================================
 Subroutine PRICEL returns:
 Original cell was already a primitive cell.
 

 Routine SETGRP: Setting up the symmetry group for a 
 body centered tetragonal supercell.


 Subroutine GETGRP returns: Found  8 space group operations
 (whereof  4 operations were pure point group operations)
 out of a pool of 16 trial point group operations.


The static configuration has the point symmetry S_4 .
 The point group associated with its full space group is D_2d.


Analysis of symmetry for dynamics (positions and initial velocities):
=====================================================================
 Subroutine PRICEL returns:
 Original cell was already a primitive cell.
 

 Routine SETGRP: Setting up the symmetry group for a 
 body centered tetragonal supercell.


 Subroutine GETGRP returns: Found  8 space group operations
 (whereof  4 operations were pure point group operations)
 out of a pool of 16 trial point group operations.


The dynamic configuration has the point symmetry S_4 .
 The point group associated with its full space group is D_2d.


Analysis of structural, dynamic, and magnetic symmetry:
=====================================================================
 Subroutine PRICEL returns:
 Original cell was already a primitive cell.
 

 Routine SETGRP: Setting up the symmetry group for a 
 body centered tetragonal supercell.


 Subroutine GETGRP returns: Found  8 space group operations
 (whereof  4 operations were pure point group operations)
 out of a pool of 16 trial point group operations.


The overall configuration has the point symmetry S_4 .
 The point group associated with its full space group is D_2d.


 Subroutine INISYM returns: Found  8 space group operations
 (whereof  4 operations are pure point group operations),
 and found     1 'primitive' translations


----------------------------------------------------------------------------------------

                                     Primitive cell                                     

  volume of cell :     196.4943

  direct lattice vectors                    reciprocal lattice vectors
     5.302919200  0.000000000 -2.364029390     0.188575379  0.038239427  0.000000000
    -1.053879568  5.197142179 -2.364029719     0.000000000  0.192413439  0.000000000
     0.000000000  0.000000000  7.129686600     0.062526975  0.076478848  0.140258620

  length of vectors
     5.805995780  5.805995650  7.129686600     0.192413429  0.192413439  0.171554998

  position of ions in fractional coordinates (direct lattice)
     0.500000000  0.500000000  1.000000000
     0.750000000  0.250000000  0.500000000
     0.000000000  0.000000000  0.000000000
     0.250000000  0.750000000  0.500000000
     0.345161030  0.375000000  0.250000000
     0.904838970  0.875000000  0.250000000
     0.125000000  0.654838970  0.750000000
     0.625000000  0.095161030  0.750000000

  ion indices of the primitive-cell ions
   primitive index   ion index
                 1           1
                 2           2
                 3           3
                 4           4
                 5           5
                 6           6
                 7           7
                 8           8

----------------------------------------------------------------------------------------

 
 
 KPOINTS: pymatgen with grid density = 646 / numbe

Automatic generation of k-mesh.
 Grid dimensions read from file:
 generate k-points for:    4    4    3

 Generating k-lattice:

  Cartesian coordinates                     Fractional coordinates (reciprocal lattice)
     0.047143845  0.009559857  0.000000000     0.250000000 -0.000000000  0.000000000
     0.000000000  0.048103360  0.000000000     0.000000000  0.250000000  0.000000000
     0.020842325  0.025492949  0.046752873     0.000000000 -0.000000000  0.333333333

  Length of vectors
     0.048103357  0.048103360  0.057184999

  Shift w.r.t. Gamma in fractional coordinates (k-lattice)
     0.000000000  0.000000000  0.000000000

 -----------------------------------------------------------------------------
|                                                                             |
|           W    W    AA    RRRRR   N    N  II  N    N   GGGG   !!!           |
|           W    W   A  A   R    R  NN   N  II  NN   N  G    G  !!!           |
|           W    W  A    A  R    R  N N  N  II  N N  N  G       !!!           |
|           W WW W  AAAAAA  RRRRR   N  N N  II  N  N N  G  GGG   !            |
|           WW  WW  A    A  R   R   N   NN  II  N   NN  G    G                |
|           W    W  A    A  R    R  N    N  II  N    N   GGGG   !!!           |
|                                                                             |
|     Your reciprocal lattice and k-lattice belong to different lattice       |
|     classes:                                                                |
|                                                                             |
|        The reciprocal lattice is body-centered tetragonal,                  |
|        whereas your k-lattice is base-centered monoclinic.                  |
|                                                                             |
|     Results are often still useful ...                                      |
|                                                                             |
 -----------------------------------------------------------------------------

 WARNING: IBZKPT: internal override: KBLOWUP is changed to .FALSE.
      ... skipping the blow-up phase ...

 TETIRR: Found     74 inequivalent tetrahedra from      288
 
 Subroutine IBZKPT returns following result:
 ===========================================
 
 Found     17 irreducible k-points:
 
 Following reciprocal coordinates:
            Coordinates               Weight
  0.000000  0.000000  0.000000      1.000000
  0.250000 -0.000000  0.000000      4.000000
  0.500000 -0.000000  0.000000      2.000000
  0.250000  0.250000  0.000000      2.000000
  0.500000  0.250000  0.000000      4.000000
 -0.250000  0.250000  0.000000      2.000000
  0.500000  0.500000  0.000000      1.000000
  0.000000  0.000000  0.333333      2.000000
  0.250000 -0.000000  0.333333      4.000000
  0.500000  0.000000  0.333333      4.000000
 -0.250000  0.000000  0.333333      4.000000
  0.250000  0.250000  0.333333      2.000000
  0.500000  0.250000  0.333333      4.000000
 -0.250000  0.250000  0.333333      4.000000
  0.500000  0.500000  0.333333      2.000000
 -0.250000  0.500000  0.333333      4.000000
 -0.250000 -0.250000  0.333333      2.000000
 
 Following cartesian coordinates:
            Coordinates               Weight
  0.000000  0.000000  0.000000      1.000000
  0.047144  0.009560  0.000000      4.000000
  0.094288  0.019120  0.000000      2.000000
  0.047144  0.057663  0.000000      2.000000
  0.094288  0.067223  0.000000      4.000000
 -0.047144  0.038544  0.000000      2.000000
  0.094288  0.115326  0.000000      1.000000
  0.020842  0.025493  0.046753      2.000000
  0.067986  0.035053  0.046753      4.000000
  0.115130  0.044613  0.046753      4.000000
 -0.026302  0.015933  0.046753      4.000000
  0.067986  0.083156  0.046753      2.000000
  0.115130  0.092716  0.046753      4.000000
 -0.026302  0.064036  0.046753      4.000000
  0.115130  0.140819  0.046753      2.000000
 -0.026302  0.112140  0.046753      4.000000
 -0.026302 -0.032170  0.046753      2.000000
 


--------------------------------------------------------------------------------------------------------




 Dimension of arrays:
   k-points           NKPTS =     17   k-points in BZ     NKDIM =     17   number of bands    NBANDS=     48
   number of dos      NEDOS =    301   number of ions     NIONS =      8
   non local maximal  LDIM  =      6   non local SUM 2l+1 LMDIM =     18
   total plane-waves  NPLWV = 160000
   max r-space proj   IRMAX =      1   max aug-charges    IRDMAX=  35706
   dimension x,y,z NGX =    50 NGY =   50 NGZ =   64
   dimension x,y,z NGXF=   100 NGYF=  100 NGZF=  128
   support grid    NGXF=   100 NGYF=  100 NGZF=  128
   ions per type =               2   2   4
   NGX,Y,Z   is equivalent  to a cutoff of  14.32, 14.32, 14.92 a.u.
   NGXF,Y,Z  is equivalent  to a cutoff of  28.63, 28.63, 29.85 a.u.

 SYSTEM =  unknown system                          
 POSCAR =  In2 Cu2 Se4                             

 Startparameter for this run:
   NWRITE =      2    write-flag & timer
   PREC   = accura    normal or accurate (medium, high low for compatibility)
   ISTART =      0    job   : 0-new  1-cont  2-samecut
   ICHARG =      2    charge: 1-file 2-atom 10-const
   ISPIN  =      2    spin polarized calculation?
   LNONCOLLINEAR =      F non collinear calculations
   LSORBIT =      F    spin-orbit coupling
   INIWAV =      1    electr: 0-lowe 1-rand  2-diag
   LASPH  =      T    aspherical Exc in radial PAW
 Electronic Relaxation 1
   ENCUT  =  680.0 eV  49.98 Ry    7.07 a.u.  12.34 12.34 15.16*2*pi/ulx,y,z
   ENINI  =  680.0     initial cutoff
   ENAUG  = 1360.0 eV  augmentation charge cutoff
   NELM   =    200;   NELMIN=  2; NELMDL= -5     # of ELM steps 
   EDIFF  = 0.1E-04   stopping-criterion for ELM
   LREAL  =      F    real-space projection
   NLSPLINE    = F    spline interpolate recip. space projectors
   LCOMPAT=      F    compatible to vasp.4.4
   GGA_COMPAT  = T    GGA compatible to vasp.4.4-vasp.4.6
   LMAXPAW     = -100 max onsite density
   LMAXMIX     =    4 max onsite mixed and CHGCAR
   VOSKOWN=      0    Vosko Wilk Nusair interpolation
   ROPT   =    0.00000   0.00000   0.00000
 Ionic relaxation
   EDIFFG = 0.1E-03   stopping-criterion for IOM
   NSW    =      0    number of steps for IOM
   NBLOCK =      1;   KBLOCK =      1    inner block; outer block 
   IBRION =     -1    ionic relax: 0-MD 1-quasi-New 2-CG
   NFREE  =      0    steps in history (QN), initial steepest desc. (CG)
   ISIF   =      2    stress and relaxation
   IWAVPR =     10    prediction:  0-non 1-charg 2-wave 3-comb
   ISYM   =      2    0-nonsym 1-usesym 2-fastsym
   LCORR  =      T    Harris-Foulkes like correction to forces

   POTIM  = 0.5000    time-step for ionic-motion
   TEIN   =    0.0    initial temperature
   TEBEG  =    0.0;   TEEND  =   0.0 temperature during run
   SMASS  =  -3.00    Nose mass-parameter (am)
   estimated Nose-frequenzy (Omega)   =  0.10E-29 period in steps = 0.13E+47 mass=  -0.770E-27a.u.
   SCALEE = 1.0000    scale energy and forces
   NPACO  =    256;   APACO  = 10.0  distance and # of slots for P.C.
   PSTRESS=    0.0 pullay stress

  Mass of Ions in am
   POMASS = 114.82 63.55 78.96
  Ionic Valenz
   ZVAL   =  13.00 11.00  6.00
  Atomic Wigner-Seitz radii
   RWIGS  =  -1.00 -1.00 -1.00
  virtual crystal weights 
   VCA    =   1.00  1.00  1.00
   NELECT =      72.0000    total number of electrons
   NUPDOWN=      -1.0000    fix difference up-down

 DOS related values:
   EMIN   =  10.00;   EMAX   =-10.00  energy-range for DOS
   EFERMI =   0.00;   METHOD = LEGACY      
   ISMEAR =    -5;   SIGMA  =   0.20  broadening in eV -4-tet -1-fermi 0-gaus

 Electronic relaxation 2 (details)
   IALGO  =     68    algorithm
   LDIAG  =      T    sub-space diagonalisation (order eigenvalues)
   LSUBROT=      F    optimize rotation matrix (better conditioning)
   TURBO    =      0    0=normal 1=particle mesh
   IRESTART =      0    0=no restart 2=restart with 2 vectors
   NREBOOT  =      0    no. of reboots
   NMIN     =      0    reboot dimension
   EREF     =   0.00    reference energy to select bands
   IMIX   =      4    mixing-type and parameters
     AMIX     =   0.40;   BMIX     =  1.00
     AMIX_MAG =   1.60;   BMIX_MAG =  1.00
     AMIN     =   0.10
     WC   =   100.;   INIMIX=   1;  MIXPRE=   1;  MAXMIX= -45

 Intra band minimization:
   WEIMIN = 0.0000     energy-eigenvalue tresh-hold
   EBREAK =  0.52E-07  absolut break condition
   DEPER  =   0.30     relativ break condition  

   TIME   =   0.40     timestep for ELM

  volume/ion in A,a.u.               =      24.56       165.75
  Fermi-wavevector in a.u.,A,eV,Ry     =   1.171482  2.213780 18.672231  1.372370
  Thomas-Fermi vector in A             =   2.307925
 
 Write flags
   LWAVE        =      T    write WAVECAR
   LDOWNSAMPLE  =      F    k-point downsampling of WAVECAR
   LCHARG       =      T    write CHGCAR
   LVTOT        =      T    write LOCPOT, total local potential
   LVHAR        =      F    write LOCPOT, Hartree potential only
   LELF         =      F    write electronic localiz. function (ELF)
   LORBIT       =     11    0 simple, 1 ext, 2 COOP (PROOUT), +10 PAW based schemes


 Dipole corrections
   LMONO  =      F    monopole corrections only (constant potential shift)
   LDIPOL =      F    correct potential (dipole corrections)
   IDIPOL =      0    1-x, 2-y, 3-z, 4-all directions 
   EPSILON=  1.0000000 bulk dielectric constant

 Exchange correlation treatment:
   GGA     =    PS    GGA type
   LEXCH   =    14    internal setting for exchange type
   LIBXC   =     F    Libxc                    
   VOSKOWN =     0    Vosko Wilk Nusair interpolation
   LHFCALC =     F    Hartree Fock is set to
   LHFONE  =     F    Hartree Fock one center treatment
   AEXX    =    0.0000 exact exchange contribution

 Linear response parameters
   LEPSILON=     F    determine dielectric tensor
   LRPA    =     F    only Hartree local field effects (RPA)
   LNABLA  =     F    use nabla operator in PAW spheres
   LVEL    =     F    velocity operator in full k-point grid
   CSHIFT  =0.1000    complex shift for real part using Kramers Kronig
   OMEGAMAX=  -1.0    maximum frequency
   DEG_THRESHOLD= 0.2000000E-02 threshold for treating states as degnerate
   RTIME   =   -0.100 relaxation time in fs
  (WPLASMAI=    0.000 imaginary part of plasma frequency in eV, 0.658/RTIME)
   DFIELD  = 0.0000000 0.0000000 0.0000000 field for delta impulse in time
 
  Optional k-point grid parameters
   LKPOINTS_OPT  =     F    use optional k-point grid
   KPOINTS_OPT_MODE=     1    mode for optional k-point grid
 
 Orbital magnetization related:
   ORBITALMAG=     F  switch on orbital magnetization
   LCHIMAG   =     F  perturbation theory with respect to B field
   DQ        =  0.001000  dq finite difference perturbation B field
   LLRAUG    =     F  two centre corrections for induced B field
   LBONE     =     F  B-component reconstruction in AE one-centre
   LVGVCALC  =     T  calculate vGv susceptibility
   LVGVAPPL  =     F  apply vGv susceptibility instead of pGv for G=0

 Random number generation:
   RANDOM_GENERATOR = DEFAULT
   PCG_SEED         = not used


--------------------------------------------------------------------------------------------------------


 Static calculation
 charge density and potential will be updated during run
 spin polarized calculation
 RMM-DIIS sequential band-by-band and
  variant of blocked Davidson during initial phase
 perform sub-space diagonalisation
    before iterative eigenvector-optimisation
 modified Broyden-mixing scheme, WC =      100.0
 initial mixing is a Kerker type mixing with AMIX =  0.4000 and BMIX =      1.0000
 Hartree-type preconditioning will be used
 using additional bands           12
 reciprocal scheme for non local part
 use partial core corrections
 calculate Harris-corrections to forces 
   (improved forces if not selfconsistent)
 use gradient corrections 
 use of overlap-Matrix (Vanderbilt PP)
 Fermi weights with tetrahedron method with Bloechl corrections


--------------------------------------------------------------------------------------------------------


  energy-cutoff  :      680.00
  volume of cell :      196.49
      direct lattice vectors                 reciprocal lattice vectors
     5.302919200  0.000000000 -2.364029390     0.188575379  0.038239427  0.000000000
    -1.053879568  5.197142179 -2.364029719     0.000000000  0.192413439  0.000000000
     0.000000000  0.000000000  7.129686600     0.062526975  0.076478848  0.140258620

  length of vectors
     5.805995780  5.805995650  7.129686600     0.192413429  0.192413439  0.171554998


 
 k-points in units of 2pi/SCALE and weight: pymatgen with grid density = 646 / numbe
   0.00000000  0.00000000  0.00000000       0.021
   0.04714384  0.00955986  0.00000000       0.083
   0.09428769  0.01911971  0.00000000       0.042
   0.04714384  0.05766322  0.00000000       0.042
   0.09428769  0.06722307  0.00000000       0.083
  -0.04714384  0.03854350  0.00000000       0.042
   0.09428769  0.11532643  0.00000000       0.021
   0.02084233  0.02549295  0.04675287       0.042
   0.06798617  0.03505281  0.04675287       0.083
   0.11513001  0.04461266  0.04675287       0.083
  -0.02630152  0.01593309  0.04675287       0.083
   0.06798617  0.08315617  0.04675287       0.042
   0.11513001  0.09271602  0.04675287       0.083
  -0.02630152  0.06403645  0.04675287       0.083
   0.11513001  0.14081938  0.04675287       0.042
  -0.02630152  0.11213981  0.04675287       0.083
  -0.02630152 -0.03217027  0.04675287       0.042
 
 k-points in reciprocal lattice and weights: pymatgen with grid density = 646 / numbe
   0.00000000  0.00000000  0.00000000       0.021
   0.25000000 -0.00000000  0.00000000       0.083
   0.50000000 -0.00000000  0.00000000       0.042
   0.25000000  0.25000000  0.00000000       0.042
   0.50000000  0.25000000  0.00000000       0.083
  -0.25000000  0.25000000  0.00000000       0.042
   0.50000000  0.50000000  0.00000000       0.021
   0.00000000  0.00000000  0.33333333       0.042
   0.25000000 -0.00000000  0.33333333       0.083
   0.50000000  0.00000000  0.33333333       0.083
  -0.25000000  0.00000000  0.33333333       0.083
   0.25000000  0.25000000  0.33333333       0.042
   0.50000000  0.25000000  0.33333333       0.083
  -0.25000000  0.25000000  0.33333333       0.083
   0.50000000  0.50000000  0.33333333       0.042
  -0.25000000  0.50000000  0.33333333       0.083
  -0.25000000 -0.25000000  0.33333333       0.042
 
 position of ions in fractional coordinates (direct lattice) 
   0.50000000  0.50000000  0.00000000
   0.75000000  0.25000000  0.50000000
   0.00000000  0.00000000  0.00000000
   0.25000000  0.75000000  0.50000000
   0.34516103  0.37500000  0.25000000
   0.90483897  0.87500000  0.25000000
   0.12500000  0.65483897  0.75000000
   0.62500000  0.09516103  0.75000000
 
 position of ions in cartesian coordinates  (Angst):
   2.12451982  2.59857109 -2.36402955
   3.71371951  1.29928554  1.20081383
   0.00000000  0.00000000  0.00000000
   0.53532012  3.89785663  1.20081366
   1.43515622  1.94892832  0.07993969
   3.87614333  4.54749941 -2.42517027
  -0.02725651  3.40329123  3.50370249
   3.21403623  0.49456540  3.64478308
 


--------------------------------------------------------------------------------------------------------


 k-point   1 :   0.0000 0.0000 0.0000  plane waves:    7897
 k-point   2 :   0.2500-0.0000 0.0000  plane waves:    7921
 k-point   3 :   0.5000-0.0000 0.0000  plane waves:    7912
 k-point   4 :   0.2500 0.2500 0.0000  plane waves:    7920
 k-point   5 :   0.5000 0.2500 0.0000  plane waves:    7913
 k-point   6 :  -0.2500 0.2500 0.0000  plane waves:    7905
 k-point   7 :   0.5000 0.5000 0.0000  plane waves:    7874
 k-point   8 :   0.0000 0.0000 0.3333  plane waves:    7945
 k-point   9 :   0.2500-0.0000 0.3333  plane waves:    7912
 k-point  10 :   0.5000 0.0000 0.3333  plane waves:    7911
 k-point  11 :  -0.2500 0.0000 0.3333  plane waves:    7916
 k-point  12 :   0.2500 0.2500 0.3333  plane waves:    7905
 k-point  13 :   0.5000 0.2500 0.3333  plane waves:    7923
 k-point  14 :  -0.2500 0.2500 0.3333  plane waves:    7915
 k-point  15 :   0.5000 0.5000 0.3333  plane waves:    7894
 k-point  16 :  -0.2500 0.5000 0.3333  plane waves:    7900
 k-point  17 :  -0.2500-0.2500 0.3333  plane waves:    7909

 maximum and minimum number of plane-waves per node :       817      760

 maximum number of plane-waves:      7945
 maximum index in each direction: 
   IXMAX=   12   IYMAX=   12   IZMAX=   15
   IXMIN=  -12   IYMIN=  -12   IZMIN=  -15


 parallel 3D FFT for wavefunctions:
    minimum data exchange during FFTs selected (reduces bandwidth)
 parallel 3D FFT for charge:
    minimum data exchange during FFTs selected (reduces bandwidth)


 total amount of memory used by VASP MPI-rank0    41083. kBytes
=======================================================================

   base      :      30000. kBytes
   nonl-proj :       5917. kBytes
   fftplans  :        932. kBytes
   grid      :       2428. kBytes
   one-center:         31. kBytes
   wavefun   :       1775. kBytes
 
     INWAV:  cpu time      0.0001: real time      0.0006
 Broyden mixing: mesh for mixing (old mesh)
   NGX = 25   NGY = 25   NGZ = 31
  (NGX  =100   NGY  =100   NGZ  =128)
  gives a total of  19375 points

 initial charge density was supplied:
 charge density of overlapping atoms calculated
 number of electron      72.0000000 magnetization       4.8000000
 keeping initial charge density in first step


--------------------------------------------------------------------------------------------------------


 Maximum index for augmentation-charges          985 (set IRDMAX)


--------------------------------------------------------------------------------------------------------


 First call to EWALD:  gamma=   0.305
 Maximum number of real-space cells 3x 3x 3
 Maximum number of reciprocal cells 3x 3x 3

    FEWALD:  cpu time      0.0028: real time      0.0029


--------------------------------------- Ionic step        1  -------------------------------------------




--------------------------------------- Iteration      1(   1)  ---------------------------------------


    POTLOK:  cpu time      0.0352: real time      0.0387
    SETDIJ:  cpu time      0.4067: real time      0.4081
     EDDAV:  cpu time      0.7810: real time      0.7878
 BZINTS: Fermi energy:   18.361544;   72.000000 electrons
         Band energy: 0.547362E+03;  BLOECHL correction:   -0.127323
       DOS:  cpu time      0.0120: real time      0.0121
    --------------------------------------------
      LOOP:  cpu time      1.2349: real time      1.2467

 eigenvalue-minimisations  :  3264
 total energy-change (2. order) : 0.7083741E+03  (-0.3673527E+04)
 number of electron      72.0000000 magnetization       4.8000000
 augmentation part       72.0000000 magnetization       4.8000000

 Free energy of the ion-electron system (eV)
  ---------------------------------------------------
  alpha Z        PSCENC =       185.64929911
  Ewald energy   TEWEN  =     -4678.36476469
  -Hartree energ DENC   =     -2345.03363423
  -exchange      EXHF   =         0.00000000
  -V(xc)+E(xc)   XCENC  =       177.19005216
  PAW double counting   =      6054.27235450    -6193.67878849
  entropy T*S    EENTRO =         0.00000000
  eigenvalues    EBANDS =       547.36191267
  atomic energy  EATOM  =      6960.97766694
  Solvation  Ediel_sol  =         0.00000000
  ---------------------------------------------------
  free energy    TOTEN  =       708.37409798 eV

  energy without entropy =      708.37409798  energy(sigma->0) =      708.37409798


--------------------------------------------------------------------------------------------------------




--------------------------------------- Iteration      1(   2)  ---------------------------------------


     EDDAV:  cpu time      0.6963: real time      0.7003
 BZINTS: Fermi energy:    7.408999;   72.000000 electrons
         Band energy:-0.100680E+03;  BLOECHL correction:   -0.011884
       DOS:  cpu time      0.0097: real time      0.0098
    --------------------------------------------
      LOOP:  cpu time      0.7061: real time      0.7100

 eigenvalue-minimisations  :  3264
 total energy-change (2. order) :-0.6480419E+03  (-0.6194892E+03)
 number of electron      72.0000000 magnetization       4.8000000
 augmentation part       72.0000000 magnetization       4.8000000

 Free energy of the ion-electron system (eV)
  ---------------------------------------------------
  alpha Z        PSCENC =       185.64929911
  Ewald energy   TEWEN  =     -4678.36476469
  -Hartree energ DENC   =     -2345.03363423
  -exchange      EXHF   =         0.00000000
  -V(xc)+E(xc)   XCENC  =       177.19005216
  PAW double counting   =      6054.27235450    -6193.67878849
  entropy T*S    EENTRO =         0.00000000
  eigenvalues    EBANDS =      -100.67996421
  atomic energy  EATOM  =      6960.97766694
  Solvation  Ediel_sol  =         0.00000000
  ---------------------------------------------------
  free energy    TOTEN  =        60.33222110 eV

  energy without entropy =       60.33222110  energy(sigma->0) =       60.33222110


--------------------------------------------------------------------------------------------------------




--------------------------------------- Iteration      1(   3)  ---------------------------------------


     EDDAV:  cpu time      0.8406: real time      0.8565
 BZINTS: Fermi energy:    5.054040;   72.000000 electrons
         Band energy:-0.190628E+03;  BLOECHL correction:   -0.007045
       DOS:  cpu time      0.0095: real time      0.0095
    --------------------------------------------
      LOOP:  cpu time      0.8501: real time      0.8660

 eigenvalue-minimisations  :  4344
 total energy-change (2. order) :-0.8994798E+02  (-0.8679630E+02)
 number of electron      72.0000000 magnetization       4.8000000
 augmentation part       72.0000000 magnetization       4.8000000

 Free energy of the ion-electron system (eV)
  ---------------------------------------------------
  alpha Z        PSCENC =       185.64929911
  Ewald energy   TEWEN  =     -4678.36476469
  -Hartree energ DENC   =     -2345.03363423
  -exchange      EXHF   =         0.00000000
  -V(xc)+E(xc)   XCENC  =       177.19005216
  PAW double counting   =      6054.27235450    -6193.67878849
  entropy T*S    EENTRO =         0.00000000
  eigenvalues    EBANDS =      -190.62794284
  atomic energy  EATOM  =      6960.97766694
  Solvation  Ediel_sol  =         0.00000000
  ---------------------------------------------------
  free energy    TOTEN  =       -29.61575753 eV

  energy without entropy =      -29.61575753  energy(sigma->0) =      -29.61575753


--------------------------------------------------------------------------------------------------------




--------------------------------------- Iteration      1(   4)  ---------------------------------------


     EDDAV:  cpu time      0.7785: real time      0.7961
 BZINTS: Fermi energy:    4.957865;   72.000000 electrons
         Band energy:-0.195573E+03;  BLOECHL correction:   -0.009540
       DOS:  cpu time      0.0094: real time      0.0094
    --------------------------------------------
      LOOP:  cpu time      0.7879: real time      0.8055

 eigenvalue-minimisations  :  4068
 total energy-change (2. order) :-0.4945268E+01  (-0.4910913E+01)
 number of electron      72.0000000 magnetization       4.8000000
 augmentation part       72.0000000 magnetization       4.8000000

 Free energy of the ion-electron system (eV)
  ---------------------------------------------------
  alpha Z        PSCENC =       185.64929911
  Ewald energy   TEWEN  =     -4678.36476469
  -Hartree energ DENC   =     -2345.03363423
  -exchange      EXHF   =         0.00000000
  -V(xc)+E(xc)   XCENC  =       177.19005216
  PAW double counting   =      6054.27235450    -6193.67878849
  entropy T*S    EENTRO =         0.00000000
  eigenvalues    EBANDS =      -195.57321051
  atomic energy  EATOM  =      6960.97766694
  Solvation  Ediel_sol  =         0.00000000
  ---------------------------------------------------
  free energy    TOTEN  =       -34.56102520 eV

  energy without entropy =      -34.56102520  energy(sigma->0) =      -34.56102520


--------------------------------------------------------------------------------------------------------




--------------------------------------- Iteration      1(   5)  ---------------------------------------


     EDDAV:  cpu time      0.8592: real time      0.8773
 BZINTS: Fermi energy:    4.954822;   72.000000 electrons
         Band energy:-0.195811E+03;  BLOECHL correction:   -0.009343
       DOS:  cpu time      0.0089: real time      0.0089
    CHARGE:  cpu time      0.0511: real time      0.0515
    MIXING:  cpu time      0.0059: real time      0.0067
    --------------------------------------------
      LOOP:  cpu time      0.9251: real time      0.9444

 eigenvalue-minimisations  :  4752
 total energy-change (2. order) :-0.2374839E+00  (-0.2375873E+00)
 number of electron      71.9999998 magnetization       0.7151551
 augmentation part       22.3685234 magnetization       0.8040254

 Broyden mixing:
  rms(total) = 0.15474E+01    rms(broyden)= 0.15474E+01
  rms(prec ) = 0.22787E+01
  weight for this iteration     100.00

 Free energy of the ion-electron system (eV)
  ---------------------------------------------------
  alpha Z        PSCENC =       185.64929911
  Ewald energy   TEWEN  =     -4678.36476469
  -Hartree energ DENC   =     -2345.03363423
  -exchange      EXHF   =         0.00000000
  -V(xc)+E(xc)   XCENC  =       177.19005216
  PAW double counting   =      6054.27235450    -6193.67878849
  entropy T*S    EENTRO =         0.00000000
  eigenvalues    EBANDS =      -195.81069441
  atomic energy  EATOM  =      6960.97766694
  Solvation  Ediel_sol  =         0.00000000
  ---------------------------------------------------
  free energy    TOTEN  =       -34.79850910 eV

  energy without entropy =      -34.79850910  energy(sigma->0) =      -34.79850910


--------------------------------------------------------------------------------------------------------




--------------------------------------- Iteration      1(   6)  ---------------------------------------


    POTLOK:  cpu time      0.0208: real time      0.0347
    SETDIJ:  cpu time      0.4022: real time      0.4033
    EDDIAG:  cpu time      0.2317: real time      0.2327
  RMM-DIIS:  cpu time      0.2731: real time      0.2740
    ORTHCH:  cpu time      0.0263: real time      0.0264
 BZINTS: Fermi energy:    3.239847;   72.000000 electrons
         Band energy:-0.280861E+03;  BLOECHL correction:    0.000000
       DOS:  cpu time      0.0041: real time      0.0044
    CHARGE:  cpu time      0.0469: real time      0.0470
    MIXING:  cpu time      0.0014: real time      0.0015
    --------------------------------------------
      LOOP:  cpu time      1.0065: real time      1.0240

 eigenvalue-minimisations  :  3943
 total energy-change (2. order) :-0.4620543E+00  (-0.3077953E+01)
 number of electron      71.9999998 magnetization       0.3402070
 augmentation part       24.6655538 magnetization       0.3015640

 Broyden mixing:
  rms(total) = 0.99575E+00    rms(broyden)= 0.99574E+00
  rms(prec ) = 0.16116E+01
  weight for this iteration     100.00

 eigenvalues of (default mixing * dielectric matrix)
  average eigenvalue GAMMA=   0.7055
  0.7055

 Free energy of the ion-electron system (eV)
  ---------------------------------------------------
  alpha Z        PSCENC =       185.64929911
  Ewald energy   TEWEN  =     -4678.36476469
  -Hartree energ DENC   =     -2271.74505055
  -exchange      EXHF   =         0.00000000
  -V(xc)+E(xc)   XCENC  =       174.37506910
  PAW double counting   =      6814.00422908    -6939.29634486
  entropy T*S    EENTRO =         0.00000000
  eigenvalues    EBANDS =      -280.86066750
  atomic energy  EATOM  =      6960.97766694
  Solvation  Ediel_sol  =         0.00000000
  ---------------------------------------------------
  free energy    TOTEN  =       -35.26056337 eV

  energy without entropy =      -35.26056337  energy(sigma->0) =      -35.26056337


--------------------------------------------------------------------------------------------------------




--------------------------------------- Iteration      1(   7)  ---------------------------------------


    POTLOK:  cpu time      0.0235: real time      0.0353
    SETDIJ:  cpu time      0.4026: real time      0.4037
    EDDIAG:  cpu time      0.2074: real time      0.2079
  RMM-DIIS:  cpu time      0.2628: real time      0.2634
    ORTHCH:  cpu time      0.0253: real time      0.0254
 BZINTS: Fermi energy:    3.924655;   72.000000 electrons
         Band energy:-0.237510E+03;  BLOECHL correction:   -0.000001
       DOS:  cpu time      0.0065: real time      0.0065
    CHARGE:  cpu time      0.0472: real time      0.0473
    MIXING:  cpu time      0.0005: real time      0.0005
    --------------------------------------------
      LOOP:  cpu time      0.9758: real time      0.9900

 eigenvalue-minimisations  :  3602
 total energy-change (2. order) : 0.2018080E+01  (-0.9436480E+00)
 number of electron      71.9999998 magnetization      -0.0998871
 augmentation part       23.7476447 magnetization      -0.1158773

 Broyden mixing:
  rms(total) = 0.35433E+00    rms(broyden)= 0.35433E+00
  rms(prec ) = 0.44256E+00
  weight for this iteration     100.00

 eigenvalues of (default mixing * dielectric matrix)
  average eigenvalue GAMMA=   0.9430
  1.2578  0.6282

 Free energy of the ion-electron system (eV)
  ---------------------------------------------------
  alpha Z        PSCENC =       185.64929911
  Ewald energy   TEWEN  =     -4678.36476469
  -Hartree energ DENC   =     -2302.01589336
  -exchange      EXHF   =         0.00000000
  -V(xc)+E(xc)   XCENC  =       175.80917074
  PAW double counting   =      7183.30026029    -7321.08859394
  entropy T*S    EENTRO =         0.00000000
  eigenvalues    EBANDS =      -237.50962883
  atomic energy  EATOM  =      6960.97766694
  Solvation  Ediel_sol  =         0.00000000
  ---------------------------------------------------
  free energy    TOTEN  =       -33.24248374 eV

  energy without entropy =      -33.24248374  energy(sigma->0) =      -33.24248374


--------------------------------------------------------------------------------------------------------




--------------------------------------- Iteration      1(   8)  ---------------------------------------


    POTLOK:  cpu time      0.0209: real time      0.0353
    SETDIJ:  cpu time      0.3989: real time      0.3999
    EDDIAG:  cpu time      0.2062: real time      0.2067
  RMM-DIIS:  cpu time      0.2972: real time      0.2979
    ORTHCH:  cpu time      0.0260: real time      0.0260
 BZINTS: Fermi energy:    4.165232;   72.000000 electrons
         Band energy:-0.231624E+03;  BLOECHL correction:    0.000000
       DOS:  cpu time      0.0046: real time      0.0046
    CHARGE:  cpu time      0.0470: real time      0.0471
    MIXING:  cpu time      0.0005: real time      0.0005
    --------------------------------------------
      LOOP:  cpu time      1.0011: real time      1.0180

 eigenvalue-minimisations  :  4189
 total energy-change (2. order) :-0.1124763E-01  (-0.8132344E-01)
 number of electron      71.9999998 magnetization      -0.0095170
 augmentation part       23.6570669 magnetization       0.0062579

 Broyden mixing:
  rms(total) = 0.16724E+00    rms(broyden)= 0.16724E+00
  rms(prec ) = 0.21438E+00
  weight for this iteration     100.00

 eigenvalues of (default mixing * dielectric matrix)
  average eigenvalue GAMMA=   1.2046
  0.6516  0.9339  2.0282

 Free energy of the ion-electron system (eV)
  ---------------------------------------------------
  alpha Z        PSCENC =       185.64929911
  Ewald energy   TEWEN  =     -4678.36476469
  -Hartree energ DENC   =     -2304.41364684
  -exchange      EXHF   =         0.00000000
  -V(xc)+E(xc)   XCENC  =       176.08698368
  PAW double counting   =      7810.02283923    -7951.58854997
  entropy T*S    EENTRO =         0.00000000
  eigenvalues    EBANDS =      -231.62355884
  atomic energy  EATOM  =      6960.97766694
  Solvation  Ediel_sol  =         0.00000000
  ---------------------------------------------------
  free energy    TOTEN  =       -33.25373137 eV

  energy without entropy =      -33.25373137  energy(sigma->0) =      -33.25373137


--------------------------------------------------------------------------------------------------------




--------------------------------------- Iteration      1(   9)  ---------------------------------------


    POTLOK:  cpu time      0.0219: real time      0.0383
    SETDIJ:  cpu time      0.4017: real time      0.4028
    EDDIAG:  cpu time      0.2038: real time      0.2043
  RMM-DIIS:  cpu time      0.3008: real time      0.3016
    ORTHCH:  cpu time      0.0253: real time      0.0254
 BZINTS: Fermi energy:    4.090456;   72.000000 electrons
         Band energy:-0.233179E+03;  BLOECHL correction:    0.000000
       DOS:  cpu time      0.0051: real time      0.0051
    CHARGE:  cpu time      0.0461: real time      0.0462
    MIXING:  cpu time      0.0005: real time      0.0005
    --------------------------------------------
      LOOP:  cpu time      1.0053: real time      1.0241

 eigenvalue-minimisations  :  4456
 total energy-change (2. order) : 0.3145392E-02  (-0.1734714E-01)
 number of electron      71.9999998 magnetization       0.0156231
 augmentation part       23.7483802 magnetization       0.0177946

 Broyden mixing:
  rms(total) = 0.58479E-01    rms(broyden)= 0.58479E-01
  rms(prec ) = 0.86240E-01
  weight for this iteration     100.00

 eigenvalues of (default mixing * dielectric matrix)
  average eigenvalue GAMMA=   1.1542
  2.2163  0.9907  0.6472  0.7628

 Free energy of the ion-electron system (eV)
  ---------------------------------------------------
  alpha Z        PSCENC =       185.64929911
  Ewald energy   TEWEN  =     -4678.36476469
  -Hartree energ DENC   =     -2302.18810772
  -exchange      EXHF   =         0.00000000
  -V(xc)+E(xc)   XCENC  =       176.00982581
  PAW double counting   =      8090.24232346    -8232.39755727
  entropy T*S    EENTRO =         0.00000000
  eigenvalues    EBANDS =      -233.17927163
  atomic energy  EATOM  =      6960.97766694
  Solvation  Ediel_sol  =         0.00000000
  ---------------------------------------------------
  free energy    TOTEN  =       -33.25058598 eV

  energy without entropy =      -33.25058598  energy(sigma->0) =      -33.25058598


--------------------------------------------------------------------------------------------------------




--------------------------------------- Iteration      1(  10)  ---------------------------------------


    POTLOK:  cpu time      0.0216: real time      0.0354
    SETDIJ:  cpu time      0.4018: real time      0.4029
    EDDIAG:  cpu time      0.2039: real time      0.2044
  RMM-DIIS:  cpu time      0.3225: real time      0.3233
    ORTHCH:  cpu time      0.0259: real time      0.0260
 BZINTS: Fermi energy:    4.128612;   72.000000 electrons
         Band energy:-0.231458E+03;  BLOECHL correction:    0.000000
       DOS:  cpu time      0.0049: real time      0.0049
    CHARGE:  cpu time      0.0460: real time      0.0461
    MIXING:  cpu time      0.0006: real time      0.0006
    --------------------------------------------
      LOOP:  cpu time      1.0273: real time      1.0436

 eigenvalue-minimisations  :  4883
 total energy-change (2. order) :-0.3227814E-02  (-0.7211858E-02)
 number of electron      71.9999998 magnetization       0.0102846
 augmentation part       23.7031968 magnetization       0.0099537

 Broyden mixing:
  rms(total) = 0.28968E-01    rms(broyden)= 0.28968E-01
  rms(prec ) = 0.32643E-01
  weight for this iteration     100.00

 eigenvalues of (default mixing * dielectric matrix)
  average eigenvalue GAMMA=   1.1679
  1.8053  1.8053  0.9096  0.6598  0.6598

 Free energy of the ion-electron system (eV)
  ---------------------------------------------------
  alpha Z        PSCENC =       185.64929911
  Ewald energy   TEWEN  =     -4678.36476469
  -Hartree energ DENC   =     -2303.30799077
  -exchange      EXHF   =         0.00000000
  -V(xc)+E(xc)   XCENC  =       176.05035705
  PAW double counting   =      8160.94696689    -8303.74703921
  entropy T*S    EENTRO =         0.00000000
  eigenvalues    EBANDS =      -231.45830912
  atomic energy  EATOM  =      6960.97766694
  Solvation  Ediel_sol  =         0.00000000
  ---------------------------------------------------
  free energy    TOTEN  =       -33.25381380 eV

  energy without entropy =      -33.25381380  energy(sigma->0) =      -33.25381380


--------------------------------------------------------------------------------------------------------




--------------------------------------- Iteration      1(  11)  ---------------------------------------


    POTLOK:  cpu time      0.0209: real time      0.0347
    SETDIJ:  cpu time      0.4021: real time      0.4032
    EDDIAG:  cpu time      0.2292: real time      0.2298
  RMM-DIIS:  cpu time      0.3994: real time      0.4004
    ORTHCH:  cpu time      0.0265: real time      0.0265
 BZINTS: Fermi energy:    4.121343;   72.000000 electrons
         Band energy:-0.231525E+03;  BLOECHL correction:    0.000000
       DOS:  cpu time      0.0046: real time      0.0046
    CHARGE:  cpu time      0.0590: real time      0.0591
    MIXING:  cpu time      0.0006: real time      0.0006
    --------------------------------------------
      LOOP:  cpu time      1.1422: real time      1.1588

 eigenvalue-minimisations  :  5590
 total energy-change (2. order) :-0.1078802E-02  (-0.1231817E-02)
 number of electron      71.9999998 magnetization       0.0006117
 augmentation part       23.7071500 magnetization      -0.0005893

 Broyden mixing:
  rms(total) = 0.21080E-01    rms(broyden)= 0.21080E-01
  rms(prec ) = 0.23701E-01
  weight for this iteration     100.00

 eigenvalues of (default mixing * dielectric matrix)
  average eigenvalue GAMMA=   1.1882
  2.0374  2.0374  0.9024  0.9024  0.6248  0.6248

 Free energy of the ion-electron system (eV)
  ---------------------------------------------------
  alpha Z        PSCENC =       185.64929911
  Ewald energy   TEWEN  =     -4678.36476469
  -Hartree energ DENC   =     -2303.29814039
  -exchange      EXHF   =         0.00000000
  -V(xc)+E(xc)   XCENC  =       176.04502859
  PAW double counting   =      8150.28460723    -8293.02391051
  entropy T*S    EENTRO =         0.00000000
  eigenvalues    EBANDS =      -231.52467889
  atomic energy  EATOM  =      6960.97766694
  Solvation  Ediel_sol  =         0.00000000
  ---------------------------------------------------
  free energy    TOTEN  =       -33.25489260 eV

  energy without entropy =      -33.25489260  energy(sigma->0) =      -33.25489260


--------------------------------------------------------------------------------------------------------




--------------------------------------- Iteration      1(  12)  ---------------------------------------


    POTLOK:  cpu time      0.0207: real time      0.0351
    SETDIJ:  cpu time      0.3986: real time      0.3997
    EDDIAG:  cpu time      0.2190: real time      0.2195
  RMM-DIIS:  cpu time      0.4208: real time      0.4218
    ORTHCH:  cpu time      0.0268: real time      0.0268
 BZINTS: Fermi energy:    4.122903;   72.000000 electrons
         Band energy:-0.231461E+03;  BLOECHL correction:    0.000000
       DOS:  cpu time      0.0048: real time      0.0048
    CHARGE:  cpu time      0.0547: real time      0.0550
    MIXING:  cpu time      0.0006: real time      0.0006
    --------------------------------------------
      LOOP:  cpu time      1.1459: real time      1.1634

 eigenvalue-minimisations  :  5705
 total energy-change (2. order) :-0.2135940E-03  (-0.1417944E-03)
 number of electron      71.9999998 magnetization      -0.0006900
 augmentation part       23.7074053 magnetization      -0.0008058

 Broyden mixing:
  rms(total) = 0.12291E-01    rms(broyden)= 0.12291E-01
  rms(prec ) = 0.14720E-01
  weight for this iteration     100.00

 eigenvalues of (default mixing * dielectric matrix)
  average eigenvalue GAMMA=   1.3709
  2.7105  2.7105  1.0692  1.0692  0.7783  0.6469  0.6117

 Free energy of the ion-electron system (eV)
  ---------------------------------------------------
  alpha Z        PSCENC =       185.64929911
  Ewald energy   TEWEN  =     -4678.36476469
  -Hartree energ DENC   =     -2303.43872100
  -exchange      EXHF   =         0.00000000
  -V(xc)+E(xc)   XCENC  =       176.05021448
  PAW double counting   =      8120.84636519    -8263.51440425
  entropy T*S    EENTRO =         0.00000000
  eigenvalues    EBANDS =      -231.46076199
  atomic energy  EATOM  =      6960.97766694
  Solvation  Ediel_sol  =         0.00000000
  ---------------------------------------------------
  free energy    TOTEN  =       -33.25510619 eV

  energy without entropy =      -33.25510619  energy(sigma->0) =      -33.25510619


--------------------------------------------------------------------------------------------------------




--------------------------------------- Iteration      1(  13)  ---------------------------------------


    POTLOK:  cpu time      0.0244: real time      0.0390
    SETDIJ:  cpu time      0.4032: real time      0.4042
    EDDIAG:  cpu time      0.2258: real time      0.2263
  RMM-DIIS:  cpu time      0.3831: real time      0.3841
    ORTHCH:  cpu time      0.0271: real time      0.0271
 BZINTS: Fermi energy:    4.125516;   72.000000 electrons
         Band energy:-0.231122E+03;  BLOECHL correction:   -0.000000
       DOS:  cpu time      0.0048: real time      0.0048
    CHARGE:  cpu time      0.0549: real time      0.0550
    MIXING:  cpu time      0.0008: real time      0.0008
    --------------------------------------------
      LOOP:  cpu time      1.1240: real time      1.1414

 eigenvalue-minimisations  :  4868
 total energy-change (2. order) :-0.9255292E-04  (-0.5341745E-04)
 number of electron      71.9999998 magnetization       0.0003666
 augmentation part       23.7020031 magnetization       0.0004202

 Broyden mixing:
  rms(total) = 0.37771E-02    rms(broyden)= 0.37770E-02
  rms(prec ) = 0.49494E-02
  weight for this iteration     100.00

 eigenvalues of (default mixing * dielectric matrix)
  average eigenvalue GAMMA=   1.3359
  2.4678  2.4678  1.3798  1.3798  0.9270  0.7962  0.6406  0.6280

 Free energy of the ion-electron system (eV)
  ---------------------------------------------------
  alpha Z        PSCENC =       185.64929911
  Ewald energy   TEWEN  =     -4678.36476469
  -Hartree energ DENC   =     -2303.76251059
  -exchange      EXHF   =         0.00000000
  -V(xc)+E(xc)   XCENC  =       176.06499936
  PAW double counting   =      8097.52767971    -8240.22509041
  entropy T*S    EENTRO =         0.00000000
  eigenvalues    EBANDS =      -231.12247818
  atomic energy  EATOM  =      6960.97766694
  Solvation  Ediel_sol  =         0.00000000
  ---------------------------------------------------
  free energy    TOTEN  =       -33.25519875 eV

  energy without entropy =      -33.25519875  energy(sigma->0) =      -33.25519875


--------------------------------------------------------------------------------------------------------




--------------------------------------- Iteration      1(  14)  ---------------------------------------


    POTLOK:  cpu time      0.0257: real time      0.0386
    SETDIJ:  cpu time      0.4035: real time      0.4044
    EDDIAG:  cpu time      0.2259: real time      0.2265
  RMM-DIIS:  cpu time      0.3789: real time      0.3800
    ORTHCH:  cpu time      0.0260: real time      0.0261
 BZINTS: Fermi energy:    4.125567;   72.000000 electrons
         Band energy:-0.231134E+03;  BLOECHL correction:    0.000000
       DOS:  cpu time      0.0048: real time      0.0048
    CHARGE:  cpu time      0.0526: real time      0.0527
    MIXING:  cpu time      0.0011: real time      0.0011
    --------------------------------------------
      LOOP:  cpu time      1.1186: real time      1.1342

 eigenvalue-minimisations  :  4812
 total energy-change (2. order) :-0.1732416E-04  (-0.2361740E-04)
 number of electron      71.9999998 magnetization       0.0007006
 augmentation part       23.7032132 magnetization       0.0007304

 Broyden mixing:
  rms(total) = 0.36545E-02    rms(broyden)= 0.36545E-02
  rms(prec ) = 0.37948E-02
  weight for this iteration     100.00

 eigenvalues of (default mixing * dielectric matrix)
  average eigenvalue GAMMA=   1.3109
  2.6478  2.0969  2.0969  1.3903  0.9424  0.7934  0.6471  0.5918  0.5918

 Free energy of the ion-electron system (eV)
  ---------------------------------------------------
  alpha Z        PSCENC =       185.64929911
  Ewald energy   TEWEN  =     -4678.36476469
  -Hartree energ DENC   =     -2303.71621362
  -exchange      EXHF   =         0.00000000
  -V(xc)+E(xc)   XCENC  =       176.06578044
  PAW double counting   =      8103.84333729    -8246.57639326
  entropy T*S    EENTRO =         0.00000000
  eigenvalues    EBANDS =      -231.13392829
  atomic energy  EATOM  =      6960.97766694
  Solvation  Ediel_sol  =         0.00000000
  ---------------------------------------------------
  free energy    TOTEN  =       -33.25521607 eV

  energy without entropy =      -33.25521607  energy(sigma->0) =      -33.25521607


--------------------------------------------------------------------------------------------------------




--------------------------------------- Iteration      1(  15)  ---------------------------------------


    POTLOK:  cpu time      0.0228: real time      0.0389
    SETDIJ:  cpu time      0.3986: real time      0.3996
    EDDIAG:  cpu time      0.2237: real time      0.2242
  RMM-DIIS:  cpu time      0.3308: real time      0.3318
    ORTHCH:  cpu time      0.0262: real time      0.0263
 BZINTS: Fermi energy:    4.125596;   72.000000 electrons
         Band energy:-0.231128E+03;  BLOECHL correction:    0.000000
       DOS:  cpu time      0.0045: real time      0.0045
    CHARGE:  cpu time      0.0626: real time      0.0627
    MIXING:  cpu time      0.0008: real time      0.0008
    --------------------------------------------
      LOOP:  cpu time      1.0701: real time      1.0888

 eigenvalue-minimisations  :  4218
 total energy-change (2. order) :-0.9566186E-05  (-0.1045297E-04)
 number of electron      71.9999998 magnetization       0.0010159
 augmentation part       23.7034063 magnetization       0.0009888

 Broyden mixing:
  rms(total) = 0.31586E-02    rms(broyden)= 0.31586E-02
  rms(prec ) = 0.33156E-02
  weight for this iteration     100.00

 eigenvalues of (default mixing * dielectric matrix)
  average eigenvalue GAMMA=   1.4686
  3.8409  2.3917  2.3917  1.5460  0.9123  0.9123  0.7218  0.7218  0.6047  0.6429

 Free energy of the ion-electron system (eV)
  ---------------------------------------------------
  alpha Z        PSCENC =       185.64929911
  Ewald energy   TEWEN  =     -4678.36476469
  -Hartree energ DENC   =     -2303.72005946
  -exchange      EXHF   =         0.00000000
  -V(xc)+E(xc)   XCENC  =       176.06654855
  PAW double counting   =      8099.61362933    -8242.34952576
  entropy T*S    EENTRO =         0.00000000
  eigenvalues    EBANDS =      -231.12801967
  atomic energy  EATOM  =      6960.97766694
  Solvation  Ediel_sol  =         0.00000000
  ---------------------------------------------------
  free energy    TOTEN  =       -33.25522564 eV

  energy without entropy =      -33.25522564  energy(sigma->0) =      -33.25522564


--------------------------------------------------------------------------------------------------------




--------------------------------------- Iteration      1(  16)  ---------------------------------------


    POTLOK:  cpu time      0.0199: real time      0.0366
    SETDIJ:  cpu time      0.4015: real time      0.4024
    EDDIAG:  cpu time      0.2029: real time      0.2036
  RMM-DIIS:  cpu time      0.2266: real time      0.2272
    ORTHCH:  cpu time      0.0255: real time      0.0256
 BZINTS: Fermi energy:    4.125962;   72.000000 electrons
         Band energy:-0.231095E+03;  BLOECHL correction:    0.000000
       DOS:  cpu time      0.0046: real time      0.0046
    --------------------------------------------
      LOOP:  cpu time      0.8810: real time      0.8999

 eigenvalue-minimisations  :  3351
 total energy-change (2. order) :-0.2521593E-05  (-0.4485806E-05)
 number of electron      71.9999998 magnetization       0.0010159
 augmentation part       23.7034063 magnetization       0.0009888

 Free energy of the ion-electron system (eV)
  ---------------------------------------------------
  alpha Z        PSCENC =       185.64929911
  Ewald energy   TEWEN  =     -4678.36476469
  -Hartree energ DENC   =     -2303.75289234
  -exchange      EXHF   =         0.00000000
  -V(xc)+E(xc)   XCENC  =       176.06797091
  PAW double counting   =      8089.33032522    -8232.06745255
  entropy T*S    EENTRO =         0.00000000
  eigenvalues    EBANDS =      -231.09538076
  atomic energy  EATOM  =      6960.97766694
  Solvation  Ediel_sol  =         0.00000000
  ---------------------------------------------------
  free energy    TOTEN  =       -33.25522816 eV

  energy without entropy =      -33.25522816  energy(sigma->0) =      -33.25522816


--------------------------------------------------------------------------------------------------------




 average (electrostatic) potential at core
  the test charge radii are     1.0774  0.9430  1.0808
  (the norm of the test charge is              1.0000)
       1 -97.2132       2 -97.2132       3 -66.0540       4 -66.0540       5 -54.2709
       6 -54.2709       7 -54.2709       8 -54.2709
 
 
 
 E-fermi :   4.1260     XC(G=0):  -9.5004     alpha+bet : -9.4251

 Fermi energy:         4.1259615856

 spin component 1

 k-point     1 :       0.0000    0.0000    0.0000
  band No.  band energies     occupation 
      1     -10.9708      1.00000
      2     -10.9535      1.00000
      3     -10.9535      1.00000
      4     -10.7103      1.00000
      5     -10.6901      1.00000
      6     -10.6901      1.00000
      7     -10.6283      1.00000
      8     -10.6273      1.00000
      9     -10.6103      1.00000
     10     -10.6033      1.00000
     11      -9.9303      1.00000
     12      -8.5344      1.00000
     13      -8.5199      1.00000
     14      -8.5199      1.00000
     15      -2.4252      1.00000
     16      -1.7380      1.00000
     17      -0.8454      1.00000
     18      -0.1217      1.00000
     19      -0.0438      1.00000
     20       0.4212      1.00000
     21       0.4212      1.00000
     22       0.6963      1.00000
     23       0.6963      1.00000
     24       0.9683      1.00000
     25       0.9683      1.00000
     26       1.0397      1.00000
     27       2.0281      1.00000
     28       2.0856      1.00000
     29       2.1500      1.00000
     30       2.4441      1.00000
     31       2.4593      1.00000
     32       2.4593      1.00000
     33       2.5692      1.00000
     34       3.7916      1.00000
     35       4.1256      1.00000
     36       4.1256      1.00000
     37       4.1350      0.00000
     38       5.9098      0.00000
     39       6.0405      0.00000
     40       7.9121      0.00000
     41       7.9121      0.00000
     42       8.5452      0.00000
     43       8.8940      0.00000
     44       8.8940      0.00000
     45       8.8993      0.00000
     46       9.2313      0.00000
     47      10.0102      0.00000
     48      10.0128      0.00000

 k-point     2 :       0.2500   -0.0000    0.0000
  band No.  band energies     occupation 
      1     -10.9750      1.00000
      2     -10.9675      1.00000
      3     -10.9411      1.00000
      4     -10.7415      1.00000
      5     -10.7052      1.00000
      6     -10.6844      1.00000
      7     -10.6305      1.00000
      8     -10.6202      1.00000
      9     -10.6127      1.00000
     10     -10.6016      1.00000
     11      -9.6999      1.00000
     12      -8.6738      1.00000
     13      -8.6079      1.00000
     14      -8.5493      1.00000
     15      -2.2700      1.00000
     16      -1.7836      1.00000
     17      -0.8373      1.00000
     18      -0.2603      1.00000
     19       0.0601      1.00000
     20       0.3623      1.00000
     21       0.4457      1.00000
     22       0.6073      1.00000
     23       0.6692      1.00000
     24       0.8734      1.00000
     25       0.9393      1.00000
     26       1.1890      1.00000
     27       2.1454      1.00000
     28       2.2135      1.00000
     29       2.2570      1.00000
     30       2.3052      1.00000
     31       2.4182      1.00000
     32       2.6439      1.00000
     33       2.6693      1.00000
     34       3.0282      1.00000
     35       3.6584      1.00000
     36       3.9087      1.00000
     37       5.3254      0.00000
     38       6.3251      0.00000
     39       6.7731      0.00000
     40       7.1981      0.00000
     41       7.5164      0.00000
     42       8.3824      0.00000
     43       8.7801      0.00000
     44       8.8994      0.00000
     45       9.0385      0.00000
     46       9.4897      0.00000
     47      10.1076      0.00000
     48      10.7736      0.00000

 k-point     3 :       0.5000   -0.0000    0.0000
  band No.  band energies     occupation 
      1     -10.9891      1.00000
      2     -10.9734      1.00000
      3     -10.9199      1.00000
      4     -10.7804      1.00000
      5     -10.7085      1.00000
      6     -10.6804      1.00000
      7     -10.6265      1.00000
      8     -10.6248      1.00000
      9     -10.6060      1.00000
     10     -10.6041      1.00000
     11      -9.2737      1.00000
     12      -9.0557      1.00000
     13      -8.6674      1.00000
     14      -8.5744      1.00000
     15      -2.0786      1.00000
     16      -1.7555      1.00000
     17      -0.7301      1.00000
     18      -0.3359      1.00000
     19      -0.2048      1.00000
     20       0.0743      1.00000
     21       0.4922      1.00000
     22       0.7376      1.00000
     23       0.7423      1.00000
     24       0.8475      1.00000
     25       0.9138      1.00000
     26       1.2319      1.00000
     27       2.1995      1.00000
     28       2.2079      1.00000
     29       2.2445      1.00000
     30       2.3840      1.00000
     31       2.5089      1.00000
     32       2.7385      1.00000
     33       2.8909      1.00000
     34       2.9423      1.00000
     35       3.1088      1.00000
     36       3.5891      1.00000
     37       6.0726      0.00000
     38       6.3981      0.00000
     39       7.1556      0.00000
     40       7.7838      0.00000
     41       8.0494      0.00000
     42       8.2203      0.00000
     43       8.6049      0.00000
     44       8.8167      0.00000
     45       9.2950      0.00000
     46       9.4034      0.00000
     47      10.1769      0.00000
     48      10.4649      0.00000

 k-point     4 :       0.2500    0.2500    0.0000
  band No.  band energies     occupation 
      1     -10.9833      1.00000
      2     -10.9769      1.00000
      3     -10.9167      1.00000
      4     -10.7856      1.00000
      5     -10.7001      1.00000
      6     -10.6889      1.00000
      7     -10.6285      1.00000
      8     -10.6183      1.00000
      9     -10.6114      1.00000
     10     -10.6013      1.00000
     11      -9.4371      1.00000
     12      -8.7713      1.00000
     13      -8.6954      1.00000
     14      -8.6423      1.00000
     15      -2.2236      1.00000
     16      -1.9367      1.00000
     17      -0.9712      1.00000
     18      -0.2923      1.00000
     19       0.1669      1.00000
     20       0.2577      1.00000
     21       0.3653      1.00000
     22       0.7392      1.00000
     23       0.8357      1.00000
     24       0.9141      1.00000
     25       1.1386      1.00000
     26       1.1637      1.00000
     27       2.1388      1.00000
     28       2.2144      1.00000
     29       2.3275      1.00000
     30       2.3562      1.00000
     31       2.5437      1.00000
     32       2.6575      1.00000
     33       2.7625      1.00000
     34       3.0457      1.00000
     35       3.7122      1.00000
     36       3.7500      1.00000
     37       5.1686      0.00000
     38       5.9689      0.00000
     39       6.7717      0.00000
     40       7.0295      0.00000
     41       7.6747      0.00000
     42       8.5421      0.00000
     43       9.1868      0.00000
     44       9.1952      0.00000
[...]
      4     -10.8061      1.00000
      5     -10.7043      1.00000
      6     -10.6912      1.00000
      7     -10.6220      1.00000
      8     -10.6194      1.00000
      9     -10.6077      1.00000
     10     -10.6065      1.00000
     11      -9.2099      1.00000
     12      -8.9031      1.00000
     13      -8.8137      1.00000
     14      -8.6030      1.00000
     15      -2.2165      1.00000
     16      -2.0528      1.00000
     17      -0.9861      1.00000
     18      -0.6150      1.00000
     19      -0.1487      1.00000
     20       0.5478      1.00000
     21       0.6434      1.00000
     22       0.7074      1.00000
     23       0.7956      1.00000
     24       1.0084      1.00000
     25       1.1235      1.00000
     26       1.2335      1.00000
     27       2.1752      1.00000
     28       2.1908      1.00000
     29       2.2409      1.00000
     30       2.4341      1.00000
     31       2.6187      1.00000
     32       2.8056      1.00000
     33       2.9041      1.00000
     34       3.1953      1.00000
     35       3.4534      1.00000
     36       3.5441      1.00000
     37       5.6183      0.00000
     38       5.7271      0.00000
     39       7.2781      0.00000
     40       7.6173      0.00000
     41       7.8352      0.00000
     42       8.3853      0.00000
     43       8.7128      0.00000
     44       9.1071      0.00000
     45       9.3867      0.00000
     46       9.8088      0.00000
     47      10.0473      0.00000
     48      10.1256      0.00000

 k-point    17 :      -0.2500   -0.2500    0.3333
  band No.  band energies     occupation 
      1     -10.9805      1.00000
      2     -10.9775      1.00000
      3     -10.9288      1.00000
      4     -10.7543      1.00000
      5     -10.7062      1.00000
      6     -10.6945      1.00000
      7     -10.6255      1.00000
      8     -10.6185      1.00000
      9     -10.6117      1.00000
     10     -10.6040      1.00000
     11      -9.5683      1.00000
     12      -8.7141      1.00000
     13      -8.6823      1.00000
     14      -8.5478      1.00000
     15      -2.2829      1.00000
     16      -1.9406      1.00000
     17      -1.0000      1.00000
     18      -0.1704      1.00000
     19      -0.1389      1.00000
     20       0.2628      1.00000
     21       0.4381      1.00000
     22       0.7446      1.00000
     23       0.7732      1.00000
     24       0.8979      1.00000
     25       1.1153      1.00000
     26       1.2670      1.00000
     27       2.1457      1.00000
     28       2.2286      1.00000
     29       2.2958      1.00000
     30       2.3134      1.00000
     31       2.5307      1.00000
     32       2.6933      1.00000
     33       2.7929      1.00000
     34       2.9556      1.00000
     35       3.5647      1.00000
     36       3.9493      1.00000
     37       5.3970      0.00000
     38       6.0179      0.00000
     39       7.0264      0.00000
     40       7.2012      0.00000
     41       8.0036      0.00000
     42       8.2018      0.00000
     43       8.7801      0.00000
     44       9.0593      0.00000
     45       9.4577      0.00000
     46       9.4706      0.00000
     47      10.1946      0.00000
     48      10.8449      0.00000


--------------------------------------------------------------------------------------------------------


 soft charge-density along one line, spin component           1
         0         1         2         3         4         5         6         7         8         9
 total charge-density along one line
 
 soft charge-density along one line, spin component           2
         0         1         2         3         4         5         6         7         8         9
 total charge-density along one line
 
 pseudopotential strength for first ion, spin component:           1
-12.899  -0.001  -0.000  -0.001  -0.001   3.179   0.001   0.000
 -0.001 -12.901  -0.002  -0.001  -0.001   0.001   3.181   0.001
 -0.000  -0.002 -12.901  -0.001  -0.000   0.000   0.001   3.180
 -0.001  -0.001  -0.001 -12.901   0.001   0.000   0.000   0.001
 -0.001  -0.001  -0.000   0.001 -12.902   0.001   0.000   0.000
  3.179   0.001   0.000   0.000   0.001   4.767  -0.000  -0.000
  0.001   3.181   0.001   0.000   0.000  -0.000   4.766  -0.000
  0.000   0.001   3.180   0.001   0.000  -0.000  -0.000   4.767
  0.000   0.000   0.001   3.181  -0.001  -0.000  -0.000  -0.000
  0.001   0.000   0.000  -0.001   3.181  -0.000  -0.000   0.000
 -0.000  -0.000  -0.000  -0.000   0.000  -0.000  -0.000  -0.000
 -0.000  -0.000  -0.000  -0.000   0.000  -0.000  -0.000  -0.000
  0.000  -0.000  -0.000   0.000   0.000  -0.000   0.000   0.000
  0.000  -0.000   0.000  -0.000  -0.000  -0.000   0.000  -0.000
  0.000   0.000  -0.000  -0.000  -0.000  -0.000  -0.000   0.000
  0.001  -0.000  -0.000   0.000   0.000  -0.000   0.000   0.000
  0.000  -0.000   0.001  -0.000  -0.000  -0.000   0.000  -0.000
  0.001   0.000  -0.000  -0.001  -0.001  -0.000  -0.000   0.000
 pseudopotential strength for first ion, spin component:           2
-12.899  -0.001  -0.000  -0.001  -0.001   3.179   0.001   0.000
 -0.001 -12.902  -0.002  -0.001  -0.001   0.001   3.181   0.001
 -0.000  -0.002 -12.901  -0.001  -0.000   0.000   0.001   3.180
 -0.001  -0.001  -0.001 -12.902   0.001   0.000   0.000   0.001
 -0.001  -0.001  -0.000   0.001 -12.902   0.001   0.000   0.000
  3.179   0.001   0.000   0.000   0.001   4.767  -0.000  -0.000
  0.001   3.181   0.001   0.000   0.000  -0.000   4.766  -0.000
  0.000   0.001   3.180   0.001   0.000  -0.000  -0.000   4.767
  0.000   0.000   0.001   3.181  -0.001  -0.000  -0.000  -0.000
  0.001   0.000   0.000  -0.001   3.181  -0.000  -0.000   0.000
 -0.000  -0.000  -0.000  -0.000   0.000  -0.000  -0.000  -0.000
 -0.000  -0.000  -0.000  -0.000   0.000  -0.000  -0.000  -0.000
  0.000  -0.000  -0.000   0.000   0.000  -0.000   0.000   0.000
  0.000  -0.000   0.000  -0.000  -0.000  -0.000   0.000  -0.000
  0.000   0.000  -0.000  -0.000  -0.000  -0.000  -0.000   0.000
  0.001  -0.000  -0.000   0.000   0.000  -0.000   0.000   0.000
  0.000  -0.000   0.001  -0.000  -0.000  -0.000   0.000  -0.000
  0.001   0.000  -0.000  -0.001  -0.001  -0.000  -0.000   0.000
 total augmentation occupancy for first ion, spin component:           1
  2.005  -0.000  -0.000  -0.000   0.000   0.014  -0.001  -0.001  -0.001   0.000  -0.004   0.003   0.069   0.039   0.047  -0.039
 -0.000   2.004  -0.000  -0.000  -0.000  -0.001   0.010  -0.002  -0.001  -0.001  -0.008   0.007  -0.034  -0.039   0.039   0.019
 -0.000  -0.000   2.004  -0.000   0.000  -0.001  -0.002   0.012  -0.002   0.000  -0.006   0.005  -0.034   0.068  -0.035   0.019
 -0.000  -0.000  -0.000   2.004   0.000  -0.001  -0.001  -0.002   0.011   0.002  -0.007   0.005   0.040  -0.041  -0.045  -0.022
  0.000  -0.000   0.000   0.000   2.004   0.000  -0.001   0.000   0.002   0.010   0.001  -0.001   0.027  -0.006  -0.049  -0.015
  0.014  -0.001  -0.001  -0.001   0.000   0.039  -0.007  -0.003  -0.003  -0.002  -0.005   0.003   0.163   0.093   0.110  -0.038
 -0.001   0.010  -0.002  -0.001  -0.001  -0.007   0.025  -0.009  -0.004  -0.008  -0.011   0.007  -0.079  -0.090   0.093   0.019
 -0.001  -0.002   0.012  -0.002   0.000  -0.003  -0.009   0.033  -0.007   0.001  -0.009   0.005  -0.079   0.160  -0.083   0.018
 -0.001  -0.001  -0.002   0.011   0.002  -0.003  -0.004  -0.007   0.028   0.010  -0.009   0.006   0.092  -0.097  -0.106  -0.021
  0.000  -0.001   0.000   0.002   0.010  -0.002  -0.008   0.001   0.010   0.022   0.001  -0.001   0.066  -0.010  -0.114  -0.016
 -0.004  -0.008  -0.006  -0.007   0.001  -0.005  -0.011  -0.009  -0.009   0.001   6.044  -2.834   0.000  -0.000  -0.000   0.000
  0.003   0.007   0.005   0.005  -0.001   0.003   0.007   0.005   0.006  -0.001  -2.834   1.610  -0.000   0.000   0.000   0.000
  0.069  -0.034  -0.034   0.040   0.027   0.163  -0.079  -0.079   0.092   0.066   0.000   0.000   2.431  -0.039  -0.017  -0.565
  0.039  -0.039   0.068  -0.041  -0.006   0.093  -0.090   0.160  -0.097  -0.010   0.000   0.000  -0.039   2.381  -0.032   0.013
  0.047   0.039  -0.035  -0.045  -0.049   0.110   0.093  -0.083  -0.106  -0.114  -0.000   0.000  -0.017  -0.032   2.438   0.006
 -0.039   0.019   0.019  -0.022  -0.015  -0.038   0.019   0.018  -0.021  -0.016   0.000   0.000  -0.565   0.013   0.006   0.140
 -0.022   0.022  -0.038   0.022   0.003  -0.022   0.020  -0.037   0.023   0.002   0.000  -0.000   0.013  -0.549   0.010  -0.004
 -0.026  -0.022   0.019   0.025   0.027  -0.026  -0.022   0.020   0.024   0.026   0.000   0.000   0.006   0.010  -0.567  -0.002
 total augmentation occupancy for first ion, spin component:           2
  0.000   0.000  -0.000   0.000   0.000   0.000   0.000  -0.000  -0.000   0.000   0.000  -0.000  -0.000  -0.000  -0.000   0.000
  0.000   0.000   0.000  -0.000  -0.000   0.000   0.000  -0.000  -0.000  -0.000   0.000  -0.000   0.000   0.000  -0.000  -0.000
 -0.000   0.000   0.000  -0.000   0.000  -0.000   0.000   0.000  -0.000   0.000   0.000  -0.000   0.000  -0.000   0.000  -0.000
  0.000  -0.000  -0.000   0.000   0.000  -0.000  -0.000  -0.000   0.000   0.000   0.000  -0.000  -0.000   0.000   0.000   0.000
  0.000  -0.000   0.000   0.000   0.000   0.000  -0.000   0.000   0.000   0.000  -0.000   0.000  -0.000  -0.000   0.000   0.000
  0.000   0.000  -0.000  -0.000   0.000   0.000  -0.000   0.000  -0.000  -0.000  -0.000   0.000   0.000   0.000   0.000  -0.000
  0.000   0.000   0.000  -0.000  -0.000  -0.000  -0.000  -0.000  -0.000  -0.000  -0.000   0.000  -0.000  -0.000   0.000   0.000
 -0.000  -0.000   0.000  -0.000   0.000   0.000  -0.000  -0.000  -0.000  -0.000  -0.000   0.000  -0.000   0.000  -0.000   0.000
 -0.000  -0.000  -0.000   0.000   0.000  -0.000  -0.000  -0.000  -0.000   0.000  -0.000   0.000   0.000  -0.000  -0.000  -0.000
  0.000  -0.000   0.000   0.000   0.000  -0.000  -0.000  -0.000   0.000  -0.000   0.000  -0.000   0.000   0.000  -0.000  -0.000
  0.000   0.000   0.000   0.000  -0.000  -0.000  -0.000  -0.000  -0.000   0.000  -0.003   0.003   0.000   0.000   0.000   0.000
 -0.000  -0.000  -0.000  -0.000   0.000   0.000   0.000   0.000   0.000  -0.000   0.003  -0.002   0.000  -0.000  -0.000   0.000
 -0.000   0.000   0.000  -0.000  -0.000   0.000  -0.000  -0.000   0.000   0.000   0.000   0.000   0.000   0.000   0.000  -0.000
 -0.000   0.000  -0.000   0.000  -0.000   0.000  -0.000   0.000  -0.000   0.000   0.000   0.000   0.000   0.000   0.000  -0.000
 -0.000  -0.000   0.000   0.000   0.000   0.000   0.000  -0.000  -0.000  -0.000  -0.000   0.000   0.000   0.000   0.000  -0.000
  0.000  -0.000  -0.000   0.000   0.000  -0.000   0.000   0.000  -0.000  -0.000   0.000   0.000  -0.000  -0.000  -0.000   0.000
  0.000  -0.000   0.000  -0.000   0.000  -0.000   0.000  -0.000   0.000   0.000  -0.000   0.000  -0.000  -0.000  -0.000   0.000
  0.000   0.000  -0.000  -0.000  -0.000  -0.000  -0.000   0.000   0.000   0.000  -0.000   0.000  -0.000  -0.000  -0.000   0.000


------------------------ aborting loop because EDIFF is reached ----------------------------------------





 total charge

# of ion       s       p       d       tot
------------------------------------------
    1        0.839   0.650   9.908  11.398
    2        0.839   0.650   9.908  11.398
    3        0.372   0.335   9.264   9.971
    4        0.372   0.335   9.264   9.971
    5        1.454   2.347   0.042   3.843
    6        1.454   2.347   0.042   3.843
    7        1.454   2.347   0.042   3.843
    8        1.454   2.347   0.042   3.843
--------------------------------------------------
tot          8.237  11.358  38.514  58.109



 magnetization (x)

# of ion       s       p       d       tot
------------------------------------------
    1       -0.000  -0.000   0.000  -0.000
    2       -0.000  -0.000   0.000  -0.000
    3       -0.000   0.000  -0.000  -0.000
    4       -0.000   0.000  -0.000  -0.000
    5        0.000  -0.000   0.000  -0.000
    6        0.000  -0.000   0.000  -0.000
    7        0.000  -0.000   0.000  -0.000
    8        0.000  -0.000   0.000  -0.000
--------------------------------------------------
tot         -0.000  -0.000  -0.000  -0.000
 
    CHARGE:  cpu time      0.0453: real time      0.0454
    FORLOC:  cpu time      0.0009: real time      0.0011
    FORNL :  cpu time      0.0739: real time      0.0746
    STRESS:  cpu time      0.2078: real time      0.2091
    FORCOR:  cpu time      0.0196: real time      0.0196
    FORHAR:  cpu time      0.0045: real time      0.0052
    MIXING:  cpu time      0.0007: real time      0.0007
    OFIELD:  cpu time      0.0004: real time      0.0004

  FORCE on cell =-STRESS in cart. coord.  units (eV):
  Direction    XX          YY          ZZ          XY          YZ          ZX
  --------------------------------------------------------------------------------------
  Alpha Z   185.64930   185.64930   185.64930
  Ewald   -1561.86292 -1561.07209 -1555.43578     1.94974     4.37352     3.57555
  Hartree   766.71882   767.12593   770.02766     1.00381     2.25171     1.84091
  E(xc)    -345.89607  -345.89839  -345.91491    -0.00572    -0.01283    -0.01049
  Local    -395.61182  -396.83079  -405.51923    -3.00565    -6.74214    -5.51209
  n-local   197.32349   197.45709   197.44248    -0.01081    -0.07722     0.12391
  augment   486.84924   486.82247   486.63428    -0.06590    -0.14773    -0.12076
  Kinetic   664.04013   667.58433   666.15737    -0.26473    -0.51189     1.04329
  Fock        0.00000     0.00000     0.00000     0.00000     0.00000     0.00000
  -------------------------------------------------------------------------------------
  Total      -0.94747    -0.95497    -1.00837    -0.01847    -0.04144    -0.03388
  in kB      -7.72553    -7.78662    -8.22208    -0.15064    -0.33791    -0.27627
  external pressure =       -7.91 kB  Pullay stress =        0.00 kB


 VOLUME and BASIS-vectors are now :
 -----------------------------------------------------------------------------
  energy-cutoff  :      680.00
  volume of cell :      196.49
      direct lattice vectors                 reciprocal lattice vectors
     5.302919200  0.000000000 -2.364029390     0.188575379  0.038239427  0.000000000
    -1.053879568  5.197142179 -2.364029719     0.000000000  0.192413439  0.000000000
     0.000000000  0.000000000  7.129686600     0.062526975  0.076478848  0.140258620

  length of vectors
     5.805995780  5.805995650  7.129686600     0.192413429  0.192413439  0.171554998


 FORCES acting on ions
    electron-ion (+dipol)            ewald-force                    non-local-force                 convergence-correction
 -----------------------------------------------------------------------------------------------
   0.516E-05 -.130E-04 0.216E-04   -.721E-05 0.183E-04 -.323E-04   0.820E-18 -.232E-18 0.313E-17   -.791E-08 0.112E-07 -.140E-07
   0.677E-05 -.112E-04 0.208E-04   -.117E-04 0.185E-04 -.315E-04   -.282E-18 0.510E-18 0.153E-17   0.690E-08 -.101E-07 -.117E-07
   0.692E-05 -.105E-04 0.189E-04   -.132E-04 0.197E-04 -.336E-04   0.199E-17 0.226E-17 -.117E-17   0.814E-08 -.551E-08 -.101E-07
   0.443E-05 -.118E-04 0.196E-04   -.702E-05 0.196E-04 -.347E-04   0.244E-17 -.952E-18 -.466E-19   -.518E-08 0.142E-07 -.121E-07
   -.369E+01 0.136E-04 0.165E+01   0.229E+01 -.183E-04 -.102E+01   0.125E+01 0.294E-18 -.558E+00   0.404E-02 -.236E-08 -.180E-02
   0.369E+01 0.160E-04 -.165E+01   -.229E+01 -.197E-04 0.102E+01   -.125E+01 0.529E-19 0.558E+00   -.404E-02 0.627E-11 0.180E-02
   -.733E+00 0.362E+01 -.165E+01   0.456E+00 -.225E+01 0.102E+01   0.249E+00 -.123E+01 0.558E+00   0.804E-03 -.396E-02 0.180E-02
   0.733E+00 -.362E+01 0.165E+01   -.456E+00 0.225E+01 -.102E+01   -.249E+00 0.123E+01 -.558E+00   -.804E-03 0.396E-02 -.180E-02
 -----------------------------------------------------------------------------------------------
   -.113E-04 0.123E-04 -.236E-04   0.339E-14 -.178E-13 0.000E+00   -.278E-16 0.000E+00 0.111E-15   0.213E-08 0.482E-08 -.431E-07
 
 
 POSITION                                       TOTAL-FORCE (eV/Angst)
 -----------------------------------------------------------------------------------
      2.12452      2.59857     -2.36403        -0.000000      0.000000      0.000000
      3.71372      1.29929      1.20081         0.000000     -0.000000     -0.000000
      0.00000      0.00000      0.00000        -0.000000      0.000000     -0.000000
      0.53532      3.89786      1.20081        -0.000000     -0.000000      0.000000
      1.43516      1.94893      0.07994        -0.140634     -0.000000      0.062694
      3.87614      4.54750     -2.42517         0.140634     -0.000000     -0.062694
     -0.02726      3.40329      3.50370        -0.027949      0.137829     -0.062694
      3.21404      0.49457      3.64478         0.027949     -0.137829      0.062694
 -----------------------------------------------------------------------------------
    total drift:                               -0.000011      0.000012     -0.000024


--------------------------------------------------------------------------------------------------------



  FREE ENERGIE OF THE ION-ELECTRON SYSTEM (eV)
  ---------------------------------------------------
  free  energy   TOTEN  =       -33.25522816 eV

  energy  without entropy=      -33.25522816  energy(sigma->0) =      -33.25522816
 


--------------------------------------------------------------------------------------------------------


    POTLOK:  cpu time      0.4306: real time      0.4317


--------------------------------------------------------------------------------------------------------


 writing wavefunctions
     LOOP+:  cpu time     20.0493: real time     20.3442
    4ORBIT:  cpu time      0.0000: real time      0.0000



 total charge

# of ion       s       p       d       tot
------------------------------------------
    1        0.839   0.650   9.908  11.398
    2        0.839   0.650   9.908  11.398
    3        0.372   0.335   9.264   9.971
    4        0.372   0.335   9.264   9.971
    5        1.454   2.347   0.042   3.843
    6        1.454   2.347   0.042   3.843
    7        1.454   2.347   0.042   3.843
    8        1.454   2.347   0.042   3.843
--------------------------------------------------
tot          8.237  11.358  38.514  58.109



 magnetization (x)

# of ion       s       p       d       tot
------------------------------------------
    1       -0.000  -0.000   0.000  -0.000
    2       -0.000  -0.000   0.000  -0.000
    3       -0.000   0.000  -0.000  -0.000
    4       -0.000   0.000  -0.000  -0.000
    5        0.000  -0.000   0.000  -0.000
    6        0.000  -0.000   0.000  -0.000
    7        0.000  -0.000   0.000  -0.000
    8        0.000  -0.000   0.000  -0.000
--------------------------------------------------
tot         -0.000  -0.000  -0.000  -0.000
 
 BZINTS: Fermi energy:    4.125962;   72.000000 electrons
         Band energy:-0.231095E+03;  BLOECHL correction:    0.000000

 total amount of memory used by VASP MPI-rank0    41083. kBytes
=======================================================================

   base      :      30000. kBytes
   nonl-proj :       5917. kBytes
   fftplans  :        932. kBytes
   grid      :       2428. kBytes
   one-center:         31. kBytes
   wavefun   :       1775. kBytes
 
  
  
 General timing and accounting informations for this job:
 ========================================================
  
                  Total CPU time used (sec):       33.098
                            User time (sec):       29.907
                          System time (sec):        3.191
                         Elapsed time (sec):       34.125
  
                   Maximum memory used (kb):      203300.
                   Average memory used (kb):          N/A
  
                          Minor page faults:        41900
                          Major page faults:            0
                 Voluntary context switches:         2061
