<?xml version="1.0" encoding="ISO-8859-1"?>
<modeling>
 <generator>
  <i name="program" type="string">vasp </i>
  <i name="version" type="string">6.4.2  </i>
  <i name="subversion" type="string">20Jul23 (build Mar 15 2024 16:31:38) complex                          parallel </i>
  <i name="platform" type="string">LinuxIFC </i>
  <i name="date" type="string">2025 03 19 </i>
  <i name="time" type="string">14:52:51 </i>
 </generator>
 <incar>
  <i type="string" name="PREC">Accurate</i>
  <i type="string" name="ALGO">Fast</i>
  <i type="int" name="ISPIN">     2</i>
  <i type="int" name="NELM">   200</i>
  <i name="EDIFF">      0.00001000</i>
  <i type="int" name="NSW">     0</i>
  <i name="ENCUT">    680.00000000</i>
  <i name="ENAUG">   1360.00000000</i>
  <v name="MAGMOM">      0.60000000      0.60000000      0.60000000      0.60000000      0.60000000      0.60000000      0.60000000      0.60000000</v>
  <i type="logical" name="LREAL"> F  </i>
  <i type="int" name="ISMEAR">    -5</i>
  <i name="SIGMA">      0.20000000</i>
  <i type="int" name="LMAXMIX">     4</i>
  <i type="logical" name="LWAVE"> T  </i>
  <i type="logical" name="LCHARG"> T  </i>
  <i type="logical" name="LVTOT"> T  </i>
  <i type="int" name="LORBIT">    11</i>
  <i type="logical" name="LELF"> F  </i>
  <i type="logical" name="LASPH"> T  </i>
  <i type="logical" name="LAECHG"> T  </i>
  <i type="string" name="GGA">Ps</i>
  <i type="logical" name="LMIXTAU"> T  </i>
 </incar>
 <primitive_cell>
  <structure name="primitive_cell" >
   <crystal>
    <varray name="basis" >
     <v>       5.30291920       0.00000000      -2.36402939 </v>
     <v>      -1.05387957       5.19714218      -2.36402972 </v>
     <v>       0.00000000       0.00000000       7.12968660 </v>
    </varray>
    <i name="volume">    196.49434127 </i>
    <varray name="rec_basis" >
     <v>       0.18857538       0.03823943       0.00000000 </v>
     <v>       0.00000000       0.19241344       0.00000000 </v>
     <v>       0.06252698       0.07647885       0.14025862 </v>
    </varray>
   </crystal>
   <varray name="positions" >
    <v>       0.50000000       0.50000000       1.00000000 </v>
    <v>       0.75000000       0.25000000       0.50000000 </v>
    <v>       0.00000000       0.00000000       0.00000000 </v>
    <v>       0.25000000       0.75000000       0.50000000 </v>
    <v>       0.34516103       0.37500000       0.25000000 </v>
    <v>       0.90483897       0.87500000       0.25000000 </v>
    <v>       0.12500000       0.65483897       0.75000000 </v>
    <v>       0.62500000       0.09516103       0.75000000 </v>
   </varray>
  </structure>
  <varray name="primitive_index" >
   <v type="int" >        1 </v>
   <v type="int" >        2 </v>
   <v type="int" >        3 </v>
   <v type="int" >        4 </v>
   <v type="int" >        5 </v>
   <v type="int" >        6 </v>
   <v type="int" >        7 </v>
   <v type="int" >        8 </v>
  </varray>
 </primitive_cell>
 <kpoints>
  <generation param="Gamma">
   <v type="int" name="divisions">       4        4        3 </v>
   <v name="usershift">      0.00000000       0.00000000       0.00000000 </v>
   <v name="genvec1">      0.25000000      -0.00000000       0.00000000 </v>
   <v name="genvec2">      0.00000000       0.25000000       0.00000000 </v>
   <v name="genvec3">      0.00000000      -0.00000000       0.33333333 </v>
   <v name="shift">      0.00000000       0.00000000       0.00000000 </v>
  </generation>
  <varray name="kpointlist" >
   <v>       0.00000000       0.00000000       0.00000000 </v>
   <v>       0.25000000      -0.00000000       0.00000000 </v>
   <v>       0.50000000      -0.00000000       0.00000000 </v>
   <v>       0.25000000       0.25000000       0.00000000 </v>
   <v>       0.50000000       0.25000000       0.00000000 </v>
   <v>      -0.25000000       0.25000000       0.00000000 </v>
   <v>       0.50000000       0.50000000       0.00000000 </v>
   <v>       0.00000000       0.00000000       0.33333333 </v>
   <v>       0.25000000      -0.00000000       0.33333333 </v>
   <v>       0.50000000       0.00000000       0.33333333 </v>
   <v>      -0.25000000       0.00000000       0.33333333 </v>
   <v>       0.25000000       0.25000000       0.33333333 </v>
   <v>       0.50000000       0.25000000       0.33333333 </v>
   <v>      -0.25000000       0.25000000       0.33333333 </v>
   <v>       0.50000000       0.50000000       0.33333333 </v>
   <v>      -0.25000000       0.50000000       0.33333333 </v>
   <v>      -0.25000000      -0.25000000       0.33333333 </v>
  </varray>
  <varray name="weights" >
   <v>       0.02083333 </v>
   <v>       0.08333333 </v>
   <v>       0.04166667 </v>
   <v>       0.04166667 </v>
   <v>       0.08333333 </v>
   <v>       0.04166667 </v>
   <v>       0.02083333 </v>
   <v>       0.04166667 </v>
   <v>       0.08333333 </v>
   <v>       0.08333333 </v>
   <v>       0.08333333 </v>
   <v>       0.04166667 </v>
   <v>       0.08333333 </v>
   <v>       0.08333333 </v>
   <v>       0.04166667 </v>
   <v>       0.08333333 </v>
   <v>       0.04166667 </v>
  </varray>
  <varray name="tetrahedronlist"  type="int" >
   <v type="int" >        4        9       10       14       14 </v>
   <v type="int" >        4       10       14       14       16 </v>
   <v type="int" >        4       10       13       14       16 </v>
   <v type="int" >        4        9       10       11       14 </v>
   <v type="int" >        4       10       10       11       14 </v>
   <v type="int" >        4       10       10       13       14 </v>
   <v type="int" >        4       10       11       13       16 </v>
   <v type="int" >        4       11       13       16       17 </v>
   <v type="int" >        4       11       12       13       17 </v>
   <v type="int" >        4       10       10       11       13 </v>
   <v type="int" >        4        9       10       11       13 </v>
   <v type="int" >        4        9       11       12       13 </v>
   <v type="int" >        4        8       11       12       17 </v>
   <v type="int" >        4        8        9       11       12 </v>
   <v type="int" >        4        8        8        9       12 </v>
   <v type="int" >        4        8        9        9       11 </v>
   <v type="int" >        4        9        9       11       14 </v>
   <v type="int" >        2        9        9       14       14 </v>
   <v type="int" >        2        8        8        9        9 </v>
   <v type="int" >        4        5       13       14       16 </v>
   <v type="int" >        4        5       13       15       16 </v>
   <v type="int" >        4        5        7       13       15 </v>
   <v type="int" >        4        5        6       13       14 </v>
   <v type="int" >        4        5        5        6       13 </v>
   <v type="int" >        4        5        5        7       13 </v>
   <v type="int" >        4        7       12       13       15 </v>
   <v type="int" >        4        5        7       12       13 </v>
   <v type="int" >        4        4        5        7       12 </v>
   <v type="int" >        4        5        9       12       13 </v>
   <v type="int" >        4        5        9       10       13 </v>
   <v type="int" >        4        3        5        9       10 </v>
   <v type="int" >        4        4        5        9       12 </v>
   <v type="int" >        4        2        4        5        9 </v>
   <v type="int" >        4        2        3        5        9 </v>
   <v type="int" >        4        3        9       10       14 </v>
   <v type="int" >        4        3       10       14       16 </v>
   <v type="int" >        4        3        5       14       16 </v>
   <v type="int" >        4        2        3        9       14 </v>
   <v type="int" >        4        2        3        6       14 </v>
   <v type="int" >        4        3        5        6       14 </v>
   <v type="int" >        4        6       10       11       14 </v>
   <v type="int" >        4        6       10       13       14 </v>
   <v type="int" >        4        5        6       10       13 </v>
   <v type="int" >        4        2        6       10       11 </v>
   <v type="int" >        4        2        3        6       10 </v>
   <v type="int" >        4        3        5        6       10 </v>
   <v type="int" >        4        4        8        9       12 </v>
   <v type="int" >        4        2        4        8        9 </v>
   <v type="int" >        4        1        2        4        8 </v>
   <v type="int" >        4        2        8        9       11 </v>
   <v type="int" >        4        2        9       11       14 </v>
   <v type="int" >        4        2        6       11       14 </v>
   <v type="int" >        4        1        2        8       11 </v>
   <v type="int" >        4        1        2        2       11 </v>
   <v type="int" >        4        2        2        6       11 </v>
   <v type="int" >        4        4        5        7       15 </v>
   <v type="int" >        4        4        5       15       16 </v>
   <v type="int" >        4        4       15       16       17 </v>
   <v type="int" >        4        2        4        5       16 </v>
   <v type="int" >        4        2        3        5       16 </v>
   <v type="int" >        4        2        3       10       16 </v>
   <v type="int" >        4        2        4       16       17 </v>
   <v type="int" >        4        2       11       16       17 </v>
   <v type="int" >        4        2       10       11       16 </v>
   <v type="int" >        4       12       13       15       17 </v>
   <v type="int" >        4       13       15       16       17 </v>
   <v type="int" >        4       15       15       16       17 </v>
   <v type="int" >        4       13       15       16       16 </v>
   <v type="int" >        4       13       14       16       16 </v>
   <v type="int" >        2       14       14       16       16 </v>
   <v type="int" >        2       15       15       16       16 </v>
   <v type="int" >        4        1        8       11       17 </v>
   <v type="int" >        4        1        2       11       17 </v>
   <v type="int" >        4        1        2        4       17 </v>
  </varray>
  <i name="volumeweight">      0.00347222 </i>
 </kpoints>
 <parameters>
  <separator name="general" >
   <i type="string" name="SYSTEM">unknown system</i>
   <i type="logical" name="LCOMPAT"> F  </i>
  </separator>
  <separator name="electronic" >
   <i type="string" name="PREC">accura</i>
   <i name="ENMAX">    680.00000000</i>
   <i name="ENAUG">   1360.00000000</i>
   <i name="EDIFF">      0.00001000</i>
   <i type="int" name="IALGO">    68</i>
   <i type="int" name="IWAVPR">    10</i>
   <i type="int" name="NBANDS">    48</i>
   <i type="int" name="NBANDSLOW">    -1</i>
   <i type="int" name="NBANDSHIGH">    -1</i>
   <i name="NELECT">     72.00000000</i>
   <i type="int" name="TURBO">     0</i>
   <i type="int" name="IRESTART">     0</i>
   <i type="int" name="NREBOOT">     0</i>
   <i type="int" name="NMIN">     0</i>
   <i name="EREF">      0.00000000</i>
   <separator name="electronic smearing" >
    <i type="int" name="ISMEAR">    -5</i>
    <i name="SIGMA">      0.20000000</i>
    <i name="KSPACING">      0.50000000</i>
    <i type="logical" name="KGAMMA"> T  </i>
    <i type="logical" name="KBLOWUP"> F  </i>
   </separator>
   <separator name="electronic projectors" >
    <i type="logical" name="LREAL"> F  </i>
    <v name="ROPT">      0.00000000      0.00000000      0.00000000</v>
    <i type="int" name="LMAXPAW">  -100</i>
    <i type="int" name="LMAXMIX">     4</i>
    <i type="logical" name="NLSPLINE"> F  </i>
   </separator>
   <separator name="electronic startup" >
    <i type="int" name="ISTART">     0</i>
    <i type="int" name="ICHARG">     2</i>
    <i type="int" name="INIWAV">     1</i>
   </separator>
   <separator name="electronic spin" >
    <i type="int" name="ISPIN">     2</i>
    <i type="logical" name="LNONCOLLINEAR"> F  </i>
    <v name="MAGMOM">      0.60000000      0.60000000      0.60000000      0.60000000      0.60000000      0.60000000      0.60000000      0.60000000</v>
    <i name="NUPDOWN">     -1.00000000</i>
    <i type="logical" name="LSORBIT"> F  </i>
    <v name="SAXIS">      0.00000000      0.00000000      1.00000000</v>
    <i type="logical" name="LSPIRAL"> F  </i>
    <v name="QSPIRAL">      0.00000000      0.00000000      0.00000000</v>
    <i type="logical" name="LZEROZ"> F  </i>
   </separator>
   <separator name="electronic exchange-correlation" >
    <i type="logical" name="LASPH"> T  </i>
    <i type="logical" name="LMETAGGA"> F  </i>
   </separator>
   <separator name="electronic convergence" >
    <i type="int" name="NELM">   200</i>
    <i type="int" name="NELMDL">    -5</i>
    <i type="int" name="NELMIN">     2</i>
    <i name="ENINI">    680.00000000</i>
    <separator name="electronic convergence detail" >
     <i type="logical" name="LDIAG"> T  </i>
     <i type="logical" name="LSUBROT"> F  </i>
     <i name="WEIMIN">      0.00000000</i>
     <i name="EBREAK">      0.00000005</i>
     <i name="DEPER">      0.30000000</i>
     <i type="int" name="NRMM">     4</i>
     <i name="TIME">      0.40000000</i>
    </separator>
   </separator>
   <separator name="electronic mixer" >
    <i name="AMIX">      0.40000000</i>
    <i name="BMIX">      1.00000000</i>
    <i name="AMIN">      0.10000000</i>
    <i name="AMIX_MAG">      1.60000000</i>
    <i name="BMIX_MAG">      1.00000000</i>
    <separator name="electronic mixer details" >
     <i type="int" name="IMIX">     4</i>
     <i type="logical" name="MIXFIRST"> F  </i>
     <i type="int" name="MAXMIX">   -45</i>
     <i name="WC">    100.00000000</i>
     <i type="int" name="INIMIX">     1</i>
     <i type="int" name="MIXPRE">     1</i>
     <i type="int" name="MREMOVE">     5</i>
    </separator>
   </separator>
   <separator name="electronic dipolcorrection" >
    <i type="logical" name="LDIPOL"> F  </i>
    <i type="logical" name="LMONO"> F  </i>
    <i type="int" name="IDIPOL">     0</i>
    <i name="EPSILON">      1.00000000</i>
    <v name="DIPOL">   -100.00000000   -100.00000000   -100.00000000</v>
    <i name="EFIELD">      0.00000000</i>
   </separator>
  </separator>
  <separator name="grids" >
   <i type="int" name="NGX">    50</i>
   <i type="int" name="NGY">    50</i>
   <i type="int" name="NGZ">    64</i>
   <i type="int" name="NGXF">   100</i>
   <i type="int" name="NGYF">   100</i>
   <i type="int" name="NGZF">   128</i>
   <i type="logical" name="ADDGRID"> F  </i>
  </separator>
  <separator name="ionic" >
   <i type="int" name="NSW">     0</i>
   <i type="int" name="IBRION">    -1</i>
   <i type="int" name="MDALGO">     0</i>
   <i type="int" name="ISIF">     2</i>
   <i name="PSTRESS">      0.00000000</i>
   <i name="EDIFFG">      0.00010000</i>
   <i type="int" name="NFREE">     0</i>
   <i name="POTIM">      0.50000000</i>
   <i name="SMASS">     -3.00000000</i>
   <i name="SCALEE">      1.00000000</i>
  </separator>
  <separator name="ionic md" >
   <i name="TEBEG">      0.00010000</i>
   <i name="TEEND">      0.00010000</i>
   <i type="int" name="NBLOCK">     1</i>
   <i type="int" name="KBLOCK">     1</i>
   <i type="int" name="NPACO">   256</i>
   <i name="APACO">     10.00000000</i>
  </separator>
  <separator name="symmetry" >
   <i type="int" name="ISYM">     2</i>
   <i name="SYMPREC">      0.00001000</i>
  </separator>
  <separator name="dos" >
   <i type="int" name="LORBIT">    11</i>
   <v name="RWIGS">     -1.00000000     -1.00000000     -1.00000000</v>
   <i type="int" name="NEDOS">   301</i>
   <i name="EMIN">     10.00000000</i>
   <i name="EMAX">    -10.00000000</i>
   <i name="EFERMI">      0.00000000</i>
  </separator>
  <separator name="writing" >
   <i type="int" name="NWRITE">     2</i>
   <i type="logical" name="LWAVE"> T  </i>
   <i type="logical" name="LDOWNSAMPLE"> F  </i>
   <i type="logical" name="LCHARG"> T  </i>
   <i type="logical" name="LPARD"> F  </i>
   <i type="logical" name="LVTOT"> T  </i>
   <i type="logical" name="LVHAR"> F  </i>
   <i type="logical" name="LELF"> F  </i>
   <i type="logical" name="LOPTICS"> F  </i>
   <v name="STM">      0.00000000      0.00000000      0.00000000      0.00000000      0.00000000      0.00000000      0.00000000</v>
  </separator>
  <separator name="performance" >
   <i type="int" name="NPAR">    12</i>
   <i type="int" name="NSIM">     4</i>
   <i type="int" name="NBLK">    -1</i>
   <i type="logical" name="LPLANE"> T  </i>
   <i type="logical" name="LSCALAPACK"> T  </i>
   <i type="logical" name="LSCAAWARE"> F  </i>
   <i type="logical" name="LSCALU"> F  </i>
   <i type="logical" name="LASYNC"> F  </i>
   <i type="logical" name="LORBITALREAL"> F  </i>
  </separator>
  <separator name="miscellaneous" >
   <i type="int" name="IDIOT">     3</i>
   <i type="int" name="PHON_NSTRUCT">    -1</i>
   <i type="logical" name="LMUSIC"> F  </i>
   <v name="POMASS">    114.82000000     63.54600000     78.96000000</v>
   <v name="DARWINR">      0.00000000      0.00000000      0.00000000</v>
   <v name="DARWINV">      1.00000000      1.00000000      1.00000000</v>
   <i type="logical" name="LCORR"> T  </i>
  </separator>
  <i type="logical" name="GGA_COMPAT"> T  </i>
  <i type="logical" name="LBERRY"> F  </i>
  <i type="int" name="ICORELEVEL">     0</i>
  <i type="logical" name="LDAU"> F  </i>
  <i type="int" name="I_CONSTRAINED_M">     0</i>
  <separator name="electronic exchange-correlation" >
   <i type="string" name="GGA">PS</i>
   <i type="int" name="VOSKOWN">     0</i>
   <i type="logical" name="LHFCALC"> F  </i>
   <i type="string" name="PRECFOCK"></i>
   <i type="logical" name="LSYMGRAD"> F  </i>
   <i type="logical" name="LHFONE"> F  </i>
   <i type="logical" name="LRHFCALC"> F  </i>
   <i type="logical" name="LTHOMAS"> F  </i>
   <i type="logical" name="LMODELHF"> F  </i>
   <i type="logical" name="LFOCKACE"> F  </i>
   <i name="ENCUT4O">     -1.00000000</i>
   <i type="int" name="EXXOEP">     0</i>
   <i type="int" name="FOURORBIT">     0</i>
   <i name="AEXX">      0.00000000</i>
   <i name="HFALPHA">      0.00000000</i>
   <i name="MCALPHA">      0.00000000</i>
   <i name="ALDAX">      1.00000000</i>
   <i name="AGGAX">      1.00000000</i>
   <i name="ALDAC">      1.00000000</i>
   <i name="AGGAC">      1.00000000</i>
   <i type="int" name="NKREDX">     1</i>
   <i type="int" name="NKREDY">     1</i>
   <i type="int" name="NKREDZ">     1</i>
   <i type="logical" name="SHIFTRED"> F  </i>
   <i type="logical" name="ODDONLY"> F  </i>
   <i type="logical" name="EVENONLY"> F  </i>
   <i type="int" name="LMAXFOCK">     0</i>
   <i type="int" name="NMAXFOCKAE">     0</i>
   <i type="logical" name="LFOCKAEDFT"> F  </i>
   <i name="HFSCREEN">      0.00000000</i>
   <i name="HFSCREENC">      0.00000000</i>
   <i type="int" name="NBANDSGWLOW">     0</i>
  </separator>
  <separator name="vdW DFT" >
   <i type="logical" name="LUSE_VDW"> F  </i>
   <i type="int" name="IVDW_NL">     1</i>
   <i type="logical" name="LSPIN_VDW"> F  </i>
   <i name="Zab_VDW">     -0.84910000</i>
   <i name="PARAM1">      0.12340000</i>
   <i name="PARAM2">      1.00000000</i>
   <i name="PARAM3">      0.00000000</i>
  </separator>
  <separator name="model GW" >
   <i type="int" name="MODEL_GW">     0</i>
   <i name="MODEL_EPS0">     14.73707560</i>
   <i name="MODEL_ALPHA">      1.00000000</i>
  </separator>
  <separator name="linear response parameters" >
   <i type="logical" name="LEPSILON"> F  </i>
   <i type="logical" name="LRPA"> F  </i>
   <i type="logical" name="LNABLA"> F  </i>
   <i type="logical" name="LVEL"> F  </i>
   <i name="CSHIFT">      0.10000000</i>
   <i name="OMEGAMAX">     -1.00000000</i>
   <i name="DEG_THRESHOLD">      0.00200000</i>
   <i name="RTIME">     -0.10000000</i>
   <i name="WPLASMAI">      0.00000000</i>
   <v name="DFIELD">      0.00000000      0.00000000      0.00000000</v>
   <v name="WPLASMA">      0.00000000      0.00000000      0.00000000      0.00000000      0.00000000      0.00000000      0.00000000      0.00000000      0.00000000</v>
  </separator>
  <separator name="orbital magnetization" >
   <i type="logical" name="NUCIND"> F  </i>
   <v name="MAGPOS">      0.00000000      0.00000000      0.00000000</v>
   <i type="logical" name="LNICSALL"> T  </i>
   <i type="logical" name="ORBITALMAG"> F  </i>
   <i type="logical" name="LMAGBLOCH"> F  </i>
   <i type="logical" name="LCHIMAG"> F  </i>
   <i type="logical" name="LGAUGE"> T  </i>
   <i type="int" name="MAGATOM">     0</i>
   <v name="MAGDIPOL">      0.00000000      0.00000000      0.00000000</v>
   <v name="AVECCONST">      0.00000000      0.00000000      0.00000000</v>
  </separator>
  <separator name="response functions" >
   <i type="logical" name="LALL_IN_ONE"> F  </i>
   <i type="int" name="IALL_IN_ONE">    -1</i>
   <i type="int" name="NBANDS_WAVE">    -1</i>
   <i type="logical" name="LFINITE_TEMPERATURE"> F  </i>
   <i type="logical" name="LADDER"> F  </i>
   <i type="logical" name="LRPAFORCE"> F  </i>
   <i type="logical" name="LFXC"> F  </i>
   <i type="logical" name="LHARTREE"> T  </i>
   <i type="int" name="IBSE">     0</i>
   <v type="int" name="KPOINT">    -1     0     0     0</v>
   <i type="logical" name="LTCTC"> F  </i>
   <i type="logical" name="LTCTE"> F  </i>
   <i type="logical" name="LTETE"> F  </i>
   <i type="logical" name="LTRIPLET"> F  </i>
   <i type="logical" name="LFXCEPS"> F  </i>
   <i type="logical" name="LFXHEG"> F  </i>
   <i type="int" name="NATURALO">     2</i>
   <i type="logical" name="LHOLEGF"> F  </i>
   <i type="logical" name="L2ORDER"> F  </i>
   <i type="logical" name="LDMP1"> F  </i>
   <i type="logical" name="LMP2LT"> F  </i>
   <i type="logical" name="LSMP2LT"> F  </i>
   <i type="logical" name="LGWLF"> F  </i>
   <i name="ENCUTGW">     -1.60000002</i>
   <i name="ENCUTGWSOFT">     -1.60000002</i>
   <i name="ENCUTLF">     -1.00000000</i>
   <i type="logical" name="LESF_SPLINES"> F  </i>
   <i type="int" name="LMAXMP2">    -1</i>
   <i name="SCISSOR">      0.00000000</i>
   <i type="int" name="NOMEGA">     0</i>
   <i type="int" name="NOMEGAR">     0</i>
   <i type="int" name="NBANDSGW">    -1</i>
   <i type="int" name="NBANDSO">    -1</i>
   <i type="int" name="NBANDSV">    -1</i>
   <i type="int" name="NELMGW">     1</i>
   <i type="int" name="NELMHF">     1</i>
   <i type="int" name="DIM">     3</i>
   <i type="int" name="IESPILON">     4</i>
   <i type="int" name="ANTIRES">     0</i>
   <i name="OMEGAMAX">    -30.00000000</i>
   <i name="OMEGAMIN">    -30.00000000</i>
   <i name="OMEGATL">   -200.00000000</i>
   <i type="int" name="OMEGAGRID">     0</i>
   <i name="CSHIFT">     -0.10000000</i>
   <i type="logical" name="LSELFENERGY"> F  </i>
   <i type="logical" name="LSPECTRAL"> F  </i>
   <i type="logical" name="LSPECTRALGW"> F  </i>
   <i type="logical" name="LSINGLES"> F  </i>
   <i type="logical" name="LFERMIGW"> F  </i>
   <i type="logical" name="ODDONLYGW"> F  </i>
   <i type="logical" name="EVENONLYGW"> F  </i>
   <i type="int" name="NKREDLFX">     1</i>
   <i type="int" name="NKREDLFY">     1</i>
   <i type="int" name="NKREDLFZ">     1</i>
   <i type="int" name="MAXMEM">  2800</i>
   <i type="int" name="TELESCOPE">     0</i>
   <i type="int" name="NTAUPAR">    -1</i>
   <i type="int" name="NOMEGAPAR">    -1</i>
   <i name="DAMP_NEWTON">      0.80000001</i>
   <i name="LAMBDA">      1.00000000</i>
  </separator>
  <separator name="External order field" >
   <i name="OFIELD_KAPPA">      0.00000000</i>
   <v name="OFIELD_K">      0.00000000      0.00000000      0.00000000</v>
   <i name="OFIELD_Q6_NEAR">      0.00000000</i>
   <i name="OFIELD_Q6_FAR">      0.00000000</i>
   <i name="OFIELD_A">      0.00000000</i>
  </separator>
  <separator name="optional k-points parameters" >
   <i type="int" name="KPOINTS_OPT_MODE">     1</i>
   <i type="logical" name="LKPOINTS_OPT"> F  </i>
  </separator>
 </parameters>
 <atominfo>
  <atoms>       8 </atoms>
  <types>       3 </types>
  <array name="atoms" >
   <dimension dim="1">ion</dimension>
   <field type="string">element</field>
   <field type="int">atomtype</field>
   <set>
    <rc><c>In</c><c>   1</c></rc>
    <rc><c>In</c><c>   1</c></rc>
    <rc><c>Cu</c><c>   2</c></rc>
    <rc><c>Cu</c><c>   2</c></rc>
    <rc><c>Se</c><c>   3</c></rc>
    <rc><c>Se</c><c>   3</c></rc>
    <rc><c>Se</c><c>   3</c></rc>
    <rc><c>Se</c><c>   3</c></rc>
   </set>
  </array>
  <array name="atomtypes" >
   <dimension dim="1">type</dimension>
   <field type="int">atomspertype</field>
   <field type="string">element</field>
   <field>mass</field>
   <field>valence</field>
   <field type="string">pseudopotential</field>
   <set>
    <rc><c>   2</c><c>In</c><c>    114.82000000</c><c>     13.00000000</c><c>  PAW_PBE In_d 06Sep2000                </c></rc>
    <rc><c>   2</c><c>Cu</c><c>     63.54600000</c><c>     11.00000000</c><c>  PAW_PBE Cu 22Jun2005                  </c></rc>
    <rc><c>   4</c><c>Se</c><c>     78.96000000</c><c>      6.00000000</c><c>  PAW_PBE Se 06Sep2000                  </c></rc>
   </set>
  </array>
 </atominfo>
 <structure name="initialpos" >
  <crystal>
   <varray name="basis" >
    <v>       5.30291920       0.00000000      -2.36402939 </v>
    <v>      -1.05387957       5.19714218      -2.36402972 </v>
    <v>       0.00000000       0.00000000       7.12968660 </v>
   </varray>
   <i name="volume">    196.49434127 </i>
   <varray name="rec_basis" >
    <v>       0.18857538       0.03823943       0.00000000 </v>
    <v>       0.00000000       0.19241344       0.00000000 </v>
    <v>       0.06252698       0.07647885       0.14025862 </v>
   </varray>
  </crystal>
  <varray name="positions" >
   <v>       0.50000000       0.50000000       0.00000000 </v>
   <v>       0.75000000       0.25000000       0.50000000 </v>
   <v>       0.00000000       0.00000000       0.00000000 </v>
   <v>       0.25000000       0.75000000       0.50000000 </v>
   <v>       0.34516103       0.37500000       0.25000000 </v>
   <v>       0.90483897       0.87500000       0.25000000 </v>
   <v>       0.12500000       0.65483897       0.75000000 </v>
   <v>       0.62500000       0.09516103       0.75000000 </v>
  </varray>
 </structure>
 <calculation>
  <scstep>
   <time name="dav">    0.78    0.79</time>
   <time name="total">    1.23    1.25</time>
   <energy>
    <i name="alphaZ">    185.64929911 </i>
    <i name="ewald">  -4678.36476469 </i>
    <i name="hartreedc">  -2345.03363423 </i>
    <i name="XCdc">    177.19005216 </i>
    <i name="pawpsdc">   6054.27235450 </i>
    <i name="pawaedc">  -6193.67878849 </i>
    <i name="eentropy">      0.00000000 </i>
    <i name="bandstr">    547.36191267 </i>
    <i name="atom">   6960.97766694 </i>
    <i name="e_fr_energy">    708.37409798 </i>
    <i name="e_wo_entrp">    708.37409798 </i>
    <i name="e_0_energy">    708.37409798 </i>
   </energy>
  </scstep>
  <scstep>
   <time name="dav">    0.70    0.70</time>
   <time name="total">    0.71    0.71</time>
   <energy>
    <i name="e_fr_energy">     60.33222110 </i>
    <i name="e_wo_entrp">     60.33222110 </i>
    <i name="e_0_energy">     60.33222110 </i>
   </energy>
  </scstep>
  <scstep>
   <time name="dav">    0.84    0.86</time>
   <time name="total">    0.85    0.87</time>
   <energy>
    <i name="e_fr_energy">    -29.61575753 </i>
    <i name="e_wo_entrp">    -29.61575753 </i>
    <i name="e_0_energy">    -29.61575753 </i>
   </energy>
  </scstep>
  <scstep>
   <time name="dav">    0.78    0.80</time>
   <time name="total">    0.79    0.81</time>
   <energy>
    <i name="e_fr_energy">    -34.56102520 </i>
    <i name="e_wo_entrp">    -34.56102520 </i>
    <i name="e_0_energy">    -34.56102520 </i>
   </energy>
  </scstep>
  <scstep>
   <time name="dav">    0.86    0.88</time>
   <time name="total">    0.93    0.94</time>
   <energy>
    <i name="e_fr_energy">    -34.79850910 </i>
    <i name="e_wo_entrp">    -34.79850910 </i>
    <i name="e_0_energy">    -34.79850910 </i>
   </energy>
  </scstep>
  <scstep>
   <time name="diag">    0.23    0.23</time>
   <time name="diis">    0.27    0.27</time>
   <time name="orth">    0.03    0.03</time>
   <time name="total">    1.01    1.02</time>
   <energy>
    <i name="e_fr_energy">    -35.26056337 </i>
    <i name="e_wo_entrp">    -35.26056337 </i>
    <i name="e_0_energy">    -35.26056337 </i>
   </energy>
  </scstep>
  <scstep>
   <time name="diag">    0.21    0.21</time>
   <time name="diis">    0.26    0.26</time>
   <time name="orth">    0.03    0.03</time>
   <time name="total">    0.98    0.99</time>
   <energy>
    <i name="e_fr_energy">    -33.24248374 </i>
    <i name="e_wo_entrp">    -33.24248374 </i>
    <i name="e_0_energy">    -33.24248374 </i>
   </energy>
  </scstep>
  <scstep>
   <time name="diag">    0.21    0.21</time>
   <time name="diis">    0.30    0.30</time>
   <time name="orth">    0.03    0.03</time>
   <time name="total">    1.00    1.02</time>
   <energy>
    <i name="e_fr_energy">    -33.25373137 </i>
    <i name="e_wo_entrp">    -33.25373137 </i>
    <i name="e_0_energy">    -33.25373137 </i>
   </energy>
  </scstep>
  <scstep>
   <time name="diag">    0.20    0.20</time>
   <time name="diis">    0.30    0.30</time>
   <time name="orth">    0.03    0.03</time>
   <time name="total">    1.01    1.02</time>
   <energy>
    <i name="e_fr_energy">    -33.25058598 </i>
    <i name="e_wo_entrp">    -33.25058598 </i>
    <i name="e_0_energy">    -33.25058598 </i>
   </energy>
  </scstep>
  <scstep>
   <time name="diag">    0.20    0.20</time>
   <time name="diis">    0.32    0.32</time>
   <time name="orth">    0.03    0.03</time>
   <time name="total">    1.03    1.04</time>
   <energy>
    <i name="e_fr_energy">    -33.25381380 </i>
    <i name="e_wo_entrp">    -33.25381380 </i>
    <i name="e_0_energy">    -33.25381380 </i>
   </energy>
  </scstep>
  <scstep>
   <time name="diag">    0.23    0.23</time>
   <time name="diis">    0.40    0.40</time>
   <time name="orth">    0.03    0.03</time>
   <time name="total">    1.14    1.16</time>
   <energy>
    <i name="e_fr_energy">    -33.25489260 </i>
    <i name="e_wo_entrp">    -33.25489260 </i>
    <i name="e_0_energy">    -33.25489260 </i>
   </energy>
  </scstep>
  <scstep>
   <time name="diag">    0.22    0.22</time>
   <time name="diis">    0.42    0.42</time>
   <time name="orth">    0.03    0.03</time>
   <time name="total">    1.15    1.16</time>
   <energy>
    <i name="e_fr_energy">    -33.25510619 </i>
    <i name="e_wo_entrp">    -33.25510619 </i>
    <i name="e_0_energy">    -33.25510619 </i>
   </energy>
  </scstep>
  <scstep>
   <time name="diag">    0.23    0.23</time>
   <time name="diis">    0.38    0.38</time>
   <time name="orth">    0.03    0.03</time>
   <time name="total">    1.12    1.14</time>
   <energy>
    <i name="e_fr_energy">    -33.25519875 </i>
    <i name="e_wo_entrp">    -33.25519875 </i>
    <i name="e_0_energy">    -33.25519875 </i>
   </energy>
  </scstep>
  <scstep>
   <time name="diag">    0.23    0.23</time>
   <time name="diis">    0.38    0.38</time>
   <time name="orth">    0.03    0.03</time>
   <time name="total">    1.12    1.13</time>
   <energy>
    <i name="e_fr_energy">    -33.25521607 </i>
    <i name="e_wo_entrp">    -33.25521607 </i>
    <i name="e_0_energy">    -33.25521607 </i>
   </energy>
  </scstep>
  <scstep>
   <time name="diag">    0.22    0.22</time>
   <time name="diis">    0.33    0.33</time>
   <time name="orth">    0.03    0.03</time>
   <time name="total">    1.07    1.09</time>
   <energy>
    <i name="e_fr_energy">    -33.25522564 </i>
    <i name="e_wo_entrp">    -33.25522564 </i>
    <i name="e_0_energy">    -33.25522564 </i>
   </energy>
  </scstep>
  <scstep>
   <time name="diag">    0.20    0.20</time>
   <time name="diis">    0.23    0.23</time>
   <time name="orth">    0.03    0.03</time>
   <time name="total">    0.88    0.90</time>
   <energy>
    <i name="alphaZ">    185.64929911 </i>
    <i name="ewald">  -4678.36476469 </i>
    <i name="hartreedc">  -2303.75289234 </i>
    <i name="XCdc">    176.06797091 </i>
    <i name="pawpsdc">   8089.33032522 </i>
    <i name="pawaedc">  -8232.06745255 </i>
    <i name="eentropy">      0.00000000 </i>
    <i name="bandstr">   -231.09538076 </i>
    <i name="atom">   6960.97766694 </i>
    <i name="e_fr_energy">    -33.25522816 </i>
    <i name="e_wo_entrp">    -33.25522816 </i>
    <i name="e_0_energy">    -33.25522816 </i>
   </energy>
  </scstep>
  <structure>
   <crystal>
    <varray name="basis" >
     <v>       5.30291920       0.00000000      -2.36402939 </v>
     <v>      -1.05387957       5.19714218      -2.36402972 </v>
     <v>       0.00000000       0.00000000       7.12968660 </v>
    </varray>
    <i name="volume">    196.49434127 </i>
    <varray name="rec_basis" >
     <v>       0.18857538       0.03823943       0.00000000 </v>
     <v>       0.00000000       0.19241344       0.00000000 </v>
     <v>       0.06252698       0.07647885       0.14025862 </v>
    </varray>
   </crystal>
   <varray name="positions" >
    <v>       0.50000000       0.50000000       0.00000000 </v>
    <v>       0.75000000       0.25000000       0.50000000 </v>
    <v>       0.00000000       0.00000000       0.00000000 </v>
    <v>       0.25000000       0.75000000       0.50000000 </v>
    <v>       0.34516103       0.37500000       0.25000000 </v>
    <v>       0.90483897       0.87500000       0.25000000 </v>
    <v>       0.12500000       0.65483897       0.75000000 </v>
    <v>       0.62500000       0.09516103       0.75000000 </v>
   </varray>
  </structure>
  <varray name="forces" >
   <v>      -0.00000000       0.00000000       0.00000000 </v>
   <v>       0.00000000      -0.00000000      -0.00000000 </v>
   <v>      -0.00000000       0.00000000      -0.00000000 </v>
   <v>      -0.00000000      -0.00000000       0.00000000 </v>
   <v>      -0.14063392      -0.00000000       0.06269428 </v>
   <v>       0.14063392      -0.00000000      -0.06269428 </v>
   <v>      -0.02794899       0.13782870      -0.06269429 </v>
   <v>       0.02794899      -0.13782870       0.06269429 </v>
  </varray>
  <varray name="stress" >
   <v>      -7.72552793      -0.15064086      -0.27626891 </v>
   <v>      -0.15064086      -7.78662113      -0.33791325 </v>
   <v>      -0.27626891      -0.33791325      -8.22208308 </v>
  </varray>
  <energy>
   <i name="e_fr_energy">    -33.25522816 </i>
   <i name="e_wo_entrp">    -33.25522816 </i>
   <i name="e_0_energy">    -33.25522816 </i>
  </energy>
  <time name="totalsc">   20.05   20.34</time>
  <eigenvalues>
   <array>
    <dimension dim="1">band</dimension>
    <dimension dim="2">kpoint</dimension>
    <dimension dim="3">spin</dimension>
    <field>eigene</field>
    <field>occ</field>
    <set>
     <set comment="spin 1">
      <set comment="kpoint 1">
       <r>  -10.9708    1.0000 </r>
       <r>  -10.9535    1.0000 </r>
       <r>  -10.9535    1.0000 </r>
       <r>  -10.7103    1.0000 </r>
       <r>  -10.6901    1.0000 </r>
       <r>  -10.6901    1.0000 </r>
       <r>  -10.6283    1.0000 </r>
       <r>  -10.6273    1.0000 </r>
       <r>  -10.6103    1.0000 </r>
       <r>  -10.6033    1.0000 </r>
       <r>   -9.9303    1.0000 </r>
       <r>   -8.5344    1.0000 </r>
       <r>   -8.5199    1.0000 </r>
       <r>   -8.5199    1.0000 </r>
       <r>   -2.4252    1.0000 </r>
       <r>   -1.7380    1.0000 </r>
       <r>   -0.8454    1.0000 </r>
       <r>   -0.1217    1.0000 </r>
       <r>   -0.0438    1.0000 </r>
       <r>    0.4212    1.0000 </r>
       <r>    0.4212    1.0000 </r>
       <r>    0.6963    1.0000 </r>
       <r>    0.6963    1.0000 </r>
       <r>    0.9683    1.0000 </r>
       <r>    0.9683    1.0000 </r>
       <r>    1.0397    1.0000 </r>
       <r>    2.0281    1.0000 </r>
       <r>    2.0856    1.0000 </r>
       <r>    2.1500    1.0000 </r>
       <r>    2.4441    1.0000 </r>
       <r>    2.4593    1.0000 </r>
       <r>    2.4593    1.0000 </r>
       <r>    2.5692    1.0000 </r>
       <r>    3.7916    1.0000 </r>
       <r>    4.1256    1.0000 </r>
       <r>    4.1256    1.0000 </r>
       <r>    4.1350    0.0000 </r>
       <r>    5.9098    0.0000 </r>
       <r>    6.0405    0.0000 </r>
       <r>    7.9121    0.0000 </r>
       <r>    7.9121    0.0000 </r>
       <r>    8.5452    0.0000 </r>
       <r>    8.8940    0.0000 </r>
       <r>    8.8940    0.0000 </r>
       <r>    8.8993    0.0000 </r>
       <r>    9.2313    0.0000 </r>
       <r>   10.0102    0.0000 </r>
       <r>   10.0128    0.0000 </r>
      </set>
      <set comment="kpoint 2">
       <r>  -10.9750    1.0000 </r>
       <r>  -10.9675    1.0000 </r>
       <r>  -10.9411    1.0000 </r>
       <r>  -10.7415    1.0000 </r>
       <r>  -10.7052    1.0000 </r>
       <r>  -10.6844    1.0000 </r>
       <r>  -10.6305    1.0000 </r>
       <r>  -10.6202    1.0000 </r>
       <r>  -10.6127    1.0000 </r>
       <r>  -10.6016    1.0000 </r>
       <r>   -9.6999    1.0000 </r>
       <r>   -8.6738    1.0000 </r>
       <r>   -8.6079    1.0000 </r>
       <r>   -8.5493    1.0000 </r>
       <r>   -2.2700    1.0000 </r>
       <r>   -1.7836    1.0000 </r>
       <r>   -0.8373    1.0000 </r>
       <r>   -0.2603    1.0000 </r>
       <r>    0.0601    1.0000 </r>
       <r>    0.3623    1.0000 </r>
       <r>    0.4457    1.0000 </r>
       <r>    0.6073    1.0000 </r>
       <r>    0.6692    1.0000 </r>
       <r>    0.8734    1.0000 </r>
       <r>    0.9393    1.0000 </r>
       <r>    1.1890    1.0000 </r>
       <r>    2.1454    1.0000 </r>
       <r>    2.2135    1.0000 </r>
       <r>    2.2570    1.0000 </r>
       <r>    2.3052    1.0000 </r>
       <r>    2.4182    1.0000 </r>
       <r>    2.6439    1.0000 </r>
       <r>    2.6693    1.0000 </r>
       <r>    3.0282    1.0000 </r>
       <r>    3.6584    1.0000 </r>
       <r>    3.9087    1.0000 </r>
       <r>    5.3254    0.0000 </r>
       <r>    6.3251    0.0000 </r>
       <r>    6.7731    0.0000 </r>
       <r>    7.1981    0.0000 </r>
       <r>    7.5164    0.0000 </r>
       <r>    8.3824    0.0000 </r>
       <r>    8.7801    0.0000 </r>
       <r>    8.8994    0.0000 </r>
       <r>    9.0385    0.0000 </r>
       <r>    9.4897    0.0000 </r>
       <r>   10.1076    0.0000 </r>
       <r>   10.7736    0.0000 </r>
      </set>
      <set comment="kpoint 3">
       <r>  -10.9891    1.0000 </r>
       <r>  -10.9734    1.0000 </r>
       <r>  -10.9199    1.0000 </r>
       <r>  -10.7804    1.0000 </r>
       <r>  -10.7085    1.0000 </r>
       <r>  -10.6804    1.0000 </r>
       <r>  -10.6265    1.0000 </r>
       <r>  -10.6248    1.0000 </r>
       <r>  -10.6060    1.0000 </r>
       <r>  -10.6041    1.0000 </r>
       <r>   -9.2737    1.0000 </r>
       <r>   -9.0557    1.0000 </r>
       <r>   -8.6674    1.0000 </r>
       <r>   -8.5744    1.0000 </r>
       <r>   -2.0786    1.0000 </r>
       <r>   -1.7555    1.0000 </r>
       <r>   -0.7301    1.0000 </r>
       <r>   -0.3359    1.0000 </r>
       <r>   -0.2048    1.0000 </r>
       <r>    0.0743    1.0000 </r>
       <r>    0.4922    1.0000 </r>
       <r>    0.7376    1.0000 </r>
       <r>    0.7423    1.0000 </r>
       <r>    0.8475    1.0000 </r>
       <r>    0.9138    1.0000 </r>
       <r>    1.2319    1.0000 </r>
       <r>    2.1995    1.0000 </r>
       <r>    2.2079    1.0000 </r>
       <r>    2.2445    1.0000 </r>
       <r>    2.3840    1.0000 </r>
       <r>    2.5089    1.0000 </r>
       <r>    2.7385    1.0000 </r>
       <r>    2.8909    1.0000 </r>
       <r>    2.9423    1.0000 </r>
       <r>    3.1088    1.0000 </r>
       <r>    3.5891    1.0000 </r>
       <r>    6.0726    0.0000 </r>
       <r>    6.3981    0.0000 </r>
       <r>    7.1556    0.0000 </r>
       <r>    7.7838    0.0000 </r>
       <r>    8.0494    0.0000 </r>
       <r>    8.2203    0.0000 </r>
       <r>    8.6049    0.0000 </r>
       <r>    8.8167    0.0000 </r>
       <r>    9.2950    0.0000 </r>
       <r>    9.4034    0.0000 </r>
       <r>   10.1769    0.0000 </r>
       <r>   10.4649    0.0000 </r>
      </set>
      <set comment="kpoint 4">
       <r>  -10.9833    1.0000 </r>
       <r>  -10.9769    1.0000 </r>
       <r>  -10.9167    1.0000 </r>
       <r>  -10.7856    1.0000 </r>
       <r>  -10.7001    1.0000 </r>
       <r>  -10.6889    1.0000 </r>
       <r>  -10.6285    1.0000 </r>
       <r>  -10.6183    1.0000 </r>
       <r>  -10.6114    1.0000 </r>
       <r>  -10.6013    1.0000 </r>
       <r>   -9.4371    1.0000 </r>
       <r>   -8.7713    1.0000 </r>
       <r>   -8.6954    1.0000 </r>
       <r>   -8.6423    1.0000 </r>
       <r>   -2.2236    1.0000 </r>
       <r>   -1.9367    1.0000 </r>
       <r>   -0.9712    1.0000 </r>
       <r>   -0.2923    1.0000 </r>
       <r>    0.1669    1.0000 </r>
       <r>    0.2577    1.0000 </r>
       <r>    0.3653    1.0000 </r>
       <r>    0.7392    1.0000 </r>
       <r>    0.8357    1.0000 </r>
       <r>    0.9141    1.0000 </r>
       <r>    1.1386    1.0000 </r>
       <r>    1.1637    1.0000 </r>
       <r>    2.1388    1.0000 </r>
       <r>    2.2144    1.0000 </r>
       <r>    2.3275    1.0000 </r>
       <r>    2.3562    1.0000 </r>
       <r>    2.5437    1.0000 </r>
       <r>    2.6575    1.0000 </r>
       <r>    2.7625    1.0000 </r>
       <r>    3.0457    1.0000 </r>
       <r>    3.7122    1.0000 </r>
       <r>    3.7500    1.0000 </r>
       <r>    5.1686    0.0000 </r>
       <r>    5.9689    0.0000 </r>
       <r>    6.7717    0.0000 </r>
       <r>    7.0295    0.0000 </r>
       <r>    7.6747    0.0000 </r>
       <r>    8.5421    0.0000 </r>
       <r>    9.1868    0.0000 </r>
       <r>    9.1952    0.0000 </r>
       <r>    9.3761    0.0000 </r>
       <r>    9.4815    0.0000 </r>
       <r>   10.3763    0.0000 </r>
       <r>   10.4803    0.0000 </r>
      </set>
      <set comment="kpoint 5">
       <r>  -10.9940    1.0000 </r>
       <r>  -10.9810    1.0000 </r>
       <r>  -10.8979    1.0000 </r>
       <r>  -10.8031    1.0000 </r>
       <r>  -10.7057    1.0000 </r>
       <r>  -10.6913    1.0000 </r>
       <r>  -10.6220    1.0000 </r>
       <r>  -10.6193    1.0000 </r>
       <r>  -10.6076    1.0000 </r>
       <r>  -10.6063    1.0000 </r>
       <r>   -9.1991    1.0000 </r>
       <r>   -8.9489    1.0000 </r>
       <r>   -8.7703    1.0000 </r>
       <r>   -8.6115    1.0000 </r>
       <r>   -2.2263    1.0000 </r>
       <r>   -2.0292    1.0000 </r>
       <r>   -1.0296    1.0000 </r>
       <r>   -0.6422    1.0000 </r>
       <r>   -0.0502    1.0000 </r>
       <r>    0.4539    1.0000 </r>
       <r>    0.6707    1.0000 </r>
       <r>    0.7145    1.0000 </r>
       <r>    0.8296    1.0000 </r>
       <r>    0.9907    1.0000 </r>
       <r>    1.1404    1.0000 </r>
       <r>    1.2210    1.0000 </r>
       <r>    2.1658    1.0000 </r>
       <r>    2.1968    1.0000 </r>
       <r>    2.2629    1.0000 </r>
       <r>    2.3964    1.0000 </r>
       <r>    2.6882    1.0000 </r>
       <r>    2.8096    1.0000 </r>
       <r>    2.9370    1.0000 </r>
       <r>    3.1438    1.0000 </r>
       <r>    3.4151    1.0000 </r>
       <r>    3.5140    1.0000 </r>
       <r>    5.5819    0.0000 </r>
       <r>    5.8231    0.0000 </r>
       <r>    7.1335    0.0000 </r>
       <r>    7.6379    0.0000 </r>
       <r>    8.0695    0.0000 </r>
       <r>    8.3136    0.0000 </r>
       <r>    8.5629    0.0000 </r>
       <r>    9.0494    0.0000 </r>
       <r>    9.3454    0.0000 </r>
       <r>    9.9507    0.0000 </r>
       <r>   10.1940    0.0000 </r>
       <r>   10.4153    0.0000 </r>
      </set>
      <set comment="kpoint 6">
       <r>  -10.9799    1.0000 </r>
       <r>  -10.9779    1.0000 </r>
       <r>  -10.9297    1.0000 </r>
       <r>  -10.7505    1.0000 </r>
       <r>  -10.7063    1.0000 </r>
       <r>  -10.6953    1.0000 </r>
       <r>  -10.6236    1.0000 </r>
       <r>  -10.6208    1.0000 </r>
       <r>  -10.6099    1.0000 </r>
       <r>  -10.6051    1.0000 </r>
       <r>   -9.5859    1.0000 </r>
       <r>   -8.7091    1.0000 </r>
       <r>   -8.6802    1.0000 </r>
       <r>   -8.5323    1.0000 </r>
       <r>   -2.2906    1.0000 </r>
       <r>   -1.9437    1.0000 </r>
       <r>   -0.9958    1.0000 </r>
       <r>   -0.1951    1.0000 </r>
       <r>   -0.1630    1.0000 </r>
       <r>    0.2547    1.0000 </r>
       <r>    0.5268    1.0000 </r>
       <r>    0.6807    1.0000 </r>
       <r>    0.7775    1.0000 </r>
       <r>    0.8955    1.0000 </r>
       <r>    1.1105    1.0000 </r>
       <r>    1.2833    1.0000 </r>
       <r>    2.1531    1.0000 </r>
       <r>    2.2148    1.0000 </r>
       <r>    2.2787    1.0000 </r>
       <r>    2.3250    1.0000 </r>
       <r>    2.5217    1.0000 </r>
       <r>    2.7474    1.0000 </r>
       <r>    2.8094    1.0000 </r>
       <r>    2.8806    1.0000 </r>
       <r>    3.5353    1.0000 </r>
       <r>    3.9764    1.0000 </r>
       <r>    5.4583    0.0000 </r>
       <r>    6.0272    0.0000 </r>
       <r>    7.0342    0.0000 </r>
       <r>    7.4301    0.0000 </r>
       <r>    7.9209    0.0000 </r>
       <r>    8.1471    0.0000 </r>
       <r>    8.6088    0.0000 </r>
       <r>    9.1220    0.0000 </r>
       <r>    9.3628    0.0000 </r>
       <r>    9.4069    0.0000 </r>
       <r>   10.2111    0.0000 </r>
       <r>   10.8903    0.0000 </r>
      </set>
      <set comment="kpoint 7">
       <r>  -10.9931    1.0000 </r>
       <r>  -10.9931    1.0000 </r>
       <r>  -10.8504    1.0000 </r>
       <r>  -10.8504    1.0000 </r>
       <r>  -10.7027    1.0000 </r>
       <r>  -10.7027    1.0000 </r>
       <r>  -10.6138    1.0000 </r>
       <r>  -10.6138    1.0000 </r>
       <r>  -10.6116    1.0000 </r>
       <r>  -10.6116    1.0000 </r>
       <r>   -8.9913    1.0000 </r>
       <r>   -8.9913    1.0000 </r>
       <r>   -8.7528    1.0000 </r>
       <r>   -8.7528    1.0000 </r>
       <r>   -2.3185    1.0000 </r>
       <r>   -2.3185    1.0000 </r>
       <r>   -0.9954    1.0000 </r>
       <r>   -0.9954    1.0000 </r>
       <r>    0.2168    1.0000 </r>
       <r>    0.2168    1.0000 </r>
       <r>    0.7997    1.0000 </r>
       <r>    0.7997    1.0000 </r>
       <r>    1.0674    1.0000 </r>
       <r>    1.0674    1.0000 </r>
       <r>    1.2230    1.0000 </r>
       <r>    1.2230    1.0000 </r>
       <r>    2.1834    1.0000 </r>
       <r>    2.1834    1.0000 </r>
       <r>    2.3810    1.0000 </r>
       <r>    2.3810    1.0000 </r>
       <r>    2.8800    1.0000 </r>
       <r>    2.8800    1.0000 </r>
       <r>    3.3067    1.0000 </r>
       <r>    3.3067    1.0000 </r>
       <r>    3.6448    1.0000 </r>
       <r>    3.6448    1.0000 </r>
       <r>    4.9948    0.0000 </r>
       <r>    4.9948    0.0000 </r>
       <r>    7.2161    0.0000 </r>
       <r>    7.2161    0.0000 </r>
       <r>    8.5711    0.0000 </r>
       <r>    8.5711    0.0000 </r>
       <r>    8.9792    0.0000 </r>
       <r>    8.9794    0.0000 </r>
       <r>    9.7630    0.0000 </r>
       <r>    9.7878    0.0000 </r>
       <r>   10.1664    0.0000 </r>
       <r>   10.2298    0.0000 </r>
      </set>
      <set comment="kpoint 8">
       <r>  -10.9617    1.0000 </r>
       <r>  -10.9617    1.0000 </r>
       <r>  -10.9292    1.0000 </r>
       <r>  -10.8120    1.0000 </r>
       <r>  -10.6746    1.0000 </r>
       <r>  -10.6746    1.0000 </r>
       <r>  -10.6380    1.0000 </r>
       <r>  -10.6276    1.0000 </r>
       <r>  -10.6078    1.0000 </r>
       <r>  -10.5976    1.0000 </r>
       <r>   -9.5895    1.0000 </r>
       <r>   -8.9142    1.0000 </r>
       <r>   -8.5399    1.0000 </r>
       <r>   -8.5399    1.0000 </r>
       <r>   -2.2782    1.0000 </r>
       <r>   -2.0220    1.0000 </r>
       <r>   -0.6577    1.0000 </r>
       <r>    0.1754    1.0000 </r>
       <r>    0.4861    1.0000 </r>
       <r>    0.5435    1.0000 </r>
       <r>    0.5435    1.0000 </r>
       <r>    0.7541    1.0000 </r>
       <r>    0.7664    1.0000 </r>
       <r>    0.7664    1.0000 </r>
       <r>    1.0186    1.0000 </r>
       <r>    1.0186    1.0000 </r>
       <r>    1.9932    1.0000 </r>
       <r>    2.1166    1.0000 </r>
       <r>    2.1907    1.0000 </r>
       <r>    2.2880    1.0000 </r>
       <r>    2.5412    1.0000 </r>
       <r>    2.7775    1.0000 </r>
       <r>    2.7775    1.0000 </r>
       <r>    2.9649    1.0000 </r>
       <r>    3.5659    1.0000 </r>
       <r>    3.5659    1.0000 </r>
       <r>    5.5020    0.0000 </r>
       <r>    5.8840    0.0000 </r>
       <r>    6.3026    0.0000 </r>
       <r>    6.3133    0.0000 </r>
       <r>    6.3133    0.0000 </r>
       <r>    7.2286    0.0000 </r>
       <r>    8.0617    0.0000 </r>
       <r>    8.0957    0.0000 </r>
       <r>    9.7679    0.0000 </r>
       <r>    9.7679    0.0000 </r>
       <r>   11.6679    0.0000 </r>
       <r>   11.6914    0.0000 </r>
      </set>
      <set comment="kpoint 9">
       <r>  -10.9847    1.0000 </r>
       <r>  -10.9642    1.0000 </r>
       <r>  -10.8935    1.0000 </r>
       <r>  -10.8430    1.0000 </r>
       <r>  -10.6852    1.0000 </r>
       <r>  -10.6720    1.0000 </r>
       <r>  -10.6319    1.0000 </r>
       <r>  -10.6296    1.0000 </r>
       <r>  -10.6031    1.0000 </r>
       <r>  -10.6008    1.0000 </r>
       <r>   -9.2387    1.0000 </r>
       <r>   -9.0840    1.0000 </r>
       <r>   -8.7552    1.0000 </r>
       <r>   -8.5320    1.0000 </r>
       <r>   -2.0949    1.0000 </r>
       <r>   -1.9685    1.0000 </r>
       <r>   -0.5195    1.0000 </r>
       <r>   -0.3099    1.0000 </r>
       <r>    0.1849    1.0000 </r>
       <r>    0.5010    1.0000 </r>
       <r>    0.5504    1.0000 </r>
       <r>    0.6826    1.0000 </r>
       <r>    0.7733    1.0000 </r>
       <r>    0.9317    1.0000 </r>
       <r>    0.9751    1.0000 </r>
       <r>    1.0760    1.0000 </r>
       <r>    2.1231    1.0000 </r>
       <r>    2.1817    1.0000 </r>
       <r>    2.2074    1.0000 </r>
       <r>    2.3400    1.0000 </r>
       <r>    2.4849    1.0000 </r>
       <r>    2.7332    1.0000 </r>
       <r>    2.7388    1.0000 </r>
       <r>    3.1078    1.0000 </r>
       <r>    3.2318    1.0000 </r>
       <r>    3.4975    1.0000 </r>
       <r>    5.8280    0.0000 </r>
       <r>    6.0390    0.0000 </r>
       <r>    6.1867    0.0000 </r>
       <r>    6.6750    0.0000 </r>
       <r>    7.4216    0.0000 </r>
       <r>    7.6249    0.0000 </r>
       <r>    8.2666    0.0000 </r>
       <r>    8.5605    0.0000 </r>
       <r>    9.3428    0.0000 </r>
       <r>    9.8204    0.0000 </r>
       <r>   10.1656    0.0000 </r>
       <r>   10.9673    0.0000 </r>
      </set>
      <set comment="kpoint 10">
       <r>  -10.9950    1.0000 </r>
       <r>  -10.9667    1.0000 </r>
       <r>  -10.9181    1.0000 </r>
       <r>  -10.7878    1.0000 </r>
       <r>  -10.7056    1.0000 </r>
       <r>  -10.6782    1.0000 </r>
       <r>  -10.6259    1.0000 </r>
       <r>  -10.6249    1.0000 </r>
       <r>  -10.6059    1.0000 </r>
       <r>  -10.6045    1.0000 </r>
       <r>   -9.3069    1.0000 </r>
       <r>   -8.9582    1.0000 </r>
       <r>   -8.7839    1.0000 </r>
       <r>   -8.5231    1.0000 </r>
       <r>   -2.0662    1.0000 </r>
       <r>   -1.7743    1.0000 </r>
       <r>   -0.7369    1.0000 </r>
       <r>   -0.2808    1.0000 </r>
       <r>   -0.1749    1.0000 </r>
       <r>    0.1615    1.0000 </r>
       <r>    0.3707    1.0000 </r>
       <r>    0.5100    1.0000 </r>
       <r>    0.7366    1.0000 </r>
       <r>    0.9332    1.0000 </r>
       <r>    0.9642    1.0000 </r>
       <r>    1.2733    1.0000 </r>
       <r>    2.1753    1.0000 </r>
       <r>    2.2106    1.0000 </r>
       <r>    2.2456    1.0000 </r>
       <r>    2.4268    1.0000 </r>
       <r>    2.5027    1.0000 </r>
       <r>    2.5695    1.0000 </r>
       <r>    2.8205    1.0000 </r>
       <r>    3.1883    1.0000 </r>
       <r>    3.2112    1.0000 </r>
       <r>    3.5674    1.0000 </r>
       <r>    6.0378    0.0000 </r>
       <r>    6.3719    0.0000 </r>
       <r>    6.7811    0.0000 </r>
       <r>    7.6563    0.0000 </r>
       <r>    8.1501    0.0000 </r>
       <r>    8.4241    0.0000 </r>
       <r>    8.8361    0.0000 </r>
       <r>    8.9447    0.0000 </r>
       <r>    9.4888    0.0000 </r>
       <r>    9.7235    0.0000 </r>
       <r>   10.2235    0.0000 </r>
       <r>   10.4156    0.0000 </r>
      </set>
      <set comment="kpoint 11">
       <r>  -10.9740    1.0000 </r>
       <r>  -10.9690    1.0000 </r>
       <r>  -10.9359    1.0000 </r>
       <r>  -10.7637    1.0000 </r>
       <r>  -10.6988    1.0000 </r>
       <r>  -10.6819    1.0000 </r>
       <r>  -10.6325    1.0000 </r>
       <r>  -10.6200    1.0000 </r>
       <r>  -10.6127    1.0000 </r>
       <r>  -10.6000    1.0000 </r>
       <r>   -9.6223    1.0000 </r>
       <r>   -8.7139    1.0000 </r>
       <r>   -8.6631    1.0000 </r>
       <r>   -8.5518    1.0000 </r>
       <r>   -2.2337    1.0000 </r>
       <r>   -1.8224    1.0000 </r>
       <r>   -0.7987    1.0000 </r>
       <r>   -0.2214    1.0000 </r>
       <r>    0.1728    1.0000 </r>
       <r>    0.3630    1.0000 </r>
       <r>    0.3961    1.0000 </r>
       <r>    0.6735    1.0000 </r>
       <r>    0.6795    1.0000 </r>
       <r>    0.8914    1.0000 </r>
       <r>    0.9424    1.0000 </r>
       <r>    1.1495    1.0000 </r>
       <r>    2.1473    1.0000 </r>
       <r>    2.2041    1.0000 </r>
       <r>    2.2772    1.0000 </r>
       <r>    2.2884    1.0000 </r>
       <r>    2.4852    1.0000 </r>
       <r>    2.6120    1.0000 </r>
       <r>    2.6720    1.0000 </r>
       <r>    2.9932    1.0000 </r>
       <r>    3.5074    1.0000 </r>
       <r>    3.9607    1.0000 </r>
       <r>    5.3631    0.0000 </r>
       <r>    6.2435    0.0000 </r>
       <r>    6.8626    0.0000 </r>
       <r>    6.9392    0.0000 </r>
       <r>    7.1732    0.0000 </r>
       <r>    8.2760    0.0000 </r>
       <r>    8.6889    0.0000 </r>
       <r>    8.9365    0.0000 </r>
       <r>    9.1900    0.0000 </r>
       <r>    9.3785    0.0000 </r>
       <r>   10.2890    0.0000 </r>
       <r>   10.5976    0.0000 </r>
      </set>
      <set comment="kpoint 12">
       <r>  -10.9844    1.0000 </r>
       <r>  -10.9811    1.0000 </r>
       <r>  -10.8840    1.0000 </r>
       <r>  -10.8358    1.0000 </r>
       <r>  -10.6897    1.0000 </r>
       <r>  -10.6854    1.0000 </r>
       <r>  -10.6279    1.0000 </r>
       <r>  -10.6243    1.0000 </r>
       <r>  -10.6055    1.0000 </r>
       <r>  -10.6018    1.0000 </r>
       <r>   -9.2148    1.0000 </r>
       <r>   -8.9622    1.0000 </r>
       <r>   -8.7065    1.0000 </r>
       <r>   -8.6975    1.0000 </r>
       <r>   -2.1121    1.0000 </r>
       <r>   -1.9929    1.0000 </r>
       <r>   -0.8223    1.0000 </r>
       <r>   -0.5749    1.0000 </r>
       <r>    0.3498    1.0000 </r>
       <r>    0.3842    1.0000 </r>
       <r>    0.5865    1.0000 </r>
       <r>    0.7177    1.0000 </r>
       <r>    0.7537    1.0000 </r>
       <r>    0.9264    1.0000 </r>
       <r>    1.0689    1.0000 </r>
       <r>    1.1199    1.0000 </r>
       <r>    2.1717    1.0000 </r>
       <r>    2.1817    1.0000 </r>
       <r>    2.2855    1.0000 </r>
       <r>    2.3227    1.0000 </r>
       <r>    2.5582    1.0000 </r>
       <r>    2.6518    1.0000 </r>
       <r>    3.0031    1.0000 </r>
       <r>    3.1217    1.0000 </r>
       <r>    3.4348    1.0000 </r>
       <r>    3.4559    1.0000 </r>
       <r>    5.4538    0.0000 </r>
       <r>    5.8675    0.0000 </r>
       <r>    6.8292    0.0000 </r>
       <r>    6.9873    0.0000 </r>
       <r>    7.6823    0.0000 </r>
       <r>    8.0431    0.0000 </r>
       <r>    8.7596    0.0000 </r>
       <r>    8.8032    0.0000 </r>
       <r>    9.5253    0.0000 </r>
       <r>    9.7057    0.0000 </r>
       <r>   10.1508    0.0000 </r>
       <r>   10.5116    0.0000 </r>
      </set>
      <set comment="kpoint 13">
       <r>  -10.9931    1.0000 </r>
       <r>  -10.9816    1.0000 </r>
       <r>  -10.8996    1.0000 </r>
       <r>  -10.8001    1.0000 </r>
       <r>  -10.7072    1.0000 </r>
       <r>  -10.6915    1.0000 </r>
       <r>  -10.6221    1.0000 </r>
       <r>  -10.6194    1.0000 </r>
       <r>  -10.6076    1.0000 </r>
       <r>  -10.6062    1.0000 </r>
       <r>   -9.1861    1.0000 </r>
       <r>   -8.9830    1.0000 </r>
       <r>   -8.7379    1.0000 </r>
       <r>   -8.6225    1.0000 </r>
       <r>   -2.2334    1.0000 </r>
       <r>   -2.0079    1.0000 </r>
       <r>   -1.0652    1.0000 </r>
       <r>   -0.6733    1.0000 </r>
       <r>    0.0810    1.0000 </r>
       <r>    0.3431    1.0000 </r>
       <r>    0.6801    1.0000 </r>
       <r>    0.7190    1.0000 </r>
       <r>    0.8818    1.0000 </r>
       <r>    0.9574    1.0000 </r>
       <r>    1.1597    1.0000 </r>
       <r>    1.2051    1.0000 </r>
       <r>    2.1515    1.0000 </r>
       <r>    2.2134    1.0000 </r>
       <r>    2.2782    1.0000 </r>
       <r>    2.3791    1.0000 </r>
       <r>    2.7444    1.0000 </r>
       <r>    2.8034    1.0000 </r>
       <r>    2.9673    1.0000 </r>
       <r>    3.1187    1.0000 </r>
       <r>    3.3851    1.0000 </r>
       <r>    3.4555    1.0000 </r>
       <r>    5.5884    0.0000 </r>
       <r>    5.8709    0.0000 </r>
       <r>    7.0566    0.0000 </r>
       <r>    7.6720    0.0000 </r>
       <r>    8.1217    0.0000 </r>
       <r>    8.3664    0.0000 </r>
       <r>    8.4480    0.0000 </r>
       <r>    8.9227    0.0000 </r>
       <r>    9.5110    0.0000 </r>
       <r>    9.7901    0.0000 </r>
       <r>   10.3354    0.0000 </r>
       <r>   10.6187    0.0000 </r>
      </set>
      <set comment="kpoint 14">
       <r>  -10.9843    1.0000 </r>
       <r>  -10.9787    1.0000 </r>
       <r>  -10.9029    1.0000 </r>
       <r>  -10.8098    1.0000 </r>
       <r>  -10.6946    1.0000 </r>
       <r>  -10.6864    1.0000 </r>
       <r>  -10.6286    1.0000 </r>
       <r>  -10.6216    1.0000 </r>
       <r>  -10.6082    1.0000 </r>
       <r>  -10.6011    1.0000 </r>
       <r>   -9.3339    1.0000 </r>
       <r>   -8.8508    1.0000 </r>
       <r>   -8.7024    1.0000 </r>
       <r>   -8.6790    1.0000 </r>
       <r>   -2.1728    1.0000 </r>
       <r>   -1.9545    1.0000 </r>
       <r>   -0.9113    1.0000 </r>
       <r>   -0.4281    1.0000 </r>
       <r>    0.2812    1.0000 </r>
       <r>    0.2935    1.0000 </r>
       <r>    0.4942    1.0000 </r>
       <r>    0.7191    1.0000 </r>
       <r>    0.7984    1.0000 </r>
       <r>    0.9324    1.0000 </r>
       <r>    1.1034    1.0000 </r>
       <r>    1.1390    1.0000 </r>
       <r>    2.1573    1.0000 </r>
       <r>    2.1849    1.0000 </r>
       <r>    2.3345    1.0000 </r>
       <r>    2.3392    1.0000 </r>
       <r>    2.5307    1.0000 </r>
       <r>    2.6716    1.0000 </r>
       <r>    2.8517    1.0000 </r>
       <r>    3.0557    1.0000 </r>
       <r>    3.5986    1.0000 </r>
       <r>    3.6444    1.0000 </r>
       <r>    5.2409    0.0000 </r>
       <r>    5.9421    0.0000 </r>
       <r>    6.7523    0.0000 </r>
       <r>    7.0279    0.0000 </r>
       <r>    7.6235    0.0000 </r>
       <r>    8.3178    0.0000 </r>
       <r>    8.9598    0.0000 </r>
       <r>    9.1038    0.0000 </r>
       <r>    9.3817    0.0000 </r>
       <r>    9.6251    0.0000 </r>
       <r>   10.1900    0.0000 </r>
       <r>   10.6355    0.0000 </r>
      </set>
      <set comment="kpoint 15">
       <r>  -10.9931    1.0000 </r>
       <r>  -10.9931    1.0000 </r>
       <r>  -10.8503    1.0000 </r>
       <r>  -10.8503    1.0000 </r>
       <r>  -10.7029    1.0000 </r>
       <r>  -10.7029    1.0000 </r>
       <r>  -10.6135    1.0000 </r>
       <r>  -10.6135    1.0000 </r>
       <r>  -10.6118    1.0000 </r>
       <r>  -10.6118    1.0000 </r>
       <r>   -8.9904    1.0000 </r>
       <r>   -8.9904    1.0000 </r>
       <r>   -8.7538    1.0000 </r>
       <r>   -8.7538    1.0000 </r>
       <r>   -2.2903    1.0000 </r>
       <r>   -2.2903    1.0000 </r>
       <r>   -1.1071    1.0000 </r>
       <r>   -1.1071    1.0000 </r>
       <r>    0.4283    1.0000 </r>
       <r>    0.4283    1.0000 </r>
       <r>    0.7397    1.0000 </r>
       <r>    0.7397    1.0000 </r>
       <r>    0.9915    1.0000 </r>
       <r>    0.9915    1.0000 </r>
       <r>    1.2758    1.0000 </r>
       <r>    1.2758    1.0000 </r>
       <r>    2.1605    1.0000 </r>
       <r>    2.1605    1.0000 </r>
       <r>    2.4163    1.0000 </r>
       <r>    2.4163    1.0000 </r>
       <r>    2.8313    1.0000 </r>
       <r>    2.8313    1.0000 </r>
       <r>    3.3177    1.0000 </r>
       <r>    3.3177    1.0000 </r>
       <r>    3.4940    1.0000 </r>
       <r>    3.4940    1.0000 </r>
       <r>    5.2429    0.0000 </r>
       <r>    5.2429    0.0000 </r>
       <r>    7.0763    0.0000 </r>
       <r>    7.0763    0.0000 </r>
       <r>    8.4813    0.0000 </r>
       <r>    8.4813    0.0000 </r>
       <r>    8.9459    0.0000 </r>
       <r>    8.9459    0.0000 </r>
       <r>    9.6874    0.0000 </r>
       <r>    9.6875    0.0000 </r>
       <r>   10.0105    0.0000 </r>
       <r>   10.0135    0.0000 </r>
      </set>
      <set comment="kpoint 16">
       <r>  -10.9949    1.0000 </r>
       <r>  -10.9805    1.0000 </r>
       <r>  -10.8960    1.0000 </r>
       <r>  -10.8061    1.0000 </r>
       <r>  -10.7042    1.0000 </r>
       <r>  -10.6911    1.0000 </r>
       <r>  -10.6219    1.0000 </r>
       <r>  -10.6193    1.0000 </r>
       <r>  -10.6076    1.0000 </r>
       <r>  -10.6064    1.0000 </r>
       <r>   -9.2100    1.0000 </r>
       <r>   -8.9032    1.0000 </r>
       <r>   -8.8138    1.0000 </r>
       <r>   -8.6031    1.0000 </r>
       <r>   -2.2167    1.0000 </r>
       <r>   -2.0529    1.0000 </r>
       <r>   -0.9863    1.0000 </r>
       <r>   -0.6152    1.0000 </r>
       <r>   -0.1489    1.0000 </r>
       <r>    0.5478    1.0000 </r>
       <r>    0.6433    1.0000 </r>
       <r>    0.7074    1.0000 </r>
       <r>    0.7956    1.0000 </r>
       <r>    1.0084    1.0000 </r>
       <r>    1.1234    1.0000 </r>
       <r>    1.2335    1.0000 </r>
       <r>    2.1753    1.0000 </r>
       <r>    2.1909    1.0000 </r>
       <r>    2.2410    1.0000 </r>
       <r>    2.4342    1.0000 </r>
       <r>    2.6187    1.0000 </r>
       <r>    2.8056    1.0000 </r>
       <r>    2.9041    1.0000 </r>
       <r>    3.1953    1.0000 </r>
       <r>    3.4534    1.0000 </r>
       <r>    3.5441    1.0000 </r>
       <r>    5.6182    0.0000 </r>
       <r>    5.7269    0.0000 </r>
       <r>    7.2779    0.0000 </r>
       <r>    7.6171    0.0000 </r>
       <r>    7.8351    0.0000 </r>
       <r>    8.3851    0.0000 </r>
       <r>    8.7125    0.0000 </r>
       <r>    9.1069    0.0000 </r>
       <r>    9.3864    0.0000 </r>
       <r>    9.8137    0.0000 </r>
       <r>   10.0566    0.0000 </r>
       <r>   10.2091    0.0000 </r>
      </set>
      <set comment="kpoint 17">
       <r>  -10.9804    1.0000 </r>
       <r>  -10.9774    1.0000 </r>
       <r>  -10.9288    1.0000 </r>
       <r>  -10.7542    1.0000 </r>
       <r>  -10.7062    1.0000 </r>
       <r>  -10.6944    1.0000 </r>
       <r>  -10.6254    1.0000 </r>
       <r>  -10.6184    1.0000 </r>
       <r>  -10.6116    1.0000 </r>
       <r>  -10.6040    1.0000 </r>
       <r>   -9.5683    1.0000 </r>
       <r>   -8.7141    1.0000 </r>
       <r>   -8.6823    1.0000 </r>
       <r>   -8.5479    1.0000 </r>
       <r>   -2.2831    1.0000 </r>
       <r>   -1.9407    1.0000 </r>
       <r>   -1.0001    1.0000 </r>
       <r>   -0.1705    1.0000 </r>
       <r>   -0.1391    1.0000 </r>
       <r>    0.2627    1.0000 </r>
       <r>    0.4380    1.0000 </r>
       <r>    0.7446    1.0000 </r>
       <r>    0.7732    1.0000 </r>
       <r>    0.8978    1.0000 </r>
       <r>    1.1153    1.0000 </r>
       <r>    1.2669    1.0000 </r>
       <r>    2.1457    1.0000 </r>
       <r>    2.2287    1.0000 </r>
       <r>    2.2959    1.0000 </r>
       <r>    2.3134    1.0000 </r>
       <r>    2.5307    1.0000 </r>
       <r>    2.6934    1.0000 </r>
       <r>    2.7929    1.0000 </r>
       <r>    2.9556    1.0000 </r>
       <r>    3.5646    1.0000 </r>
       <r>    3.9493    1.0000 </r>
       <r>    5.3968    0.0000 </r>
       <r>    6.0177    0.0000 </r>
       <r>    7.0262    0.0000 </r>
       <r>    7.2010    0.0000 </r>
       <r>    8.0033    0.0000 </r>
       <r>    8.2016    0.0000 </r>
       <r>    8.7799    0.0000 </r>
       <r>    9.0590    0.0000 </r>
       <r>    9.4575    0.0000 </r>
       <r>    9.4704    0.0000 </r>
       <r>   10.1940    0.0000 </r>
       <r>   10.8431    0.0000 </r>
      </set>
     </set>
     <set comment="spin 2">
      <set comment="kpoint 1">
       <r>  -10.9708    1.0000 </r>
       <r>  -10.9536    1.0000 </r>
       <r>  -10.9536    1.0000 </r>
       <r>  -10.7103    1.0000 </r>
       <r>  -10.6901    1.0000 </r>
       <r>  -10.6901    1.0000 </r>
       <r>  -10.6284    1.0000 </r>
       <r>  -10.6274    1.0000 </r>
       <r>  -10.6103    1.0000 </r>
       <r>  -10.6033    1.0000 </r>
       <r>   -9.9302    1.0000 </r>
       <r>   -8.5344    1.0000 </r>
       <r>   -8.5198    1.0000 </r>
       <r>   -8.5198    1.0000 </r>
       <r>   -2.4251    1.0000 </r>
       <r>   -1.7379    1.0000 </r>
       <r>   -0.8452    1.0000 </r>
       <r>   -0.1216    1.0000 </r>
       <r>   -0.0437    1.0000 </r>
       <r>    0.4213    1.0000 </r>
       <r>    0.4213    1.0000 </r>
       <r>    0.6964    1.0000 </r>
       <r>    0.6964    1.0000 </r>
       <r>    0.9683    1.0000 </r>
       <r>    0.9683    1.0000 </r>
       <r>    1.0398    1.0000 </r>
       <r>    2.0280    1.0000 </r>
       <r>    2.0856    1.0000 </r>
       <r>    2.1499    1.0000 </r>
       <r>    2.4440    1.0000 </r>
       <r>    2.4593    1.0000 </r>
       <r>    2.4593    1.0000 </r>
       <r>    2.5691    1.0000 </r>
       <r>    3.7918    1.0000 </r>
       <r>    4.1256    1.0000 </r>
       <r>    4.1256    1.0000 </r>
       <r>    4.1350    0.0000 </r>
       <r>    5.9101    0.0000 </r>
       <r>    6.0407    0.0000 </r>
       <r>    7.9124    0.0000 </r>
       <r>    7.9124    0.0000 </r>
       <r>    8.5454    0.0000 </r>
       <r>    8.8942    0.0000 </r>
       <r>    8.8942    0.0000 </r>
       <r>    8.8995    0.0000 </r>
       <r>    9.2315    0.0000 </r>
       <r>   10.0107    0.0000 </r>
       <r>   10.0138    0.0000 </r>
      </set>
      <set comment="kpoint 2">
       <r>  -10.9751    1.0000 </r>
       <r>  -10.9675    1.0000 </r>
       <r>  -10.9411    1.0000 </r>
       <r>  -10.7416    1.0000 </r>
       <r>  -10.7053    1.0000 </r>
       <r>  -10.6845    1.0000 </r>
       <r>  -10.6305    1.0000 </r>
       <r>  -10.6203    1.0000 </r>
       <r>  -10.6128    1.0000 </r>
       <r>  -10.6017    1.0000 </r>
       <r>   -9.6998    1.0000 </r>
       <r>   -8.6737    1.0000 </r>
       <r>   -8.6078    1.0000 </r>
       <r>   -8.5492    1.0000 </r>
       <r>   -2.2699    1.0000 </r>
       <r>   -1.7835    1.0000 </r>
       <r>   -0.8371    1.0000 </r>
       <r>   -0.2601    1.0000 </r>
       <r>    0.0603    1.0000 </r>
       <r>    0.3624    1.0000 </r>
       <r>    0.4458    1.0000 </r>
       <r>    0.6074    1.0000 </r>
       <r>    0.6692    1.0000 </r>
       <r>    0.8735    1.0000 </r>
       <r>    0.9394    1.0000 </r>
       <r>    1.1890    1.0000 </r>
       <r>    2.1453    1.0000 </r>
       <r>    2.2134    1.0000 </r>
       <r>    2.2569    1.0000 </r>
       <r>    2.3051    1.0000 </r>
       <r>    2.4182    1.0000 </r>
       <r>    2.6439    1.0000 </r>
       <r>    2.6692    1.0000 </r>
       <r>    3.0282    1.0000 </r>
       <r>    3.6584    1.0000 </r>
       <r>    3.9087    1.0000 </r>
       <r>    5.3255    0.0000 </r>
       <r>    6.3252    0.0000 </r>
       <r>    6.7734    0.0000 </r>
       <r>    7.1984    0.0000 </r>
       <r>    7.5167    0.0000 </r>
       <r>    8.3827    0.0000 </r>
       <r>    8.7803    0.0000 </r>
       <r>    8.8996    0.0000 </r>
       <r>    9.0386    0.0000 </r>
       <r>    9.4899    0.0000 </r>
       <r>   10.1092    0.0000 </r>
       <r>   10.8995    0.0000 </r>
      </set>
      <set comment="kpoint 3">
       <r>  -10.9892    1.0000 </r>
       <r>  -10.9735    1.0000 </r>
       <r>  -10.9200    1.0000 </r>
       <r>  -10.7805    1.0000 </r>
       <r>  -10.7086    1.0000 </r>
       <r>  -10.6805    1.0000 </r>
       <r>  -10.6265    1.0000 </r>
       <r>  -10.6248    1.0000 </r>
       <r>  -10.6061    1.0000 </r>
       <r>  -10.6042    1.0000 </r>
       <r>   -9.2737    1.0000 </r>
       <r>   -9.0556    1.0000 </r>
       <r>   -8.6674    1.0000 </r>
       <r>   -8.5744    1.0000 </r>
       <r>   -2.0785    1.0000 </r>
       <r>   -1.7554    1.0000 </r>
       <r>   -0.7300    1.0000 </r>
       <r>   -0.3357    1.0000 </r>
       <r>   -0.2047    1.0000 </r>
       <r>    0.0744    1.0000 </r>
       <r>    0.4922    1.0000 </r>
       <r>    0.7377    1.0000 </r>
       <r>    0.7424    1.0000 </r>
       <r>    0.8476    1.0000 </r>
       <r>    0.9140    1.0000 </r>
       <r>    1.2320    1.0000 </r>
       <r>    2.1994    1.0000 </r>
       <r>    2.2079    1.0000 </r>
       <r>    2.2444    1.0000 </r>
       <r>    2.3839    1.0000 </r>
       <r>    2.5088    1.0000 </r>
       <r>    2.7385    1.0000 </r>
       <r>    2.8909    1.0000 </r>
       <r>    2.9423    1.0000 </r>
       <r>    3.1088    1.0000 </r>
       <r>    3.5891    1.0000 </r>
       <r>    6.0727    0.0000 </r>
       <r>    6.3983    0.0000 </r>
       <r>    7.1558    0.0000 </r>
       <r>    7.7840    0.0000 </r>
       <r>    8.0497    0.0000 </r>
       <r>    8.2206    0.0000 </r>
       <r>    8.6051    0.0000 </r>
       <r>    8.8169    0.0000 </r>
       <r>    9.2953    0.0000 </r>
       <r>    9.4041    0.0000 </r>
       <r>   10.1870    0.0000 </r>
       <r>   10.4130    0.0000 </r>
      </set>
      <set comment="kpoint 4">
       <r>  -10.9833    1.0000 </r>
       <r>  -10.9770    1.0000 </r>
       <r>  -10.9168    1.0000 </r>
       <r>  -10.7856    1.0000 </r>
       <r>  -10.7002    1.0000 </r>
       <r>  -10.6890    1.0000 </r>
       <r>  -10.6286    1.0000 </r>
       <r>  -10.6184    1.0000 </r>
       <r>  -10.6115    1.0000 </r>
       <r>  -10.6014    1.0000 </r>
       <r>   -9.4371    1.0000 </r>
       <r>   -8.7712    1.0000 </r>
       <r>   -8.6954    1.0000 </r>
       <r>   -8.6423    1.0000 </r>
       <r>   -2.2234    1.0000 </r>
       <r>   -1.9366    1.0000 </r>
       <r>   -0.9710    1.0000 </r>
       <r>   -0.2922    1.0000 </r>
       <r>    0.1671    1.0000 </r>
       <r>    0.2578    1.0000 </r>
       <r>    0.3654    1.0000 </r>
       <r>    0.7392    1.0000 </r>
       <r>    0.8357    1.0000 </r>
       <r>    0.9141    1.0000 </r>
       <r>    1.1386    1.0000 </r>
       <r>    1.1638    1.0000 </r>
       <r>    2.1387    1.0000 </r>
       <r>    2.2144    1.0000 </r>
       <r>    2.3274    1.0000 </r>
       <r>    2.3561    1.0000 </r>
       <r>    2.5437    1.0000 </r>
       <r>    2.6575    1.0000 </r>
       <r>    2.7625    1.0000 </r>
       <r>    3.0457    1.0000 </r>
       <r>    3.7122    1.0000 </r>
       <r>    3.7500    1.0000 </r>
       <r>    5.1688    0.0000 </r>
       <r>    5.9691    0.0000 </r>
       <r>    6.7719    0.0000 </r>
       <r>    7.0297    0.0000 </r>
       <r>    7.6749    0.0000 </r>
       <r>    8.5423    0.0000 </r>
       <r>    9.1870    0.0000 </r>
       <r>    9.1955    0.0000 </r>
       <r>    9.3763    0.0000 </r>
       <r>    9.4818    0.0000 </r>
       <r>   10.3796    0.0000 </r>
       <r>   10.6408    0.0000 </r>
      </set>
      <set comment="kpoint 5">
       <r>  -10.9941    1.0000 </r>
       <r>  -10.9810    1.0000 </r>
       <r>  -10.8979    1.0000 </r>
       <r>  -10.8031    1.0000 </r>
       <r>  -10.7057    1.0000 </r>
       <r>  -10.6914    1.0000 </r>
       <r>  -10.6221    1.0000 </r>
       <r>  -10.6194    1.0000 </r>
       <r>  -10.6077    1.0000 </r>
       <r>  -10.6064    1.0000 </r>
       <r>   -9.1990    1.0000 </r>
       <r>   -8.9489    1.0000 </r>
       <r>   -8.7703    1.0000 </r>
       <r>   -8.6114    1.0000 </r>
       <r>   -2.2262    1.0000 </r>
       <r>   -2.0291    1.0000 </r>
       <r>   -1.0294    1.0000 </r>
       <r>   -0.6420    1.0000 </r>
       <r>   -0.0500    1.0000 </r>
       <r>    0.4540    1.0000 </r>
       <r>    0.6708    1.0000 </r>
       <r>    0.7145    1.0000 </r>
       <r>    0.8297    1.0000 </r>
       <r>    0.9908    1.0000 </r>
       <r>    1.1405    1.0000 </r>
       <r>    1.2211    1.0000 </r>
       <r>    2.1657    1.0000 </r>
       <r>    2.1967    1.0000 </r>
       <r>    2.2629    1.0000 </r>
       <r>    2.3963    1.0000 </r>
       <r>    2.6882    1.0000 </r>
       <r>    2.8096    1.0000 </r>
       <r>    2.9370    1.0000 </r>
       <r>    3.1438    1.0000 </r>
       <r>    3.4151    1.0000 </r>
       <r>    3.5140    1.0000 </r>
       <r>    5.5821    0.0000 </r>
       <r>    5.8232    0.0000 </r>
       <r>    7.1337    0.0000 </r>
       <r>    7.6381    0.0000 </r>
       <r>    8.0696    0.0000 </r>
       <r>    8.3138    0.0000 </r>
       <r>    8.5632    0.0000 </r>
       <r>    9.0497    0.0000 </r>
       <r>    9.3456    0.0000 </r>
       <r>    9.9467    0.0000 </r>
       <r>   10.1955    0.0000 </r>
       <r>   10.3127    0.0000 </r>
      </set>
      <set comment="kpoint 6">
       <r>  -10.9800    1.0000 </r>
       <r>  -10.9779    1.0000 </r>
       <r>  -10.9298    1.0000 </r>
       <r>  -10.7506    1.0000 </r>
       <r>  -10.7064    1.0000 </r>
       <r>  -10.6954    1.0000 </r>
       <r>  -10.6237    1.0000 </r>
       <r>  -10.6208    1.0000 </r>
       <r>  -10.6100    1.0000 </r>
       <r>  -10.6052    1.0000 </r>
       <r>   -9.5858    1.0000 </r>
       <r>   -8.7091    1.0000 </r>
       <r>   -8.6802    1.0000 </r>
       <r>   -8.5323    1.0000 </r>
       <r>   -2.2905    1.0000 </r>
       <r>   -1.9436    1.0000 </r>
       <r>   -0.9957    1.0000 </r>
       <r>   -0.1949    1.0000 </r>
       <r>   -0.1629    1.0000 </r>
       <r>    0.2548    1.0000 </r>
       <r>    0.5270    1.0000 </r>
       <r>    0.6808    1.0000 </r>
       <r>    0.7775    1.0000 </r>
       <r>    0.8955    1.0000 </r>
       <r>    1.1105    1.0000 </r>
       <r>    1.2834    1.0000 </r>
       <r>    2.1531    1.0000 </r>
       <r>    2.2148    1.0000 </r>
       <r>    2.2787    1.0000 </r>
       <r>    2.3249    1.0000 </r>
       <r>    2.5217    1.0000 </r>
       <r>    2.7474    1.0000 </r>
       <r>    2.8093    1.0000 </r>
       <r>    2.8806    1.0000 </r>
       <r>    3.5353    1.0000 </r>
       <r>    3.9764    1.0000 </r>
       <r>    5.4585    0.0000 </r>
       <r>    6.0274    0.0000 </r>
       <r>    7.0344    0.0000 </r>
       <r>    7.4303    0.0000 </r>
       <r>    7.9211    0.0000 </r>
       <r>    8.1473    0.0000 </r>
       <r>    8.6090    0.0000 </r>
       <r>    9.1223    0.0000 </r>
       <r>    9.3631    0.0000 </r>
       <r>    9.4071    0.0000 </r>
       <r>   10.2109    0.0000 </r>
       <r>   10.8919    0.0000 </r>
      </set>
      <set comment="kpoint 7">
       <r>  -10.9932    1.0000 </r>
       <r>  -10.9932    1.0000 </r>
       <r>  -10.8505    1.0000 </r>
       <r>  -10.8505    1.0000 </r>
       <r>  -10.7027    1.0000 </r>
       <r>  -10.7027    1.0000 </r>
       <r>  -10.6138    1.0000 </r>
       <r>  -10.6138    1.0000 </r>
       <r>  -10.6117    1.0000 </r>
       <r>  -10.6117    1.0000 </r>
       <r>   -8.9913    1.0000 </r>
       <r>   -8.9913    1.0000 </r>
       <r>   -8.7527    1.0000 </r>
       <r>   -8.7527    1.0000 </r>
       <r>   -2.3184    1.0000 </r>
       <r>   -2.3184    1.0000 </r>
       <r>   -0.9952    1.0000 </r>
       <r>   -0.9952    1.0000 </r>
       <r>    0.2169    1.0000 </r>
       <r>    0.2169    1.0000 </r>
       <r>    0.7997    1.0000 </r>
       <r>    0.7997    1.0000 </r>
       <r>    1.0674    1.0000 </r>
       <r>    1.0674    1.0000 </r>
       <r>    1.2231    1.0000 </r>
       <r>    1.2231    1.0000 </r>
       <r>    2.1833    1.0000 </r>
       <r>    2.1833    1.0000 </r>
       <r>    2.3809    1.0000 </r>
       <r>    2.3809    1.0000 </r>
       <r>    2.8800    1.0000 </r>
       <r>    2.8800    1.0000 </r>
       <r>    3.3067    1.0000 </r>
       <r>    3.3067    1.0000 </r>
       <r>    3.6448    1.0000 </r>
       <r>    3.6448    1.0000 </r>
       <r>    4.9950    0.0000 </r>
       <r>    4.9950    0.0000 </r>
       <r>    7.2163    0.0000 </r>
       <r>    7.2163    0.0000 </r>
       <r>    8.5713    0.0000 </r>
       <r>    8.5713    0.0000 </r>
       <r>    8.9794    0.0000 </r>
       <r>    8.9795    0.0000 </r>
       <r>    9.7617    0.0000 </r>
       <r>    9.7745    0.0000 </r>
       <r>   10.1953    0.0000 </r>
       <r>   10.2592    0.0000 </r>
      </set>
      <set comment="kpoint 8">
       <r>  -10.9618    1.0000 </r>
       <r>  -10.9618    1.0000 </r>
       <r>  -10.9293    1.0000 </r>
       <r>  -10.8121    1.0000 </r>
       <r>  -10.6747    1.0000 </r>
       <r>  -10.6747    1.0000 </r>
       <r>  -10.6381    1.0000 </r>
       <r>  -10.6276    1.0000 </r>
       <r>  -10.6079    1.0000 </r>
       <r>  -10.5977    1.0000 </r>
       <r>   -9.5894    1.0000 </r>
       <r>   -8.9142    1.0000 </r>
       <r>   -8.5399    1.0000 </r>
       <r>   -8.5399    1.0000 </r>
       <r>   -2.2780    1.0000 </r>
       <r>   -2.0218    1.0000 </r>
       <r>   -0.6576    1.0000 </r>
       <r>    0.1755    1.0000 </r>
       <r>    0.4863    1.0000 </r>
       <r>    0.5436    1.0000 </r>
       <r>    0.5436    1.0000 </r>
       <r>    0.7543    1.0000 </r>
       <r>    0.7664    1.0000 </r>
       <r>    0.7664    1.0000 </r>
       <r>    1.0187    1.0000 </r>
       <r>    1.0187    1.0000 </r>
       <r>    1.9932    1.0000 </r>
       <r>    2.1165    1.0000 </r>
       <r>    2.1906    1.0000 </r>
       <r>    2.2879    1.0000 </r>
       <r>    2.5412    1.0000 </r>
       <r>    2.7775    1.0000 </r>
       <r>    2.7775    1.0000 </r>
       <r>    2.9648    1.0000 </r>
       <r>    3.5659    1.0000 </r>
       <r>    3.5659    1.0000 </r>
       <r>    5.5021    0.0000 </r>
       <r>    5.8841    0.0000 </r>
       <r>    6.3029    0.0000 </r>
       <r>    6.3137    0.0000 </r>
       <r>    6.3137    0.0000 </r>
       <r>    7.2288    0.0000 </r>
       <r>    8.0619    0.0000 </r>
       <r>    8.0959    0.0000 </r>
       <r>    9.7681    0.0000 </r>
       <r>    9.7681    0.0000 </r>
       <r>   11.6413    0.0000 </r>
       <r>   11.6751    0.0000 </r>
      </set>
      <set comment="kpoint 9">
       <r>  -10.9847    1.0000 </r>
       <r>  -10.9643    1.0000 </r>
       <r>  -10.8936    1.0000 </r>
       <r>  -10.8431    1.0000 </r>
       <r>  -10.6853    1.0000 </r>
       <r>  -10.6720    1.0000 </r>
       <r>  -10.6320    1.0000 </r>
       <r>  -10.6297    1.0000 </r>
       <r>  -10.6031    1.0000 </r>
       <r>  -10.6009    1.0000 </r>
       <r>   -9.2386    1.0000 </r>
       <r>   -9.0840    1.0000 </r>
       <r>   -8.7552    1.0000 </r>
       <r>   -8.5320    1.0000 </r>
       <r>   -2.0948    1.0000 </r>
       <r>   -1.9684    1.0000 </r>
       <r>   -0.5193    1.0000 </r>
[...]
        <r>  0.0006  0.0014  0.0038  0.0088  0.0574  0.0411  0.0049  0.0180  0.0174 </r>
        <r>  0.0006  0.0080  0.0038  0.0023  0.0623  0.0083  0.0049  0.0508  0.0126 </r>
        <r>  0.0003  0.0325  0.0026  0.0388  0.0001  0.0001  0.0001  0.0001  0.0002 </r>
        <r>  0.0001  0.0074  0.0258  0.0660  0.0000  0.0002  0.0001  0.0002  0.0001 </r>
        <r>  0.0001  0.0555  0.0258  0.0179  0.0000  0.0001  0.0001  0.0002  0.0001 </r>
        <r>  0.0003  0.0360  0.0026  0.0353  0.0001  0.0000  0.0001  0.0001  0.0001 </r>
       </set>
       <set comment="band 25">
        <r>  0.0004  0.0096  0.0033  0.0086  0.0002  0.0017  0.0001  0.0021  0.0024 </r>
        <r>  0.0004  0.0052  0.0033  0.0129  0.0004  0.0016  0.0001  0.0022  0.0021 </r>
        <r>  0.0011  0.0003  0.0018  0.0003  0.0057  0.0728  0.0035  0.0427  0.0615 </r>
        <r>  0.0011  0.0005  0.0018  0.0002  0.0146  0.0298  0.0035  0.0857  0.0525 </r>
        <r>  0.0000  0.0100  0.0138  0.0427  0.0000  0.0002  0.0001  0.0003  0.0000 </r>
        <r>  0.0000  0.0308  0.0153  0.0343  0.0000  0.0000  0.0000  0.0002  0.0004 </r>
        <r>  0.0000  0.0219  0.0153  0.0432  0.0000  0.0002  0.0000  0.0001  0.0004 </r>
        <r>  0.0000  0.0335  0.0138  0.0192  0.0000  0.0002  0.0001  0.0003  0.0000 </r>
       </set>
       <set comment="band 26">
        <r>  0.0003  0.0149  0.0103  0.0103  0.0055  0.0008  0.0004  0.0031  0.0010 </r>
        <r>  0.0003  0.0077  0.0103  0.0175  0.0034  0.0031  0.0004  0.0008  0.0030 </r>
        <r>  0.0012  0.0022  0.0019  0.0011  0.0334  0.0069  0.0049  0.0128  0.0182 </r>
        <r>  0.0012  0.0015  0.0019  0.0017  0.0486  0.0162  0.0049  0.0035  0.0031 </r>
        <r>  0.0001  0.0019  0.0554  0.0415  0.0003  0.0000  0.0000  0.0001  0.0002 </r>
        <r>  0.0000  0.0626  0.0278  0.0048  0.0000  0.0002  0.0001  0.0001  0.0000 </r>
        <r>  0.0000  0.0073  0.0278  0.0601  0.0001  0.0001  0.0001  0.0002  0.0000 </r>
        <r>  0.0001  0.0366  0.0554  0.0068  0.0003  0.0001  0.0000  0.0000  0.0001 </r>
       </set>
       <set comment="band 27">
        <r>  0.0037  0.0011  0.0009  0.0005  0.0000  0.0000  0.0000  0.0000  0.0000 </r>
        <r>  0.0037  0.0008  0.0009  0.0008  0.0000  0.0000  0.0000  0.0000  0.0000 </r>
        <r>  0.0000  0.0002  0.0003  0.0002  0.3099  0.0273  0.0193  0.0605  0.0288 </r>
        <r>  0.0000  0.0002  0.0003  0.0001  0.2091  0.0548  0.0193  0.0330  0.1296 </r>
        <r>  0.0002  0.0001  0.0002  0.0002  0.0007  0.0002  0.0001  0.0000  0.0012 </r>
        <r>  0.0001  0.0006  0.0006  0.0005  0.0001  0.0001  0.0006  0.0008  0.0000 </r>
        <r>  0.0001  0.0006  0.0006  0.0004  0.0001  0.0006  0.0006  0.0002  0.0001 </r>
        <r>  0.0002  0.0002  0.0002  0.0001  0.0013  0.0000  0.0001  0.0002  0.0005 </r>
       </set>
       <set comment="band 28">
        <r>  0.0003  0.0019  0.0021  0.0000  0.0003  0.0001  0.0000  0.0002  0.0001 </r>
        <r>  0.0003  0.0002  0.0021  0.0017  0.0002  0.0001  0.0000  0.0001  0.0002 </r>
        <r>  0.0000  0.0003  0.0004  0.0005  0.0084  0.0508  0.0217  0.1478  0.2083 </r>
        <r>  0.0000  0.0004  0.0004  0.0004  0.0099  0.1252  0.0217  0.0734  0.2067 </r>
        <r>  0.0003  0.0015  0.0020  0.0021  0.0002  0.0002  0.0003  0.0001  0.0003 </r>
        <r>  0.0001  0.0038  0.0004  0.0014  0.0004  0.0003  0.0001  0.0006  0.0001 </r>
        <r>  0.0001  0.0012  0.0004  0.0039  0.0003  0.0005  0.0001  0.0003  0.0002 </r>
        <r>  0.0003  0.0014  0.0020  0.0022  0.0000  0.0001  0.0003  0.0003  0.0005 </r>
       </set>
       <set comment="band 29">
        <r>  0.0049  0.0020  0.0038  0.0005  0.0000  0.0001  0.0002  0.0000  0.0001 </r>
        <r>  0.0049  0.0010  0.0038  0.0015  0.0001  0.0001  0.0002  0.0001  0.0000 </r>
        <r>  0.0006  0.0004  0.0007  0.0005  0.0081  0.0642  0.1309  0.1643  0.0613 </r>
        <r>  0.0006  0.0007  0.0007  0.0003  0.0234  0.1962  0.1309  0.0324  0.0460 </r>
        <r>  0.0001  0.0008  0.0043  0.0015  0.0003  0.0002  0.0007  0.0002  0.0001 </r>
        <r>  0.0002  0.0021  0.0005  0.0014  0.0008  0.0002  0.0001  0.0001  0.0000 </r>
        <r>  0.0002  0.0017  0.0005  0.0018  0.0006  0.0001  0.0001  0.0002  0.0002 </r>
        <r>  0.0001  0.0017  0.0043  0.0006  0.0002  0.0003  0.0007  0.0002  0.0002 </r>
       </set>
       <set comment="band 30">
        <r>  0.0011  0.0000  0.0013  0.0053  0.0001  0.0003  0.0005  0.0001  0.0000 </r>
        <r>  0.0011  0.0051  0.0013  0.0002  0.0001  0.0001  0.0005  0.0002  0.0000 </r>
        <r>  0.0034  0.0003  0.0006  0.0007  0.0285  0.1666  0.1209  0.0466  0.0550 </r>
        <r>  0.0034  0.0008  0.0006  0.0002  0.0041  0.0852  0.1209  0.1281  0.0794 </r>
        <r>  0.0005  0.0001  0.0075  0.0033  0.0006  0.0004  0.0000  0.0001  0.0001 </r>
        <r>  0.0001  0.0055  0.0021  0.0013  0.0001  0.0002  0.0009  0.0002  0.0000 </r>
        <r>  0.0001  0.0023  0.0021  0.0045  0.0002  0.0002  0.0009  0.0002  0.0000 </r>
        <r>  0.0005  0.0032  0.0075  0.0001  0.0005  0.0002  0.0000  0.0003  0.0002 </r>
       </set>
       <set comment="band 31">
        <r>  0.0034  0.0056  0.0006  0.0004  0.0003  0.0004  0.0002  0.0006  0.0001 </r>
        <r>  0.0034  0.0008  0.0006  0.0052  0.0003  0.0007  0.0002  0.0002  0.0001 </r>
        <r>  0.0038  0.0039  0.0015  0.0003  0.0525  0.0200  0.2148  0.0357  0.0478 </r>
        <r>  0.0038  0.0008  0.0015  0.0034  0.0806  0.0432  0.2148  0.0125  0.0197 </r>
        <r>  0.0020  0.0056  0.0044  0.0029  0.0003  0.0001  0.0004  0.0002  0.0003 </r>
        <r>  0.0019  0.0046  0.0076  0.0016  0.0003  0.0008  0.0006  0.0001  0.0005 </r>
        <r>  0.0019  0.0026  0.0076  0.0036  0.0001  0.0002  0.0006  0.0007  0.0006 </r>
        <r>  0.0020  0.0041  0.0044  0.0044  0.0004  0.0003  0.0004  0.0001  0.0001 </r>
       </set>
       <set comment="band 32">
        <r>  0.0254  0.0004  0.0010  0.0034  0.0003  0.0004  0.0004  0.0002  0.0001 </r>
        <r>  0.0254  0.0030  0.0010  0.0008  0.0004  0.0003  0.0004  0.0004  0.0000 </r>
        <r>  0.0025  0.0004  0.0013  0.0048  0.0107  0.1153  0.1736  0.0104  0.0290 </r>
        <r>  0.0025  0.0045  0.0013  0.0007  0.0028  0.0060  0.1736  0.1197  0.0369 </r>
        <r>  0.0045  0.0087  0.0018  0.0037  0.0001  0.0001  0.0002  0.0003  0.0001 </r>
        <r>  0.0096  0.0046  0.0074  0.0034  0.0001  0.0001  0.0001  0.0007  0.0001 </r>
        <r>  0.0096  0.0032  0.0074  0.0049  0.0001  0.0006  0.0001  0.0002  0.0002 </r>
        <r>  0.0045  0.0021  0.0018  0.0103  0.0000  0.0003  0.0002  0.0001  0.0002 </r>
       </set>
       <set comment="band 33">
        <r>  0.0002  0.0038  0.0055  0.0025  0.0003  0.0009  0.0001  0.0004  0.0010 </r>
        <r>  0.0002  0.0020  0.0055  0.0044  0.0006  0.0003  0.0001  0.0010  0.0007 </r>
        <r>  0.0002  0.0009  0.0060  0.0003  0.0262  0.1740  0.0189  0.0003  0.1172 </r>
        <r>  0.0002  0.0005  0.0060  0.0008  0.0796  0.0098  0.0189  0.1645  0.0639 </r>
        <r>  0.0007  0.0005  0.0121  0.0146  0.0000  0.0006  0.0000  0.0003  0.0002 </r>
        <r>  0.0009  0.0042  0.0167  0.0145  0.0001  0.0003  0.0002  0.0000  0.0002 </r>
        <r>  0.0009  0.0127  0.0167  0.0061  0.0001  0.0000  0.0002  0.0003  0.0002 </r>
        <r>  0.0007  0.0129  0.0121  0.0022  0.0000  0.0004  0.0000  0.0005  0.0002 </r>
       </set>
       <set comment="band 34">
        <r>  0.0066  0.0011  0.0060  0.0016  0.0014  0.0002  0.0000  0.0001  0.0000 </r>
        <r>  0.0066  0.0017  0.0060  0.0011  0.0014  0.0001  0.0000  0.0002  0.0001 </r>
        <r>  0.0027  0.0010  0.0011  0.0064  0.0253  0.0160  0.0537  0.1372  0.0916 </r>
        <r>  0.0027  0.0053  0.0011  0.0021  0.0528  0.1235  0.0537  0.0297  0.0641 </r>
        <r>  0.0067  0.0044  0.0105  0.0108  0.0000  0.0000  0.0001  0.0001  0.0005 </r>
        <r>  0.0017  0.0130  0.0041  0.0160  0.0003  0.0001  0.0001  0.0001  0.0001 </r>
        <r>  0.0017  0.0145  0.0041  0.0145  0.0002  0.0001  0.0001  0.0001  0.0001 </r>
        <r>  0.0067  0.0096  0.0105  0.0056  0.0000  0.0001  0.0001  0.0000  0.0006 </r>
       </set>
       <set comment="band 35">
        <r>  0.0036  0.0056  0.0026  0.0054  0.0021  0.0000  0.0001  0.0000  0.0004 </r>
        <r>  0.0036  0.0075  0.0026  0.0035  0.0025  0.0000  0.0001  0.0000  0.0000 </r>
        <r>  0.0004  0.0058  0.0061  0.0025  0.2011  0.0169  0.0043  0.0278  0.0031 </r>
        <r>  0.0004  0.0036  0.0061  0.0046  0.1806  0.0331  0.0043  0.0116  0.0236 </r>
        <r>  0.0000  0.0364  0.0150  0.0035  0.0004  0.0002  0.0005  0.0002  0.0001 </r>
        <r>  0.0011  0.0027  0.0279  0.0156  0.0004  0.0000  0.0009  0.0001  0.0002 </r>
        <r>  0.0011  0.0175  0.0279  0.0009  0.0003  0.0001  0.0009  0.0000  0.0003 </r>
        <r>  0.0000  0.0091  0.0150  0.0309  0.0003  0.0003  0.0005  0.0001  0.0002 </r>
       </set>
       <set comment="band 36">
        <r>  0.0001  0.0012  0.0007  0.0044  0.0001  0.0019  0.0000  0.0023  0.0029 </r>
        <r>  0.0001  0.0034  0.0007  0.0022  0.0003  0.0015  0.0000  0.0027  0.0027 </r>
        <r>  0.0000  0.0059  0.0006  0.0053  0.0069  0.0475  0.0011  0.0817  0.0809 </r>
        <r>  0.0000  0.0031  0.0006  0.0080  0.0023  0.0570  0.0011  0.0721  0.0854 </r>
        <r>  0.0010  0.0371  0.0023  0.0360  0.0001  0.0001  0.0001  0.0001  0.0005 </r>
        <r>  0.0008  0.0244  0.0029  0.0479  0.0001  0.0001  0.0002  0.0002  0.0002 </r>
        <r>  0.0008  0.0337  0.0029  0.0386  0.0003  0.0001  0.0002  0.0001  0.0001 </r>
        <r>  0.0010  0.0218  0.0023  0.0513  0.0003  0.0001  0.0001  0.0001  0.0003 </r>
       </set>
       <set comment="band 37">
        <r>  0.0790  0.0006  0.0121  0.0014  0.0002  0.0003  0.0002  0.0003  0.0000 </r>
        <r>  0.0790  0.0015  0.0121  0.0004  0.0002  0.0003  0.0002  0.0002  0.0000 </r>
        <r>  0.0093  0.0029  0.0058  0.0003  0.0069  0.0043  0.0127  0.0001  0.0007 </r>
        <r>  0.0093  0.0008  0.0058  0.0024  0.0073  0.0000  0.0127  0.0044  0.0003 </r>
        <r>  0.0164  0.0182  0.0179  0.0387  0.0006  0.0001  0.0006  0.0008  0.0002 </r>
        <r>  0.0188  0.0123  0.0250  0.0309  0.0003  0.0010  0.0010  0.0001  0.0001 </r>
        <r>  0.0188  0.0343  0.0250  0.0089  0.0002  0.0003  0.0010  0.0009  0.0002 </r>
        <r>  0.0164  0.0452  0.0179  0.0116  0.0007  0.0008  0.0006  0.0000  0.0000 </r>
       </set>
       <set comment="band 38">
        <r>  0.1047  0.0057  0.0064  0.0062  0.0019  0.0003  0.0005  0.0007  0.0000 </r>
        <r>  0.1047  0.0066  0.0064  0.0053  0.0017  0.0006  0.0005  0.0004  0.0002 </r>
        <r>  0.0001  0.0003  0.0035  0.0022  0.0138  0.0047  0.0100  0.0044  0.0009 </r>
        <r>  0.0001  0.0022  0.0035  0.0003  0.0143  0.0055  0.0100  0.0037  0.0004 </r>
        <r>  0.0088  0.0094  0.0369  0.0108  0.0019  0.0006  0.0023  0.0008  0.0005 </r>
        <r>  0.0065  0.0477  0.0038  0.0010  0.0045  0.0002  0.0004  0.0010  0.0000 </r>
        <r>  0.0065  0.0042  0.0038  0.0445  0.0038  0.0008  0.0004  0.0004  0.0007 </r>
        <r>  0.0088  0.0079  0.0369  0.0123  0.0024  0.0005  0.0023  0.0008  0.0000 </r>
       </set>
       <set comment="band 39">
        <r>  0.0096  0.0021  0.0335  0.0125  0.0072  0.0004  0.0039  0.0012  0.0002 </r>
        <r>  0.0096  0.0120  0.0335  0.0026  0.0068  0.0009  0.0039  0.0007  0.0005 </r>
        <r>  0.0191  0.0031  0.0048  0.0034  0.0078  0.0006  0.0025  0.0014  0.0004 </r>
        <r>  0.0191  0.0045  0.0048  0.0019  0.0077  0.0013  0.0025  0.0008  0.0005 </r>
        <r>  0.0096  0.0089  0.0141  0.0119  0.0024  0.0001  0.0033  0.0043  0.0000 </r>
        <r>  0.0081  0.0097  0.0067  0.0074  0.0022  0.0035  0.0020  0.0000  0.0007 </r>
        <r>  0.0081  0.0107  0.0067  0.0064  0.0029  0.0000  0.0020  0.0036  0.0000 </r>
        <r>  0.0096  0.0156  0.0141  0.0051  0.0020  0.0040  0.0033  0.0003  0.0004 </r>
       </set>
       <set comment="band 40">
        <r>  0.0130  0.0291  0.0284  0.0096  0.0003  0.0010  0.0022  0.0025  0.0001 </r>
        <r>  0.0130  0.0121  0.0284  0.0266  0.0003  0.0018  0.0022  0.0016  0.0001 </r>
        <r>  0.0351  0.0025  0.0023  0.0029  0.0009  0.0051  0.0054  0.0021  0.0003 </r>
        <r>  0.0351  0.0021  0.0023  0.0032  0.0008  0.0010  0.0054  0.0062  0.0004 </r>
        <r>  0.0189  0.0005  0.0048  0.0018  0.0000  0.0039  0.0058  0.0020  0.0000 </r>
        <r>  0.0153  0.0053  0.0191  0.0025  0.0002  0.0008  0.0013  0.0045  0.0000 </r>
        <r>  0.0153  0.0026  0.0191  0.0051  0.0002  0.0037  0.0013  0.0016  0.0000 </r>
        <r>  0.0189  0.0020  0.0048  0.0003  0.0000  0.0010  0.0058  0.0049  0.0000 </r>
       </set>
       <set comment="band 41">
        <r>  0.0093  0.0509  0.0011  0.0134  0.0040  0.0029  0.0033  0.0038  0.0010 </r>
        <r>  0.0093  0.0115  0.0011  0.0528  0.0023  0.0029  0.0033  0.0038  0.0027 </r>
        <r>  0.0087  0.0005  0.0016  0.0025  0.0004  0.0008  0.0043  0.0069  0.0007 </r>
        <r>  0.0087  0.0029  0.0016  0.0002  0.0001  0.0061  0.0043  0.0016  0.0010 </r>
        <r>  0.0017  0.0028  0.0097  0.0010  0.0008  0.0055  0.0013  0.0027  0.0012 </r>
        <r>  0.0011  0.0420  0.0067  0.0146  0.0027  0.0002  0.0028  0.0015  0.0040 </r>
        <r>  0.0011  0.0253  0.0067  0.0313  0.0006  0.0016  0.0028  0.0001  0.0061 </r>
        <r>  0.0017  0.0007  0.0097  0.0031  0.0010  0.0018  0.0013  0.0064  0.0010 </r>
       </set>
       <set comment="band 42">
        <r>  0.0070  0.0238  0.0006  0.0433  0.0025  0.0031  0.0027  0.0002  0.0020 </r>
        <r>  0.0070  0.0524  0.0006  0.0147  0.0028  0.0000  0.0027  0.0033  0.0017 </r>
        <r>  0.0342  0.0024  0.0015  0.0012  0.0037  0.0020  0.0008  0.0021  0.0050 </r>
        <r>  0.0343  0.0015  0.0015  0.0021  0.0069  0.0016  0.0008  0.0024  0.0018 </r>
        <r>  0.0059  0.0091  0.0161  0.0164  0.0018  0.0003  0.0012  0.0003  0.0031 </r>
        <r>  0.0065  0.0144  0.0061  0.0096  0.0068  0.0004  0.0030  0.0001  0.0063 </r>
        <r>  0.0065  0.0142  0.0061  0.0097  0.0104  0.0001  0.0030  0.0004  0.0027 </r>
        <r>  0.0059  0.0207  0.0161  0.0048  0.0003  0.0002  0.0012  0.0004  0.0046 </r>
       </set>
       <set comment="band 43">
        <r>  0.0059  0.0094  0.0235  0.0814  0.0004  0.0010  0.0006  0.0014  0.0050 </r>
        <r>  0.0059  0.0731  0.0235  0.0178  0.0004  0.0018  0.0006  0.0006  0.0050 </r>
        <r>  0.0075  0.0064  0.0010  0.0035  0.0029  0.0004  0.0013  0.0016  0.0006 </r>
        <r>  0.0075  0.0027  0.0010  0.0072  0.0017  0.0019  0.0013  0.0002  0.0018 </r>
        <r>  0.0033  0.0045  0.0205  0.0078  0.0013  0.0011  0.0017  0.0033  0.0015 </r>
        <r>  0.0081  0.0002  0.0007  0.0007  0.0010  0.0035  0.0019  0.0036  0.0117 </r>
        <r>  0.0081  0.0005  0.0007  0.0004  0.0040  0.0026  0.0019  0.0046  0.0087 </r>
        <r>  0.0033  0.0086  0.0205  0.0037  0.0005  0.0039  0.0017  0.0005  0.0024 </r>
       </set>
       <set comment="band 44">
        <r>  0.0076  0.0129  0.0605  0.0094  0.0009  0.0010  0.0002  0.0006  0.0001 </r>
        <r>  0.0076  0.0100  0.0605  0.0123  0.0008  0.0005  0.0002  0.0012  0.0001 </r>
        <r>  0.0168  0.0051  0.0107  0.0007  0.0003  0.0014  0.0075  0.0024  0.0002 </r>
        <r>  0.0168  0.0012  0.0107  0.0047  0.0002  0.0031  0.0075  0.0007  0.0002 </r>
        <r>  0.0011  0.0064  0.0288  0.0040  0.0001  0.0028  0.0087  0.0047  0.0003 </r>
        <r>  0.0025  0.0081  0.0102  0.0016  0.0039  0.0042  0.0087  0.0002  0.0004 </r>
        <r>  0.0025  0.0022  0.0102  0.0075  0.0036  0.0001  0.0087  0.0042  0.0007 </r>
        <r>  0.0011  0.0060  0.0288  0.0043  0.0001  0.0053  0.0087  0.0022  0.0003 </r>
       </set>
       <set comment="band 45">
        <r>  0.0022  0.0340  0.0213  0.0049  0.0019  0.0010  0.0011  0.0009  0.0019 </r>
        <r>  0.0022  0.0099  0.0213  0.0290  0.0026  0.0007  0.0011  0.0012  0.0013 </r>
        <r>  0.0155  0.0191  0.0011  0.0116  0.0030  0.0037  0.0002  0.0003  0.0017 </r>
        <r>  0.0156  0.0176  0.0011  0.0131  0.0034  0.0008  0.0002  0.0032  0.0013 </r>
        <r>  0.0013  0.0042  0.0086  0.0103  0.0150  0.0004  0.0008  0.0006  0.0084 </r>
        <r>  0.0000  0.0122  0.0034  0.0128  0.0081  0.0010  0.0009  0.0002  0.0030 </r>
        <r>  0.0000  0.0174  0.0034  0.0077  0.0050  0.0002  0.0009  0.0010  0.0061 </r>
        <r>  0.0013  0.0098  0.0087  0.0046  0.0203  0.0007  0.0008  0.0002  0.0030 </r>
       </set>
       <set comment="band 46">
        <r>  0.0002  0.0166  0.0038  0.0188  0.0005  0.0033  0.0012  0.0034  0.0001 </r>
        <r>  0.0002  0.0125  0.0038  0.0229  0.0006  0.0047  0.0012  0.0020  0.0000 </r>
        <r>  0.0539  0.0164  0.0001  0.0201  0.0009  0.0025  0.0001  0.0004  0.0021 </r>
        <r>  0.0539  0.0130  0.0001  0.0235  0.0009  0.0001  0.0001  0.0028  0.0021 </r>
        <r>  0.0009  0.0181  0.0056  0.0061  0.0096  0.0056  0.0005  0.0017  0.0108 </r>
        <r>  0.0036  0.0037  0.0081  0.0045  0.0019  0.0044  0.0009  0.0087  0.0013 </r>
        <r>  0.0036  0.0052  0.0081  0.0030  0.0012  0.0079  0.0009  0.0051  0.0020 </r>
        <r>  0.0009  0.0069  0.0056  0.0173  0.0053  0.0009  0.0005  0.0064  0.0150 </r>
       </set>
       <set comment="band 47">
        <r>  0.0112  0.0330  0.0016  0.0107  0.0005  0.0001  0.0005  0.0014  0.0053 </r>
        <r>  0.0110  0.0041  0.0020  0.0392  0.0021  0.0014  0.0006  0.0002  0.0038 </r>
        <r>  0.0252  0.0108  0.0103  0.0030  0.0003  0.0006  0.0008  0.0001  0.0027 </r>
        <r>  0.0247  0.0050  0.0101  0.0079  0.0001  0.0001  0.0008  0.0007  0.0031 </r>
        <r>  0.0059  0.0034  0.0062  0.0249  0.0041  0.0010  0.0016  0.0062  0.0006 </r>
        <r>  0.0017  0.0092  0.0209  0.0243  0.0003  0.0053  0.0094  0.0019  0.0008 </r>
        <r>  0.0017  0.0188  0.0216  0.0152  0.0000  0.0029  0.0087  0.0043  0.0012 </r>
        <r>  0.0055  0.0253  0.0061  0.0042  0.0036  0.0076  0.0017  0.0002  0.0009 </r>
       </set>
       <set comment="band 48">
        <r>  0.0018  0.0029  0.0153  0.0021  0.0004  0.0009  0.0013  0.0008  0.0020 </r>
        <r>  0.0019  0.0032  0.0149  0.0020  0.0003  0.0008  0.0014  0.0006  0.0021 </r>
        <r>  0.0178  0.0072  0.0021  0.0308  0.0027  0.0033  0.0019  0.0018  0.0038 </r>
        <r>  0.0182  0.0276  0.0018  0.0123  0.0011  0.0024  0.0020  0.0027  0.0051 </r>
        <r>  0.0001  0.0134  0.0083  0.0032  0.0054  0.0095  0.0030  0.0013  0.0091 </r>
        <r>  0.0022  0.0109  0.0241  0.0011  0.0005  0.0053  0.0006  0.0122  0.0003 </r>
        <r>  0.0023  0.0004  0.0256  0.0118  0.0006  0.0132  0.0007  0.0030  0.0001 </r>
        <r>  0.0001  0.0051  0.0089  0.0102  0.0075  0.0029  0.0031  0.0074  0.0075 </r>
       </set>
      </set>
     </set>
    </set>
   </array>
  </projected>
 </calculation>
 <structure name="finalpos" >
  <crystal>
   <varray name="basis" >
    <v>       5.30291920       0.00000000      -2.36402939 </v>
    <v>      -1.05387957       5.19714218      -2.36402972 </v>
    <v>       0.00000000       0.00000000       7.12968660 </v>
   </varray>
   <i name="volume">    196.49434127 </i>
   <varray name="rec_basis" >
    <v>       0.18857538       0.03823943       0.00000000 </v>
    <v>       0.00000000       0.19241344       0.00000000 </v>
    <v>       0.06252698       0.07647885       0.14025862 </v>
   </varray>
  </crystal>
  <varray name="positions" >
   <v>       0.50000000       0.50000000       0.00000000 </v>
   <v>       0.75000000       0.25000000       0.50000000 </v>
   <v>       0.00000000       0.00000000       0.00000000 </v>
   <v>       0.25000000       0.75000000       0.50000000 </v>
   <v>       0.34516103       0.37500000       0.25000000 </v>
   <v>       0.90483897       0.87500000       0.25000000 </v>
   <v>       0.12500000       0.65483897       0.75000000 </v>
   <v>       0.62500000       0.09516103       0.75000000 </v>
  </varray>
 </structure>
</modeling>
