 vasp.6.4.2 20Jul23 (build Mar 15 2024 16:31:38) complex                        
  
 executed on             LinuxIFC date 2025.03.04  19:46:52
 running  120 mpi-ranks, on    3 nodes
 distrk:  each k-point on  120 cores,    1 groups
 distr:  one band on NCORE=  10 cores,   12 groups


--------------------------------------------------------------------------------------------------------


 INCAR:
   ALGO = Normal
   EDIFF = 1e-05
   ENAUG = 1360
   ENCUT = 680
   GGA = Pe
   HFSCREEN = 0.2
   ISMEAR = -5
   ISPIN = 2
   LAECHG = True
   LASPH = True
   LCHARG = True
   LDAU = False
   LELF = False
   LHFCALC = True
   LMAXMIX = 4
   LMIXTAU = True
   LORBIT = 11
   LREAL = False
   LVTOT = True
   LWAVE = True
   MAGMOM = 8*0.0
   NCORE = 10
   NELM = 200
   NSW = 0
   PREC = Accurate
   PRECFOCK = Fast
   SIGMA = 0.2

 POTCAR:    PAW_PBE Ga_d 06Jul2010                
 POTCAR:    PAW_PBE As 22Sep2009                  
 WARNING: For LVTOT=.TRUE., VASP.5.x writes the TOTAL local potential to the
     file LOCPOT. If you want only the Hartree contributions, use LVHAR=.TRUE.
     instead. 

 POTCAR:    PAW_PBE Ga_d 06Jul2010                
   VRHFIN =Ga: s2p1                                                                                 
   LEXCH  = PE                                                                                      
   EATOM  =  2148.8298 eV,  157.9345 Ry                                                             
                                                                                                    
   TITEL  = PAW_PBE Ga_d 06Jul2010                                                                  
   LULTRA =        F    use ultrasoft PP ?                                                          
   IUNSCR =        1    unscreen: 0-lin 1-nonlin 2-no                                               
   RPACOR =    1.700    partial core radius                                                         
   POMASS =   69.723; ZVAL   =   13.000    mass and valenz                                          
   RCORE  =    2.300    outmost cutoff radius                                                       
   RWIGS  =    2.300; RWIGS  =    1.217    wigner-seitz radius (au A)                               
   ENMAX  =  282.691; ENMIN  =  212.018 eV                                                          
   ICORE  =        3    local potential                                                             
   LCOR   =        T    correct aug charges                                                         
   LPAW   =        T    paw PP                                                                      
   EAUG   =  490.690                                                                                
   DEXC   =    0.000                                                                                
   RMAX   =    2.341    core radius for proj-oper                                                   
   RAUG   =    1.300    factor for augmentation sphere                                              
   RDEP   =    2.413    radius for radial grids                                                     
   RDEPT  =    1.856    core radius for aug-charge                                                  
                                                                                                    
   Atomic configuration                                                                             
    9 entries                                                                                       
     n  l   j            E        occ.                                                              
     1  0  0.50    -10228.7831   2.0000                                                             
     2  0  0.50     -1262.1604   2.0000                                                             
     2  1  1.50     -1098.6333   6.0000                                                             
     3  0  0.50      -148.1110   2.0000                                                             
     3  1  1.50       -98.8436   6.0000                                                             
     3  2  2.50       -19.1549  10.0000                                                             
     4  0  0.50        -8.9483   2.0000                                                             
     4  1  0.50        -2.5791   1.0000                                                             
     4  3  2.50        -2.7416   0.0000                                                             
   Description                                                                                      
     l       E           TYP  RCUT    TYP  RCUT                                                     
     2    -19.1549037     23  2.300                                                                 
     2     -5.4423304     23  2.300                                                                 
     0     -8.9483111     23  2.300                                                                 
     0     68.0291300     23  2.300                                                                 
     1     -2.5790802     23  2.100                                                                 
     1     81.6349560     23  2.300                                                                 
     3      6.8029130     23  2.300                                                                 
  local pseudopotential read in
  partial core-charges read in
  partial kinetic energy density read in
  atomic valenz-charges read in
  non local Contribution for L=           2  read in
    real space projection operators read in
  non local Contribution for L=           2  read in
    real space projection operators read in
  non local Contribution for L=           0  read in
    real space projection operators read in
  non local Contribution for L=           0  read in
    real space projection operators read in
  non local Contribution for L=           1  read in
    real space projection operators read in
  non local Contribution for L=           1  read in
    real space projection operators read in
    PAW grid and wavefunctions read in
 
   number of l-projection  operators is LMAX  =           6
   number of lm-projection operators is LMMAX =          18
 
 POTCAR:    PAW_PBE As 22Sep2009                  
   VRHFIN =As: s2p3                                                                                 
   LEXCH  = PE                                                                                      
   EATOM  =   170.1867 eV,   12.5084 Ry                                                             
                                                                                                    
   TITEL  = PAW_PBE As 22Sep2009                                                                    
   LULTRA =        F    use ultrasoft PP ?                                                          
   IUNSCR =        1    unscreen: 0-lin 1-nonlin 2-no                                               
   RPACOR =    1.900    partial core radius                                                         
   POMASS =   74.922; ZVAL   =    5.000    mass and valenz                                          
   RCORE  =    2.100    outmost cutoff radius                                                       
   RWIGS  =    2.300; RWIGS  =    1.217    wigner-seitz radius (au A)                               
   ENMAX  =  208.702; ENMIN  =  156.526 eV                                                          
   ICORE  =        3    local potential                                                             
   LCOR   =        T    correct aug charges                                                         
   LPAW   =        T    paw PP                                                                      
   EAUG   =  462.758                                                                                
   DEXC   =    0.000                                                                                
   RMAX   =    2.144    core radius for proj-oper                                                   
   RAUG   =    1.300    factor for augmentation sphere                                              
   RDEP   =    2.140    radius for radial grids                                                     
   RDEPT  =    1.956    core radius for aug-charge                                                  
                                                                                                    
   Atomic configuration                                                                             
   10 entries                                                                                       
     n  l   j            E        occ.                                                              
     1  0  0.50    -11718.0418   2.0000                                                             
     2  0  0.50     -1486.5454   2.0000                                                             
     2  1  1.50     -1303.3889   6.0000                                                             
     3  0  0.50      -190.2849   2.0000                                                             
     3  1  1.50      -133.6555   6.0000                                                             
     3  2  2.50       -40.6443  10.0000                                                             
     4  0  0.50       -14.4936   2.0000                                                             
     4  1  0.50        -5.1947   3.0000                                                             
     4  2  1.50        -5.4423   0.0000                                                             
     4  3  2.50        -5.4423   0.0000                                                             
   Description                                                                                      
     l       E           TYP  RCUT    TYP  RCUT                                                     
     0    -14.4935570     23  2.100                                                                 
     0    -11.9212055     23  2.100                                                                 
     1     -5.1947127     23  2.100                                                                 
     1     27.2116520     23  2.100                                                                 
     2     -5.4423304     23  2.100                                                                 
     3     -1.3605826      7  2.100                                                                 
  local pseudopotential read in
  partial core-charges read in
  partial kinetic energy density read in
  atomic valenz-charges read in
  non local Contribution for L=           0  read in
    real space projection operators read in
  non local Contribution for L=           0  read in
    real space projection operators read in
  non local Contribution for L=           1  read in
    real space projection operators read in
  non local Contribution for L=           1  read in
    real space projection operators read in
  non local Contribution for L=           2  read in
    real space projection operators read in
    PAW grid and wavefunctions read in
 
   number of l-projection  operators is LMAX  =           5
   number of lm-projection operators is LMMAX =          13
 
  PAW_PBE Ga_d 06Jul2010                :
 energy of atom  1       EATOM=-2148.8298
 kinetic energy error for atom=    0.0008 (will be added to EATOM!!)
  PAW_PBE As 22Sep2009                  :
 energy of atom  2       EATOM= -170.1867
 kinetic energy error for atom=    0.0003 (will be added to EATOM!!)
 
 
 POSCAR: Ga4 As4
  positions in direct lattice
  No initial velocities read in
 exchange correlation table for  LEXCH =        8
   RHO(1)=    0.500       N(1)  =     2000
   RHO(2)=  100.500       N(2)  =     4000
 


--------------------------------------------------------------------------------------------------------


 ion  position               nearest neighbor table
   1  0.000  0.000  0.000-   5 2.45   6 2.45   7 2.45   8 2.45
   2  0.500  0.500  0.000-   5 2.45   6 2.45   7 2.45   8 2.45
   3  0.500  0.000  0.500-   5 2.45   6 2.45   7 2.45   8 2.45
   4  0.000  0.500  0.500-   5 2.45   6 2.45   7 2.45   8 2.45
   5  0.250  0.250  0.250-   1 2.45   2 2.45   3 2.45   4 2.45
   6  0.250  0.750  0.750-   1 2.45   2 2.45   3 2.45   4 2.45
   7  0.750  0.750  0.250-   1 2.45   2 2.45   3 2.45   4 2.45
   8  0.750  0.250  0.750-   1 2.45   2 2.45   3 2.45   4 2.45
 
  LATTYP: Found a simple cubic cell.
 ALAT       =     5.6628930285
  
  Lattice vectors:
  
 A1 = (   5.6628930285,   0.0000000000,   0.0000000000)
 A2 = (  -0.0000000000,   5.6628930285,   0.0000000000)
 A3 = (   0.0000000000,   0.0000000000,   5.6628930285)


Analysis of symmetry for initial positions (statically):
=====================================================================
 Subroutine PRICEL returns following result:
 
  LATTYP: Found a face centered cubic cell.
 ALAT       =     5.6628930285
  
  Lattice vectors:
  
 A1 = (   2.8314465143,  -2.8314465143,   0.0000000000)
 A2 = (   2.8314465143,   0.0000000000,   2.8314465143)
 A3 = (   0.0000000000,  -2.8314465143,   2.8314465143)
 
   4 primitive cells build up your supercell.
 

 Routine SETGRP: Setting up the symmetry group for a 
 simple cubic supercell.


 Subroutine GETGRP returns: Found 24 space group operations
 (whereof 24 operations were pure point group operations)
 out of a pool of 48 trial point group operations.


The static configuration has the point symmetry T_d .


Analysis of symmetry for dynamics (positions and initial velocities):
=====================================================================
 Subroutine PRICEL returns following result:
 
  LATTYP: Found a face centered cubic cell.
 ALAT       =     5.6628930285
  
  Lattice vectors:
  
 A1 = (   2.8314465143,  -2.8314465143,   0.0000000000)
 A2 = (   2.8314465143,   0.0000000000,   2.8314465143)
 A3 = (   0.0000000000,  -2.8314465143,   2.8314465143)
 
   4 primitive cells build up your supercell.
 

 Routine SETGRP: Setting up the symmetry group for a 
 simple cubic supercell.


 Subroutine GETGRP returns: Found 24 space group operations
 (whereof 24 operations were pure point group operations)
 out of a pool of 48 trial point group operations.


The dynamic configuration has the point symmetry T_d .


Analysis of structural, dynamic, and magnetic symmetry:
=====================================================================
 Subroutine PRICEL returns following result:
 
  LATTYP: Found a face centered cubic cell.
 ALAT       =     5.6628930285
  
  Lattice vectors:
  
 A1 = (   2.8314465143,  -2.8314465143,   0.0000000000)
 A2 = (   2.8314465143,   0.0000000000,   2.8314465143)
 A3 = (   0.0000000000,  -2.8314465143,   2.8314465143)
 
   4 primitive cells build up your supercell.
 

 Routine SETGRP: Setting up the symmetry group for a 
 simple cubic supercell.


 Subroutine GETGRP returns: Found 24 space group operations
 (whereof 24 operations were pure point group operations)
 out of a pool of 48 trial point group operations.


The overall configuration has the point symmetry T_d .


 Subroutine INISYM returns: Found 24 space group operations
 (whereof 24 operations are pure point group operations),
 and found     4 'primitive' translations


----------------------------------------------------------------------------------------

                                     Primitive cell                                     

  volume of cell :      45.3999

  direct lattice vectors                    reciprocal lattice vectors
     2.831446514 -2.831446514  0.000000000     0.176588185 -0.176588185 -0.176588185
     2.831446514  0.000000000  2.831446514     0.176588185  0.176588185  0.176588185
     0.000000000 -2.831446514  2.831446514    -0.176588185 -0.176588185  0.176588185

  length of vectors
     4.004270062  4.004270062  4.004270062     0.305859708  0.305859708  0.305859708

  position of ions in fractional coordinates (direct lattice)
     0.000000000  0.000000000  0.000000000
     0.750000000  0.750000000  0.750000000

  ion indices of the primitive-cell ions
   primitive index   ion index
                 1           1
                 2           5

----------------------------------------------------------------------------------------

 
 
 KPOINTS: pymatgen with grid density = 699 / numbe

Automatic generation of k-mesh.
 Grid dimensions read from file:
 generate k-points for:    4    4    4

 Generating k-lattice:

  Cartesian coordinates                     Fractional coordinates (reciprocal lattice)
     0.044147046  0.000000000  0.000000000     0.250000000  0.000000000  0.000000000
     0.000000000  0.044147046  0.000000000     0.000000000  0.250000000  0.000000000
    -0.000000000 -0.000000000  0.044147046    -0.000000000 -0.000000000  0.250000000

  Length of vectors
     0.044147046  0.044147046  0.044147046

  Shift w.r.t. Gamma in fractional coordinates (k-lattice)
     0.000000000  0.000000000  0.000000000

 TETIRR: Found     30 inequivalent tetrahedra from      384
 
 Subroutine IBZKPT returns following result:
 ===========================================
 
 Found     10 irreducible k-points:
 
 Following reciprocal coordinates:
            Coordinates               Weight
  0.000000  0.000000  0.000000      1.000000
  0.250000  0.000000  0.000000      6.000000
  0.500000  0.000000  0.000000      3.000000
  0.250000  0.250000  0.000000     12.000000
  0.500000  0.250000  0.000000     12.000000
  0.500000  0.500000  0.000000      3.000000
  0.250000  0.250000  0.250000      8.000000
  0.500000  0.250000  0.250000     12.000000
  0.500000  0.500000  0.250000      6.000000
  0.500000  0.500000  0.500000      1.000000
 
 Following cartesian coordinates:
            Coordinates               Weight
  0.000000  0.000000  0.000000      1.000000
  0.044147  0.000000  0.000000      6.000000
  0.088294  0.000000  0.000000      3.000000
  0.044147  0.044147  0.000000     12.000000
  0.088294  0.044147  0.000000     12.000000
  0.088294  0.088294  0.000000      3.000000
  0.044147  0.044147  0.044147      8.000000
  0.088294  0.044147  0.044147     12.000000
  0.088294  0.088294  0.044147      6.000000
  0.088294  0.088294  0.088294      1.000000
 
 
 Subroutine IBZKPT_HF returns following result:
 ==============================================
 
 Found     64 k-points in 1st BZ
 the following     64 k-points will be used (e.g. in the exchange kernel)
 Following reciprocal coordinates:   # in IRBZ
  0.000000  0.000000  0.000000    0.01562500   1 t-inv F
  0.250000  0.000000  0.000000    0.01562500   2 t-inv F
  0.500000  0.000000  0.000000    0.01562500   3 t-inv F
  0.250000  0.250000  0.000000    0.01562500   4 t-inv F
  0.500000  0.250000  0.000000    0.01562500   5 t-inv F
  0.500000  0.500000  0.000000    0.01562500   6 t-inv F
  0.250000  0.250000  0.250000    0.01562500   7 t-inv F
  0.500000  0.250000  0.250000    0.01562500   8 t-inv F
  0.500000  0.500000  0.250000    0.01562500   9 t-inv F
  0.500000  0.500000  0.500000    0.01562500  10 t-inv F
  0.000000  0.250000  0.000000    0.01562500   2 t-inv F
  0.000000  0.000000  0.250000    0.01562500   2 t-inv F
  0.000000 -0.250000  0.000000    0.01562500   2 t-inv F
  0.000000 -0.000000 -0.250000    0.01562500   2 t-inv F
 -0.250000 -0.000000  0.000000    0.01562500   2 t-inv F
  0.000000  0.500000  0.000000    0.01562500   3 t-inv F
  0.000000  0.000000  0.500000    0.01562500   3 t-inv F
  0.000000  0.250000  0.250000    0.01562500   4 t-inv F
  0.250000  0.000000  0.250000    0.01562500   4 t-inv F
  0.250000 -0.250000  0.000000    0.01562500   4 t-inv F
  0.250000  0.000000 -0.250000    0.01562500   4 t-inv F
  0.000000 -0.250000 -0.250000    0.01562500   4 t-inv F
 -0.250000 -0.250000  0.000000    0.01562500   4 t-inv F
  0.000000 -0.250000  0.250000    0.01562500   4 t-inv F
 -0.250000  0.000000  0.250000    0.01562500   4 t-inv F
 -0.250000  0.250000  0.000000    0.01562500   4 t-inv F
 -0.250000  0.000000 -0.250000    0.01562500   4 t-inv F
  0.000000  0.250000 -0.250000    0.01562500   4 t-inv F
  0.000000  0.500000  0.250000    0.01562500   5 t-inv F
  0.250000  0.000000  0.500000    0.01562500   5 t-inv F
  0.250000 -0.500000  0.000000    0.01562500   5 t-inv F
  0.500000  0.000000 -0.250000    0.01562500   5 t-inv F
  0.000000 -0.250000 -0.500000    0.01562500   5 t-inv F
 -0.500000 -0.250000  0.000000    0.01562500   5 t-inv F
 -0.250000  0.000000  0.500000    0.01562500   5 t-inv F
 -0.250000  0.500000  0.000000    0.01562500   5 t-inv F
  0.000000  0.250000 -0.500000    0.01562500   5 t-inv F
  0.000000 -0.500000 -0.250000    0.01562500   5 t-inv F
 -0.500000  0.000000  0.250000    0.01562500   5 t-inv F
  0.000000  0.500000  0.500000    0.01562500   6 t-inv F
  0.500000  0.000000  0.500000    0.01562500   6 t-inv F
  0.250000 -0.250000 -0.250000    0.01562500   7 t-inv F
 -0.250000 -0.250000  0.250000    0.01562500   7 t-inv F
 -0.250000  0.250000 -0.250000    0.01562500   7 t-inv F
  0.250000  0.500000  0.250000    0.01562500   8 t-inv F
  0.250000  0.250000  0.500000    0.01562500   8 t-inv F
  0.250000 -0.500000 -0.250000    0.01562500   8 t-inv F
  0.500000 -0.250000 -0.250000    0.01562500   8 t-inv F
  0.250000 -0.250000 -0.500000    0.01562500   8 t-inv F
 -0.500000 -0.250000  0.250000    0.01562500   8 t-inv F
 -0.250000 -0.500000  0.250000    0.01562500   8 t-inv F
 -0.250000 -0.250000  0.500000    0.01562500   8 t-inv F
 -0.250000  0.500000 -0.250000    0.01562500   8 t-inv F
 -0.500000  0.250000 -0.250000    0.01562500   8 t-inv F
 -0.250000  0.250000 -0.500000    0.01562500   8 t-inv F
  0.250000  0.500000  0.500000    0.01562500   9 t-inv F
  0.500000  0.250000  0.500000    0.01562500   9 t-inv F
  0.500000 -0.500000 -0.250000    0.01562500   9 t-inv F
  0.500000 -0.250000 -0.500000    0.01562500   9 t-inv F
 -0.250000 -0.500000  0.500000    0.01562500   9 t-inv F
 -0.250000 -0.250000 -0.250000    0.01562500   7 t-inv T
 -0.250000  0.250000  0.250000    0.01562500   7 t-inv T
  0.250000  0.250000 -0.250000    0.01562500   7 t-inv T
  0.250000 -0.250000  0.250000    0.01562500   7 t-inv T


--------------------------------------------------------------------------------------------------------




 Dimension of arrays:
   k-points           NKPTS =     10   k-points in BZ     NKDIM =     64   number of bands    NBANDS=     48
   number of dos      NEDOS =    301   number of ions     NIONS =      8
   non local maximal  LDIM  =      6   non local SUM 2l+1 LMDIM =     18
   total plane-waves  NPLWV = 110592
   max r-space proj   IRMAX =      1   max aug-charges    IRDMAX=  25396
   dimension x,y,z NGX =    48 NGY =   48 NGZ =   48
   dimension x,y,z NGXF=    96 NGYF=   96 NGZF=   96
   support grid    NGXF=    96 NGYF=   96 NGZF=   96
   ions per type =               4   4
   NGX,Y,Z   is equivalent  to a cutoff of  14.09, 14.09, 14.09 a.u.
   NGXF,Y,Z  is equivalent  to a cutoff of  28.18, 28.18, 28.18 a.u.

 SYSTEM =  unknown system                          
 POSCAR =  Ga4 As4                                 

 Startparameter for this run:
   NWRITE =      2    write-flag & timer
   PREC   = accura    normal or accurate (medium, high low for compatibility)
   ISTART =      0    job   : 0-new  1-cont  2-samecut
   ICHARG =      2    charge: 1-file 2-atom 10-const
   ISPIN  =      2    spin polarized calculation?
   LNONCOLLINEAR =      F non collinear calculations
   LSORBIT =      F    spin-orbit coupling
   INIWAV =      1    electr: 0-lowe 1-rand  2-diag
   LASPH  =      T    aspherical Exc in radial PAW
 Electronic Relaxation 1
   ENCUT  =  680.0 eV  49.98 Ry    7.07 a.u.  12.04 12.04 12.04*2*pi/ulx,y,z
   ENINI  =  680.0     initial cutoff
   ENAUG  = 1360.0 eV  augmentation charge cutoff
   NELM   =    200;   NELMIN=  2; NELMDL= -5     # of ELM steps 
   EDIFF  = 0.1E-04   stopping-criterion for ELM
   LREAL  =      F    real-space projection
   NLSPLINE    = F    spline interpolate recip. space projectors
   LCOMPAT=      F    compatible to vasp.4.4
   GGA_COMPAT  = T    GGA compatible to vasp.4.4-vasp.4.6
   LMAXPAW     = -100 max onsite density
   LMAXMIX     =    4 max onsite mixed and CHGCAR
   VOSKOWN=      0    Vosko Wilk Nusair interpolation
   ROPT   =    0.00000   0.00000
 Ionic relaxation
   EDIFFG = 0.1E-03   stopping-criterion for IOM
   NSW    =      0    number of steps for IOM
   NBLOCK =      1;   KBLOCK =      1    inner block; outer block 
   IBRION =     -1    ionic relax: 0-MD 1-quasi-New 2-CG
   NFREE  =      0    steps in history (QN), initial steepest desc. (CG)
   ISIF   =      0    stress and relaxation
   IWAVPR =     10    prediction:  0-non 1-charg 2-wave 3-comb
   ISYM   =      3    0-nonsym 1-usesym 2-fastsym
   LCORR  =      T    Harris-Foulkes like correction to forces

   POTIM  = 0.5000    time-step for ionic-motion
   TEIN   =    0.0    initial temperature
   TEBEG  =    0.0;   TEEND  =   0.0 temperature during run
   SMASS  =  -3.00    Nose mass-parameter (am)
   estimated Nose-frequenzy (Omega)   =  0.10E-29 period in steps = 0.13E+47 mass=  -0.733E-27a.u.
   SCALEE = 1.0000    scale energy and forces
   NPACO  =    256;   APACO  = 10.0  distance and # of slots for P.C.
   PSTRESS=    0.0 pullay stress

  Mass of Ions in am
   POMASS =  69.72 74.92
  Ionic Valenz
   ZVAL   =  13.00  5.00
  Atomic Wigner-Seitz radii
   RWIGS  =  -1.00 -1.00
  virtual crystal weights 
   VCA    =   1.00  1.00
   NELECT =      72.0000    total number of electrons
   NUPDOWN=      -1.0000    fix difference up-down

 DOS related values:
   EMIN   =  10.00;   EMAX   =-10.00  energy-range for DOS
   EFERMI =   0.00;   METHOD = LEGACY      
   ISMEAR =    -5;   SIGMA  =   0.20  broadening in eV -4-tet -1-fermi 0-gaus

 Electronic relaxation 2 (details)
   IALGO  =     38    algorithm
   LDIAG  =      T    sub-space diagonalisation (order eigenvalues)
   LSUBROT=      F    optimize rotation matrix (better conditioning)
   TURBO    =      0    0=normal 1=particle mesh
   IRESTART =      0    0=no restart 2=restart with 2 vectors
   NREBOOT  =      0    no. of reboots
   NMIN     =      0    reboot dimension
   EREF     =   0.00    reference energy to select bands
   IMIX   =      1    mixing-type and parameters
     AMIX     =   0.40;   BMIX     =  1.00
     AMIX_MAG =   1.60;   BMIX_MAG =  1.00
     AMIN     =   0.10
     WC   =   100.;   INIMIX=   1;  MIXPRE=   1;  MAXMIX= -45

 Intra band minimization:
   WEIMIN = 0.0000     energy-eigenvalue tresh-hold
   EBREAK =  0.52E-07  absolut break condition
   DEPER  =   0.30     relativ break condition  

   TIME   =   0.40     timestep for ELM

  volume/ion in A,a.u.               =      22.70       153.19
  Fermi-wavevector in a.u.,A,eV,Ry     =   1.202672  2.272721 19.679748  1.446421
  Thomas-Fermi vector in A             =   2.338447
 
 Write flags
   LWAVE        =      T    write WAVECAR
   LDOWNSAMPLE  =      F    k-point downsampling of WAVECAR
   LCHARG       =      T    write CHGCAR
   LVTOT        =      T    write LOCPOT, total local potential
   LVHAR        =      F    write LOCPOT, Hartree potential only
   LELF         =      F    write electronic localiz. function (ELF)
   LORBIT       =     11    0 simple, 1 ext, 2 COOP (PROOUT), +10 PAW based schemes


 Dipole corrections
   LMONO  =      F    monopole corrections only (constant potential shift)
   LDIPOL =      F    correct potential (dipole corrections)
   IDIPOL =      0    1-x, 2-y, 3-z, 4-all directions 
   EPSILON=  1.0000000 bulk dielectric constant

 Exchange correlation treatment:
   GGA     =    PE    GGA type
   LEXCH   =     8    internal setting for exchange type
   LIBXC   =     F    Libxc                    
   VOSKOWN =     0    Vosko Wilk Nusair interpolation
   EXXOEP  =     0    0=HF, 1=EXX-LHF (local Hartree Fock) 2=EXX OEP
   LHFCALC =     T    Hartree Fock is set to
   LSYMGRAD=     F    symmetrize gradient (conserves proper symmetry)
   PRECFOCK=fast      Normal, Fast or Accurate (Low or Medium for compatibility)
   LRHFCALC=     F    long range Hartree Fock
   LRSCOR  =     F    long range correlation only (use DFT for short range part)
   LTHOMAS =     F    Thomas Fermi screening in HF
   LMODELHF=     F    short range full HF, long range fraction AEXX
   FOCKCORR=     1    mode to apply convergence corrections
   LFOCKACE=     T    use Adeptively-Compressed-Exchange operator
   ENCUT4O =  -1.0   cutoff for four orbital integrals eV
   LMAXFOCK=     4    L truncation for augmentation on plane wave grid
   LMAXFOCKAE=  -1    L truncation for all-electron charge restoration on plane wave grid
   NMAXFOCKAE=   1    number of basis functions for all-electron charge restoration
   LFOCKAEDFT=     F  apply the AE augmentation even for DFT
   NKREDX  =     1    reduce k-point grid by
   NKREDY  =     1    reduce k-point grid by
   NKREDZ  =     1    reduce k-point grid by
   SHIFTRED=     F    shift reduced grid of Gamma
   HFKIDENT=     F    idential grid for each k-point
   ODDONLY =     F    use only odd q-grid points
   EVENONLY=     F    use only even q-grid points
   HFALPHA =   -1.0000 decay constant for conv. correction
   MCALPHA =    0.0000 extent of test-charge in conv. correction in multipole expansion
   AEXX    =    0.2500 exact exchange contribution
   HFSCREEN=    0.2000 screening length (either q_TF or 0.3 A-1)
   HFSCREENC=   0.2000 screening length for correlation (either q_TF or 0.3 A-1)
   HFRCUT  =    0.0000 spherical cutoff for potential kernel
   ALDAX   =    0.7500 LDA exchange part
   AGGAX   =    0.7500 GGA exchange part
   ALDAC   =    1.0000 LDA correlation
   AGGAC   =    1.0000 GGA correlation
   ENCUTFOCK=  -1.0 apply spherical cutoff to Coloumb kernel
   NBANDSGWLOW=     1    first orbital included in HF term
   NBLOCK_FOCK=    64    blocking factor in FOCK_ACC

 Linear response parameters
   LEPSILON=     F    determine dielectric tensor
   LRPA    =     F    only Hartree local field effects (RPA)
   LNABLA  =     F    use nabla operator in PAW spheres
   LVEL    =     F    velocity operator in full k-point grid
   CSHIFT  =0.1000    complex shift for real part using Kramers Kronig
   OMEGAMAX=  -1.0    maximum frequency
   DEG_THRESHOLD= 0.2000000E-02 threshold for treating states as degnerate
   RTIME   =   -0.100 relaxation time in fs
  (WPLASMAI=    0.000 imaginary part of plasma frequency in eV, 0.658/RTIME)
   DFIELD  = 0.0000000 0.0000000 0.0000000 field for delta impulse in time
 
  Optional k-point grid parameters
   LKPOINTS_OPT  =     F    use optional k-point grid
   KPOINTS_OPT_MODE=     1    mode for optional k-point grid
 
 Orbital magnetization related:
   ORBITALMAG=     F  switch on orbital magnetization
   LCHIMAG   =     F  perturbation theory with respect to B field
   DQ        =  0.001000  dq finite difference perturbation B field
   LLRAUG    =     F  two centre corrections for induced B field
   LBONE     =     F  B-component reconstruction in AE one-centre
   LVGVCALC  =     T  calculate vGv susceptibility
   LVGVAPPL  =     F  apply vGv susceptibility instead of pGv for G=0

 Random number generation:
   RANDOM_GENERATOR = DEFAULT
   PCG_SEED         = not used


--------------------------------------------------------------------------------------------------------


 Static calculation
 charge density and potential will be updated during run
 spin polarized calculation
 Variant of blocked Davidson
 Davidson routine will perform the subspace rotation
 perform sub-space diagonalisation
    after iterative eigenvector-optimisation
 Kerker-like  mixing scheme
 using additional bands           12
 reciprocal scheme for non local part
 use partial core corrections
 calculate Harris-corrections to forces 
   (improved forces if not selfconsistent)
 use gradient corrections 
 use of overlap-Matrix (Vanderbilt PP)
 Fermi weights with tetrahedron method with Bloechl corrections


--------------------------------------------------------------------------------------------------------


  energy-cutoff  :      680.00
  volume of cell :      181.60
      direct lattice vectors                 reciprocal lattice vectors
     5.662893029  0.000000000  0.000000000     0.176588185  0.000000000  0.000000000
    -0.000000000  5.662893029  0.000000000     0.000000000  0.176588185  0.000000000
     0.000000000  0.000000000  5.662893029    -0.000000000 -0.000000000  0.176588185

  length of vectors
     5.662893029  5.662893029  5.662893029     0.176588185  0.176588185  0.176588185


 
 k-points in units of 2pi/SCALE and weight: pymatgen with grid density = 699 / numbe
   0.00000000  0.00000000  0.00000000       0.016
   0.04414705  0.00000000  0.00000000       0.094
   0.08829409  0.00000000  0.00000000       0.047
   0.04414705  0.04414705  0.00000000       0.188
   0.08829409  0.04414705  0.00000000       0.188
   0.08829409  0.08829409  0.00000000       0.047
   0.04414705  0.04414705  0.04414705       0.125
   0.08829409  0.04414705  0.04414705       0.188
   0.08829409  0.08829409  0.04414705       0.094
   0.08829409  0.08829409  0.08829409       0.016
 
 k-points in reciprocal lattice and weights: pymatgen with grid density = 699 / numbe
   0.00000000  0.00000000  0.00000000       0.016
   0.25000000  0.00000000  0.00000000       0.094
   0.50000000  0.00000000  0.00000000       0.047
   0.25000000  0.25000000  0.00000000       0.188
   0.50000000  0.25000000  0.00000000       0.188
   0.50000000  0.50000000  0.00000000       0.047
   0.25000000  0.25000000  0.25000000       0.125
   0.50000000  0.25000000  0.25000000       0.188
   0.50000000  0.50000000  0.25000000       0.094
   0.50000000  0.50000000  0.50000000       0.016
 
 position of ions in fractional coordinates (direct lattice) 
   0.00000000  0.00000000  0.00000000
   0.50000000  0.50000000  0.00000000
   0.50000000  0.00000000  0.50000000
   0.00000000  0.50000000  0.50000000
   0.25000000  0.25000000  0.25000000
   0.25000000  0.75000000  0.75000000
   0.75000000  0.75000000  0.25000000
   0.75000000  0.25000000  0.75000000
 
 position of ions in cartesian coordinates  (Angst):
   0.00000000  0.00000000  0.00000000
   2.83144651  2.83144651  0.00000000
   2.83144651  0.00000000  2.83144651
  -0.00000000  2.83144651  2.83144651
   1.41572326  1.41572326  1.41572326
   1.41572326  4.24716977  4.24716977
   4.24716977  4.24716977  1.41572326
   4.24716977  1.41572326  4.24716977
 


--------------------------------------------------------------------------------------------------------


 k-point   1 :   0.0000 0.0000 0.0000  plane waves:    7153
 k-point   2 :   0.2500 0.0000 0.0000  plane waves:    7268
 k-point   3 :   0.5000 0.0000 0.0000  plane waves:    7256
 k-point   4 :   0.2500 0.2500 0.0000  plane waves:    7303
 k-point   5 :   0.5000 0.2500 0.0000  plane waves:    7336
 k-point   6 :   0.5000 0.5000 0.0000  plane waves:    7316
 k-point   7 :   0.2500 0.2500 0.2500  plane waves:    7310
 k-point   8 :   0.5000 0.2500 0.2500  plane waves:    7332
 k-point   9 :   0.5000 0.5000 0.2500  plane waves:    7292
 k-point  10 :   0.5000 0.5000 0.5000  plane waves:    7400

 maximum and minimum number of plane-waves per node :       764      694

 maximum number of plane-waves:      7400
 maximum index in each direction: 
   IXMAX=   12   IYMAX=   12   IZMAX=   12
   IXMIN=  -12   IYMIN=  -12   IZMIN=  -12


 parallel 3D FFT for wavefunctions:
    minimum data exchange during FFTs selected (reduces bandwidth)
 parallel 3D FFT for charge:
    minimum data exchange during FFTs selected (reduces bandwidth)


 FFT grid for exact exchange (Hartree Fock) 
  NGX = 28; NGY = 28; NGZ = 28

 
 Radii for the augmentation spheres in the non-local exchange
 for species   1 augmentation radius   1.392 (default was   1.031)
       energy cutoff for augmentation   2720.0
 for species   2 augmentation radius   1.434 (default was   1.062)
       energy cutoff for augmentation   2720.0

 real space projection operators:
  total allocation   :       2234.38 KBytes
  max/ min on nodes  :        247.66        164.06

 Maximum index for augmentation-charges in exchange          154
  SETUP_FOCK is finished

 total amount of memory used by VASP MPI-rank0    36458. kBytes
=======================================================================

   base      :      30000. kBytes
   nonl-proj :       2346. kBytes
   fftplans  :        823. kBytes
   grid      :       1678. kBytes
   one-center:         31. kBytes
   HF        :         64. kBytes
   nonlr-proj:        487. kBytes
   wavefun   :       1029. kBytes
 
     INWAV:  cpu time      0.0001: real time      0.0006
 initial charge density was supplied:
 charge density of overlapping atoms calculated
 number of electron      72.0000000 magnetization       0.0000000
 keeping initial charge density in first step


--------------------------------------------------------------------------------------------------------


 Maximum index for augmentation-charges          965 (set IRDMAX)


--------------------------------------------------------------------------------------------------------


 First call to EWALD:  gamma=   0.313
 Maximum number of real-space cells 3x 3x 3
 Maximum number of reciprocal cells 3x 3x 3

    FEWALD:  cpu time      0.0031: real time      0.0032


--------------------------------------- Ionic step        1  -------------------------------------------




--------------------------------------- Iteration      1(   1)  ---------------------------------------


    POTLOK:  cpu time      0.0297: real time      0.0386
    SETDIJ:  cpu time      0.4422: real time      0.4438
     EDDAV:  cpu time      0.5559: real time      2.2964
 BZINTS: Fermi energy:   18.125350;   72.000000 electrons
         Band energy:-0.748419E+01;  BLOECHL correction:   -0.389242
       DOS:  cpu time      0.0060: real time      0.0061
    --------------------------------------------
      LOOP:  cpu time      1.0338: real time      2.7849

 eigenvalue-minimisations  :  2136
 total energy-change (2. order) :-0.3302744E+04  (-0.3939162E+04)
 number of electron      72.0000000 magnetization       0.0000000
 augmentation part       72.0000000 magnetization       0.0000000

 Free energy of the ion-electron system (eV)
  ---------------------------------------------------
  alpha Z        PSCENC =       239.97917566
  Ewald energy   TEWEN  =     -5053.70092138
  -Hartree energ DENC   =     -2907.86236181
  -exchange      EXHF   =         0.00000000
  -V(xc)+E(xc)   XCENC  =       129.37264964
  PAW double counting   =      7000.88056845   -11966.80977022
  entropy T*S    EENTRO =         0.00000000
  eigenvalues    EBANDS =        -7.48418829
  atomic energy  EATOM  =      9262.88096869
  Solvation  Ediel_sol  =         0.00000000
  ---------------------------------------------------
  free energy    TOTEN  =     -3302.74387927 eV

  energy without entropy =    -3302.74387927  energy(sigma->0) =    -3302.74387927
  exchange ACFDT corr.  =         0.00000000  see jH, gK, PRB 81, 115126


--------------------------------------------------------------------------------------------------------




--------------------------------------- Iteration      1(   2)  ---------------------------------------


     EDDAV:  cpu time      0.3851: real time      0.3883
 BZINTS: Fermi energy:    5.712025;   72.000000 electrons
         Band energy:-0.595047E+03;  BLOECHL correction:   -0.009937
       DOS:  cpu time      0.0044: real time      0.0044
    --------------------------------------------
      LOOP:  cpu time      0.3895: real time      0.3927

 eigenvalue-minimisations  :  2004
 total energy-change (2. order) :-0.5875628E+03  (-0.5542969E+03)
 number of electron      72.0000000 magnetization       0.0000000
 augmentation part       72.0000000 magnetization       0.0000000

 Free energy of the ion-electron system (eV)
  ---------------------------------------------------
  alpha Z        PSCENC =       239.97917566
  Ewald energy   TEWEN  =     -5053.70092138
  -Hartree energ DENC   =     -2907.86236181
  -exchange      EXHF   =         0.00000000
  -V(xc)+E(xc)   XCENC  =       129.37264964
  PAW double counting   =      7000.88056845   -11966.80977022
  entropy T*S    EENTRO =         0.00000000
  eigenvalues    EBANDS =      -595.04698328
  atomic energy  EATOM  =      9262.88096869
  Solvation  Ediel_sol  =         0.00000000
  ---------------------------------------------------
  free energy    TOTEN  =     -3890.30667426 eV

  energy without entropy =    -3890.30667426  energy(sigma->0) =    -3890.30667426
  exchange ACFDT corr.  =         0.00000000  see jH, gK, PRB 81, 115126


--------------------------------------------------------------------------------------------------------




--------------------------------------- Iteration      1(   3)  ---------------------------------------


     EDDAV:  cpu time      0.4175: real time      0.4457
 BZINTS: Fermi energy:    2.842130;   72.000000 electrons
         Band energy:-0.674922E+03;  BLOECHL correction:    0.000000
       DOS:  cpu time      0.0020: real time      0.0020
    --------------------------------------------
      LOOP:  cpu time      0.4195: real time      0.4477

 eigenvalue-minimisations  :  2328
 total energy-change (2. order) :-0.7987513E+02  (-0.7815169E+02)
 number of electron      72.0000000 magnetization       0.0000000
 augmentation part       72.0000000 magnetization       0.0000000

 Free energy of the ion-electron system (eV)
  ---------------------------------------------------
  alpha Z        PSCENC =       239.97917566
  Ewald energy   TEWEN  =     -5053.70092138
  -Hartree energ DENC   =     -2907.86236181
  -exchange      EXHF   =         0.00000000
  -V(xc)+E(xc)   XCENC  =       129.37264964
  PAW double counting   =      7000.88056845   -11966.80977022
  entropy T*S    EENTRO =         0.00000000
  eigenvalues    EBANDS =      -674.92211600
  atomic energy  EATOM  =      9262.88096869
  Solvation  Ediel_sol  =         0.00000000
  ---------------------------------------------------
  free energy    TOTEN  =     -3970.18180698 eV

  energy without entropy =    -3970.18180698  energy(sigma->0) =    -3970.18180698
  exchange ACFDT corr.  =         0.00000000  see jH, gK, PRB 81, 115126


--------------------------------------------------------------------------------------------------------




--------------------------------------- Iteration      1(   4)  ---------------------------------------


     EDDAV:  cpu time      0.4091: real time      0.4328
 BZINTS: Fermi energy:    2.626901;   72.000000 electrons
         Band energy:-0.678563E+03;  BLOECHL correction:    0.000000
       DOS:  cpu time      0.0016: real time      0.0016
    --------------------------------------------
      LOOP:  cpu time      0.4107: real time      0.4344

 eigenvalue-minimisations  :  2328
 total energy-change (2. order) :-0.3641188E+01  (-0.3631331E+01)
 number of electron      72.0000000 magnetization       0.0000000
 augmentation part       72.0000000 magnetization       0.0000000

 Free energy of the ion-electron system (eV)
  ---------------------------------------------------
  alpha Z        PSCENC =       239.97917566
  Ewald energy   TEWEN  =     -5053.70092138
  -Hartree energ DENC   =     -2907.86236181
  -exchange      EXHF   =         0.00000000
  -V(xc)+E(xc)   XCENC  =       129.37264964
  PAW double counting   =      7000.88056845   -11966.80977022
  entropy T*S    EENTRO =         0.00000000
  eigenvalues    EBANDS =      -678.56330408
  atomic energy  EATOM  =      9262.88096869
  Solvation  Ediel_sol  =         0.00000000
  ---------------------------------------------------
  free energy    TOTEN  =     -3973.82299506 eV

  energy without entropy =    -3973.82299506  energy(sigma->0) =    -3973.82299506
  exchange ACFDT corr.  =         0.00000000  see jH, gK, PRB 81, 115126


--------------------------------------------------------------------------------------------------------




--------------------------------------- Iteration      1(   5)  ---------------------------------------


    POTLOK:  cpu time      0.0298: real time      0.0462
    SETDIJ:  cpu time      1.1322: real time      1.1351
     EDDAV:  cpu time     34.0613: real time     34.4001
 BZINTS: Fermi energy:    2.819978;   72.000000 electrons
         Band energy:-0.638188E+03;  BLOECHL correction:    0.000000
       DOS:  cpu time      0.0018: real time      0.0020
    CHARGE:  cpu time      0.0779: real time      0.1068
    MIXING:  cpu time      0.0010: real time      0.0010
    --------------------------------------------
      LOOP:  cpu time     35.3040: real time     35.6912

 eigenvalue-minimisations  :  2640
 total energy-change (2. order) : 0.3933533E+04  (-0.2031023E+01)
 number of electron      71.9999998 magnetization       0.0000000
 augmentation part       30.8202648 magnetization       0.0031464

 Free energy of the ion-electron system (eV)
  ---------------------------------------------------
  alpha Z        PSCENC =       239.97917566
  Ewald energy   TEWEN  =     -5053.70092138
  -Hartree energ DENC   =     -2907.86236181
  -exchange      EXHF   =       168.81228815
  -V(xc)+E(xc)   XCENC  =        93.89310737
  PAW double counting   =      7033.26914506    -8239.37305224
  entropy T*S    EENTRO =         0.00000000
  eigenvalues    EBANDS =      -638.18817146
  atomic energy  EATOM  =      9262.88096869
  Solvation  Ediel_sol  =         0.00000000
  ---------------------------------------------------
  free energy    TOTEN  =       -40.28982195 eV

  energy without entropy =      -40.28982195  energy(sigma->0) =      -40.28982195
  exchange ACFDT corr.  =         0.00000000  see jH, gK, PRB 81, 115126


--------------------------------------------------------------------------------------------------------




--------------------------------------- Iteration      1(   6)  ---------------------------------------


    POTLOK:  cpu time      0.0317: real time      0.0478
    SETDIJ:  cpu time      1.1595: real time      1.1624
     EDDAV:  cpu time     34.1970: real time     34.2833
 BZINTS: Fermi energy:    3.252729;   72.000000 electrons
         Band energy:-0.634414E+03;  BLOECHL correction:    0.000000
       DOS:  cpu time      0.0021: real time      0.0023
    CHARGE:  cpu time      0.0749: real time      0.0751
    MIXING:  cpu time      0.0002: real time      0.0002
    --------------------------------------------
      LOOP:  cpu time     35.4654: real time     35.5711

 eigenvalue-minimisations  :  2244
 total energy-change (2. order) : 0.6110558E+00  (-0.2887515E+00)
 number of electron      71.9999996 magnetization      -0.0000000
 augmentation part       30.8901211 magnetization       0.0012260

 Free energy of the ion-electron system (eV)
  ---------------------------------------------------
  alpha Z        PSCENC =       239.97917566
  Ewald energy   TEWEN  =     -5053.70092138
  -Hartree energ DENC   =     -2901.88996261
  -exchange      EXHF   =       167.17561055
  -V(xc)+E(xc)   XCENC  =        94.20109048
  PAW double counting   =      7467.31777713    -8681.22895282
  entropy T*S    EENTRO =         0.00000000
  eigenvalues    EBANDS =      -634.41355186
  atomic energy  EATOM  =      9262.88096869
  Solvation  Ediel_sol  =         0.00000000
  ---------------------------------------------------
  free energy    TOTEN  =       -39.67876616 eV

  energy without entropy =      -39.67876616  energy(sigma->0) =      -39.67876616
  exchange ACFDT corr.  =         0.00000000  see jH, gK, PRB 81, 115126


--------------------------------------------------------------------------------------------------------




--------------------------------------- Iteration      1(   7)  ---------------------------------------


    POTLOK:  cpu time      0.0337: real time      0.0480
    SETDIJ:  cpu time      1.1597: real time      1.1625
     EDDAV:  cpu time     34.2640: real time     34.3528
 BZINTS: Fermi energy:    3.335307;   72.000000 electrons
         Band energy:-0.633817E+03;  BLOECHL correction:    0.000000
       DOS:  cpu time      0.0017: real time      0.0017
    CHARGE:  cpu time      0.0722: real time      0.0724
    MIXING:  cpu time      0.0002: real time      0.0002
    --------------------------------------------
      LOOP:  cpu time     35.5315: real time     35.6376

 eigenvalue-minimisations  :  2520
 total energy-change (2. order) : 0.7914960E-01  (-0.5782447E-01)
 number of electron      71.9999995 magnetization       0.0000000
 augmentation part       30.9278725 magnetization      -0.0000225

 Free energy of the ion-electron system (eV)
  ---------------------------------------------------
  alpha Z        PSCENC =       239.97917566
  Ewald energy   TEWEN  =     -5053.70092138
  -Hartree energ DENC   =     -2898.63730435
  -exchange      EXHF   =       166.53665082
  -V(xc)+E(xc)   XCENC  =        94.37025769
  PAW double counting   =      7794.55275481    -9011.76468878
  entropy T*S    EENTRO =         0.00000000
  eigenvalues    EBANDS =      -633.81650972
  atomic energy  EATOM  =      9262.88096869
  Solvation  Ediel_sol  =         0.00000000
  ---------------------------------------------------
  free energy    TOTEN  =       -39.59961656 eV

  energy without entropy =      -39.59961656  energy(sigma->0) =      -39.59961656
  exchange ACFDT corr.  =         0.00000000  see jH, gK, PRB 81, 115126


--------------------------------------------------------------------------------------------------------




--------------------------------------- Iteration      1(   8)  ---------------------------------------


    POTLOK:  cpu time      0.0291: real time      0.0456
    SETDIJ:  cpu time      1.1613: real time      1.1642
     EDDAV:  cpu time     34.4287: real time     34.5154
 BZINTS: Fermi energy:    3.433973;   72.000000 electrons
         Band energy:-0.631470E+03;  BLOECHL correction:    0.000000
       DOS:  cpu time      0.0021: real time      0.0022
    CHARGE:  cpu time      0.0749: real time      0.0751
    MIXING:  cpu time      0.0002: real time      0.0002
    --------------------------------------------
      LOOP:  cpu time     35.6963: real time     35.8027

 eigenvalue-minimisations  :  2244
 total energy-change (2. order) : 0.1867200E-01  (-0.5685988E-02)
 number of electron      71.9999995 magnetization      -0.0000000
 augmentation part       30.9258587 magnetization       0.0000194

 Free energy of the ion-electron system (eV)
  ---------------------------------------------------
  alpha Z        PSCENC =       239.97917566
  Ewald energy   TEWEN  =     -5053.70092138
  -Hartree energ DENC   =     -2898.38352629
  -exchange      EXHF   =       166.25474696
  -V(xc)+E(xc)   XCENC  =        94.49212984
  PAW double counting   =      8038.93733359    -9258.57065342
  entropy T*S    EENTRO =         0.00000000
  eigenvalues    EBANDS =      -631.47019820
  atomic energy  EATOM  =      9262.88096869
  Solvation  Ediel_sol  =         0.00000000
  ---------------------------------------------------
  free energy    TOTEN  =       -39.58094457 eV

  energy without entropy =      -39.58094457  energy(sigma->0) =      -39.58094457
  exchange ACFDT corr.  =         0.00000000  see jH, gK, PRB 81, 115126


--------------------------------------------------------------------------------------------------------




--------------------------------------- Iteration      1(   9)  ---------------------------------------


    POTLOK:  cpu time      0.0330: real time      0.0467
    SETDIJ:  cpu time      1.1579: real time      1.1608
     EDDAV:  cpu time     34.1522: real time     34.2382
 BZINTS: Fermi energy:    3.440412;   72.000000 electrons
         Band energy:-0.629949E+03;  BLOECHL correction:    0.000000
       DOS:  cpu time      0.0024: real time      0.0024
    CHARGE:  cpu time      0.0836: real time      0.0838
    MIXING:  cpu time      0.0002: real time      0.0002
    --------------------------------------------
      LOOP:  cpu time     35.4293: real time     35.5322

 eigenvalue-minimisations  :  2616
 total energy-change (2. order) : 0.1231023E-01  (-0.6229446E-03)
 number of electron      71.9999995 magnetization       0.0000000
 augmentation part       30.9221179 magnetization      -0.0000011

 Free energy of the ion-electron system (eV)
  ---------------------------------------------------
  alpha Z        PSCENC =       239.97917566
  Ewald energy   TEWEN  =     -5053.70092138
  -Hartree energ DENC   =     -2898.53781033
  -exchange      EXHF   =       166.15364183
  -V(xc)+E(xc)   XCENC  =        94.56655447
  PAW double counting   =      8194.47182770    -9415.43295672
  entropy T*S    EENTRO =         0.00000000
  eigenvalues    EBANDS =      -629.94911425
  atomic energy  EATOM  =      9262.88096869
  Solvation  Ediel_sol  =         0.00000000
  ---------------------------------------------------
  free energy    TOTEN  =       -39.56863433 eV

  energy without entropy =      -39.56863433  energy(sigma->0) =      -39.56863433
  exchange ACFDT corr.  =         0.00000000  see jH, gK, PRB 81, 115126


--------------------------------------------------------------------------------------------------------




--------------------------------------- Iteration      1(  10)  ---------------------------------------


    POTLOK:  cpu time      0.0357: real time      0.0500
    SETDIJ:  cpu time      1.2067: real time      1.2097
     EDDAV:  cpu time     33.2667: real time     33.3507
 BZINTS: Fermi energy:    3.439103;   72.000000 electrons
         Band energy:-0.629194E+03;  BLOECHL correction:    0.000000
       DOS:  cpu time      0.0020: real time      0.0020
    CHARGE:  cpu time      0.0859: real time      0.0861
    MIXING:  cpu time      0.0005: real time      0.0005
    --------------------------------------------
      LOOP:  cpu time     34.5975: real time     34.6989

 eigenvalue-minimisations  :  2232
 total energy-change (2. order) : 0.4035027E-02  (-0.2841047E-03)
 number of electron      71.9999994 magnetization      -0.0000000
 augmentation part       30.9193766 magnetization      -0.0000036

 Free energy of the ion-electron system (eV)
  ---------------------------------------------------
  alpha Z        PSCENC =       239.97917566
  Ewald energy   TEWEN  =     -5053.70092138
  -Hartree energ DENC   =     -2898.60685610
  -exchange      EXHF   =       166.12997179
  -V(xc)+E(xc)   XCENC  =        94.61177332
  PAW double counting   =      8287.43942293    -9509.10399838
  entropy T*S    EENTRO =         0.00000000
  eigenvalues    EBANDS =      -629.19413582
  atomic energy  EATOM  =      9262.88096869
  Solvation  Ediel_sol  =         0.00000000
  ---------------------------------------------------
  free energy    TOTEN  =       -39.56459931 eV

  energy without entropy =      -39.56459931  energy(sigma->0) =      -39.56459931
  exchange ACFDT corr.  =         0.00000000  see jH, gK, PRB 81, 115126


--------------------------------------------------------------------------------------------------------




--------------------------------------- Iteration      1(  11)  ---------------------------------------


    POTLOK:  cpu time      0.0332: real time      0.0504
    SETDIJ:  cpu time      1.1613: real time      1.1642
     EDDAV:  cpu time     33.4069: real time     33.4909
 BZINTS: Fermi energy:    3.437379;   72.000000 electrons
         Band energy:-0.628856E+03;  BLOECHL correction:    0.000000
       DOS:  cpu time      0.0016: real time      0.0018
    CHARGE:  cpu time      0.0984: real time      0.0988
    MIXING:  cpu time      0.0003: real time      0.0003
    --------------------------------------------
      LOOP:  cpu time     34.7017: real time     34.8065

 eigenvalue-minimisations  :  2388
 total energy-change (2. order) : 0.8204983E-03  (-0.1266868E-03)
 number of electron      71.9999994 magnetization       0.0000000
 augmentation part       30.9179369 magnetization       0.0000004

 Free energy of the ion-electron system (eV)
  ---------------------------------------------------
  alpha Z        PSCENC =       239.97917566
  Ewald energy   TEWEN  =     -5053.70092138
  -Hartree energ DENC   =     -2898.58302928
  -exchange      EXHF   =       166.12475816
  -V(xc)+E(xc)   XCENC  =        94.63891601
  PAW double counting   =      8339.95337906    -9562.00083920
  entropy T*S    EENTRO =         0.00000000
  eigenvalues    EBANDS =      -628.85618652
  atomic energy  EATOM  =      9262.88096869
  Solvation  Ediel_sol  =         0.00000000
  ---------------------------------------------------
  free energy    TOTEN  =       -39.56377881 eV

  energy without entropy =      -39.56377881  energy(sigma->0) =      -39.56377881
  exchange ACFDT corr.  =         0.00000000  see jH, gK, PRB 81, 115126


--------------------------------------------------------------------------------------------------------




--------------------------------------- Iteration      1(  12)  ---------------------------------------


    POTLOK:  cpu time      0.0407: real time      0.0553
    SETDIJ:  cpu time      1.1636: real time      1.1665
     EDDAV:  cpu time     33.9633: real time     34.0489
 BZINTS: Fermi energy:    3.537890;   72.000000 electrons
         Band energy:-0.628683E+03;  BLOECHL correction:    0.000000
       DOS:  cpu time      0.0021: real time      0.0021
    CHARGE:  cpu time      0.0739: real time      0.0740
    MIXING:  cpu time      0.0002: real time      0.0002
    --------------------------------------------
      LOOP:  cpu time     35.2437: real time     35.3470

 eigenvalue-minimisations  :  2256
 total energy-change (2. order) : 0.3833252E-04  (-0.4199936E-04)
 number of electron      71.9999994 magnetization      -0.0000000
 augmentation part       30.9173874 magnetization      -0.0000005

 Free energy of the ion-electron system (eV)
  ---------------------------------------------------
  alpha Z        PSCENC =       239.97917566
  Ewald energy   TEWEN  =     -5053.70092138
  -Hartree energ DENC   =     -2898.54518084
  -exchange      EXHF   =       166.12446874
  -V(xc)+E(xc)   XCENC  =        94.65562248
  PAW double counting   =      8368.77571941    -9591.05068525
  entropy T*S    EENTRO =         0.00000000
  eigenvalues    EBANDS =      -628.68290798
  atomic energy  EATOM  =      9262.88096869
  Solvation  Ediel_sol  =         0.00000000
  ---------------------------------------------------
  free energy    TOTEN  =       -39.56374048 eV

  energy without entropy =      -39.56374048  energy(sigma->0) =      -39.56374048
  exchange ACFDT corr.  =         0.00000000  see jH, gK, PRB 81, 115126


--------------------------------------------------------------------------------------------------------




--------------------------------------- Iteration      1(  13)  ---------------------------------------


    POTLOK:  cpu time      0.0295: real time      0.0453
    SETDIJ:  cpu time      1.1604: real time      1.1633
     EDDAV:  cpu time     34.2029: real time     34.2889
 BZINTS: Fermi energy:    3.537334;   72.000000 electrons
         Band energy:-0.628565E+03;  BLOECHL correction:    0.000000
       DOS:  cpu time      0.0020: real time      0.0020
    CHARGE:  cpu time      0.0734: real time      0.0736
    MIXING:  cpu time      0.0002: real time      0.0002
    --------------------------------------------
      LOOP:  cpu time     35.4684: real time     35.5733

 eigenvalue-minimisations  :  2268
 total energy-change (2. order) :-0.9489440E-04  (-0.1569545E-04)
 number of electron      71.9999994 magnetization       0.0000000
 augmentation part       30.9171681 magnetization      -0.0000003

 Free energy of the ion-electron system (eV)
  ---------------------------------------------------
  alpha Z        PSCENC =       239.97917566
  Ewald energy   TEWEN  =     -5053.70092138
  -Hartree energ DENC   =     -2898.52937897
  -exchange      EXHF   =       166.12404208
  -V(xc)+E(xc)   XCENC  =        94.66625743
  PAW double counting   =      8384.63239628    -9607.05127724
  entropy T*S    EENTRO =         0.00000000
  eigenvalues    EBANDS =      -628.56509791
  atomic energy  EATOM  =      9262.88096869
  Solvation  Ediel_sol  =         0.00000000
  ---------------------------------------------------
  free energy    TOTEN  =       -39.56383537 eV

  energy without entropy =      -39.56383537  energy(sigma->0) =      -39.56383537
  exchange ACFDT corr.  =         0.00000000  see jH, gK, PRB 81, 115126


--------------------------------------------------------------------------------------------------------




--------------------------------------- Iteration      1(  14)  ---------------------------------------


    POTLOK:  cpu time      0.0338: real time      0.0477
    SETDIJ:  cpu time      1.1631: real time      1.1661
     EDDAV:  cpu time     34.3252: real time     34.4116
 BZINTS: Fermi energy:    3.537246;   72.000000 electrons
         Band energy:-0.628471E+03;  BLOECHL correction:    0.000000
       DOS:  cpu time      0.0024: real time      0.0024
    CHARGE:  cpu time      0.0730: real time      0.0732
    MIXING:  cpu time      0.0002: real time      0.0002
    --------------------------------------------
      LOOP:  cpu time     35.5976: real time     35.7012

 eigenvalue-minimisations  :  1992
 total energy-change (2. order) :-0.8646924E-04  (-0.6994894E-05)
 number of electron      71.9999994 magnetization      -0.0000000
 augmentation part       30.9170054 magnetization       0.0000002

 Free energy of the ion-electron system (eV)
  ---------------------------------------------------
  alpha Z        PSCENC =       239.97917566
  Ewald energy   TEWEN  =     -5053.70092138
  -Hartree energ DENC   =     -2898.53540729
  -exchange      EXHF   =       166.12321779
  -V(xc)+E(xc)   XCENC  =        94.67313521
  PAW double counting   =      8393.39890152    -9615.91153916
  entropy T*S    EENTRO =         0.00000000
  eigenvalues    EBANDS =      -628.47145288
  atomic energy  EATOM  =      9262.88096869
  Solvation  Ediel_sol  =         0.00000000
  ---------------------------------------------------
  free energy    TOTEN  =       -39.56392184 eV

  energy without entropy =      -39.56392184  energy(sigma->0) =      -39.56392184
  exchange ACFDT corr.  =         0.00000000  see jH, gK, PRB 81, 115126


--------------------------------------------------------------------------------------------------------




--------------------------------------- Iteration      1(  15)  ---------------------------------------


    POTLOK:  cpu time      0.0290: real time      0.0469
    SETDIJ:  cpu time      1.1597: real time      1.1626
     EDDAV:  cpu time     34.1098: real time     34.1958
 BZINTS: Fermi energy:    3.537340;   72.000000 electrons
         Band energy:-0.628401E+03;  BLOECHL correction:    0.000000
       DOS:  cpu time      0.0022: real time      0.0022
    CHARGE:  cpu time      0.0752: real time      0.0754
    MIXING:  cpu time      0.0002: real time      0.0002
    --------------------------------------------
      LOOP:  cpu time     35.3761: real time     35.4832

 eigenvalue-minimisations  :  2028
 total energy-change (2. order) :-0.5770983E-04  (-0.3237018E-05)
 number of electron      71.9999994 magnetization       0.0000000
 augmentation part       30.9169308 magnetization      -0.0000001

 Free energy of the ion-electron system (eV)
  ---------------------------------------------------
  alpha Z        PSCENC =       239.97917566
  Ewald energy   TEWEN  =     -5053.70092138
  -Hartree energ DENC   =     -2898.55127423
  -exchange      EXHF   =       166.12230206
  -V(xc)+E(xc)   XCENC  =        94.67755883
  PAW double counting   =      8398.26255596    -9620.83344679
  entropy T*S    EENTRO =         0.00000000
  eigenvalues    EBANDS =      -628.40089835
  atomic energy  EATOM  =      9262.88096869
  Solvation  Ediel_sol  =         0.00000000
  ---------------------------------------------------
  free energy    TOTEN  =       -39.56397955 eV

  energy without entropy =      -39.56397955  energy(sigma->0) =      -39.56397955
  exchange ACFDT corr.  =         0.00000000  see jH, gK, PRB 81, 115126


--------------------------------------------------------------------------------------------------------




--------------------------------------- Iteration      1(  16)  ---------------------------------------


    POTLOK:  cpu time      0.0303: real time      0.0478
    SETDIJ:  cpu time      1.1620: real time      1.1649
     EDDAV:  cpu time     34.1973: real time     34.2833
 BZINTS: Fermi energy:    3.537508;   72.000000 electrons
         Band energy:-0.628347E+03;  BLOECHL correction:    0.000000
       DOS:  cpu time      0.0018: real time      0.0018
    CHARGE:  cpu time      0.0726: real time      0.0728
    MIXING:  cpu time      0.0002: real time      0.0002
    --------------------------------------------
      LOOP:  cpu time     35.4642: real time     35.5708

 eigenvalue-minimisations  :  1728
 total energy-change (2. order) :-0.3367471E-04  (-0.1603441E-05)
 number of electron      71.9999994 magnetization      -0.0000000
 augmentation part       30.9168530 magnetization       0.0000000

 Free energy of the ion-electron system (eV)
  ---------------------------------------------------
  alpha Z        PSCENC =       239.97917566
  Ewald energy   TEWEN  =     -5053.70092138
  -Hartree energ DENC   =     -2898.57056984
  -exchange      EXHF   =       166.12167211
  -V(xc)+E(xc)   XCENC  =        94.68044131
  PAW double counting   =      8400.95815790    -9623.56566153
  entropy T*S    EENTRO =         0.00000000
  eigenvalues    EBANDS =      -628.34727614
  atomic energy  EATOM  =      9262.88096869
  Solvation  Ediel_sol  =         0.00000000
  ---------------------------------------------------
  free energy    TOTEN  =       -39.56401322 eV

  energy without entropy =      -39.56401322  energy(sigma->0) =      -39.56401322
  exchange ACFDT corr.  =         0.00000000  see jH, gK, PRB 81, 115126


--------------------------------------------------------------------------------------------------------




--------------------------------------- Iteration      1(  17)  ---------------------------------------


    POTLOK:  cpu time      0.0340: real time      0.0484
    SETDIJ:  cpu time      1.1597: real time      1.1626
     EDDAV:  cpu time     34.1315: real time     34.2176
 BZINTS: Fermi energy:    3.537648;   72.000000 electrons
         Band energy:-0.628311E+03;  BLOECHL correction:    0.000000
       DOS:  cpu time      0.0020: real time      0.0020
    CHARGE:  cpu time      0.0733: real time      0.0735
    MIXING:  cpu time      0.0002: real time      0.0002
    --------------------------------------------
      LOOP:  cpu time     35.4007: real time     35.5042

 eigenvalue-minimisations  :  1488
 total energy-change (2. order) :-0.1872510E-04  (-0.7518719E-06)
 number of electron      71.9999994 magnetization       0.0000000
 augmentation part       30.9168471 magnetization       0.0000000

 Free energy of the ion-electron system (eV)
  ---------------------------------------------------
  alpha Z        PSCENC =       239.97917566
  Ewald energy   TEWEN  =     -5053.70092138
  -Hartree energ DENC   =     -2898.58766349
  -exchange      EXHF   =       166.12121381
  -V(xc)+E(xc)   XCENC  =        94.68228742
  PAW double counting   =      8402.46256303    -9625.09089613
  entropy T*S    EENTRO =         0.00000000
  eigenvalues    EBANDS =      -628.31075956
  atomic energy  EATOM  =      9262.88096869
  Solvation  Ediel_sol  =         0.00000000
  ---------------------------------------------------
  free energy    TOTEN  =       -39.56403195 eV

  energy without entropy =      -39.56403195  energy(sigma->0) =      -39.56403195
  exchange ACFDT corr.  =         0.00000000  see jH, gK, PRB 81, 115126


--------------------------------------------------------------------------------------------------------




--------------------------------------- Iteration      1(  18)  ---------------------------------------


    POTLOK:  cpu time      0.0293: real time      0.0509
    SETDIJ:  cpu time      1.1629: real time      1.1658
     EDDAV:  cpu time     33.7589: real time     33.8440
 BZINTS: Fermi energy:    3.537783;   72.000000 electrons
         Band energy:-0.628283E+03;  BLOECHL correction:    0.000000
       DOS:  cpu time      0.0019: real time      0.0019
    --------------------------------------------
      LOOP:  cpu time     34.9531: real time     35.0626

 eigenvalue-minimisations  :  1440
 total energy-change (2. order) :-0.9836098E-05  (-0.4317731E-06)
 number of electron      71.9999994 magnetization       0.0000000
 augmentation part       30.9168471 magnetization       0.0000000

 Free energy of the ion-electron system (eV)
  ---------------------------------------------------
  alpha Z        PSCENC =       239.97917566
  Ewald energy   TEWEN  =     -5053.70092138
  -Hartree energ DENC   =     -2898.60296161
  -exchange      EXHF   =       166.12107253
  -V(xc)+E(xc)   XCENC  =        94.68352490
  PAW double counting   =      8403.29231255    -9625.93382851
  entropy T*S    EENTRO =         0.00000000
  eigenvalues    EBANDS =      -628.28338461
  atomic energy  EATOM  =      9262.88096869
  Solvation  Ediel_sol  =         0.00000000
  ---------------------------------------------------
  free energy    TOTEN  =       -39.56404178 eV

  energy without entropy =      -39.56404178  energy(sigma->0) =      -39.56404178
  exchange ACFDT corr.  =         0.00000000  see jH, gK, PRB 81, 115126


--------------------------------------------------------------------------------------------------------




 average (electrostatic) potential at core
  the test charge radii are     1.0314  1.0621
  (the norm of the test charge is              1.0000)
       1 -59.4460       2 -59.4459       3 -59.4459       4 -59.4459       5 -46.6443
       6 -46.6443       7 -46.6443       8 -46.6443
 
 
 
 E-fermi :   3.5378     XC(G=0):  -7.9407     alpha+bet : -9.6896

 Fermi energy:         3.5377828705

 spin component 1

 k-point     1 :       0.0000    0.0000    0.0000
  band No.  band energies     occupation 
      1     -13.9994      1.00000
      2     -13.9994      1.00000
      3     -13.9994      1.00000
      4     -13.9177      1.00000
      5     -13.9177      1.00000
      6     -13.9177      1.00000
      7     -13.8743      1.00000
      8     -13.8743      1.00000
      9     -13.8743      1.00000
     10     -13.8742      1.00000
     11     -13.8742      1.00000
     12     -13.8742      1.00000
     13     -13.8595      1.00000
     14     -13.8595      1.00000
     15     -13.8594      1.00000
     16     -13.8379      1.00000
     17     -13.8379      1.00000
     18     -13.8271      1.00000
     19     -13.8271      1.00000
     20     -13.8271      1.00000
     21     -10.4857      1.00000
     22      -7.7687      1.00000
     23      -7.7687      1.00000
     24      -7.7687      1.00000
     25      -3.9101      1.00000
     26      -3.9101      1.00000
     27      -3.9101      1.00000
     28       0.5637      1.00000
     29       0.5637      1.00000
     30       0.5637      1.00000
     31       0.5637      1.00000
     32       0.5637      1.00000
     33       0.5637      1.00000
     34       3.4526      1.00000
     35       3.4526      1.00000
     36       3.4526      1.00000
     37       4.8321      0.00000
     38       5.5446      0.00000
     39       5.5446      0.00000
     40       5.5446      0.00000
     41       5.7990      0.00000
     42       5.7990      0.00000
     43       5.7990      0.00000
     44       8.0081      0.00000
     45       8.0081      0.00000
     46       8.0081      0.00000
     47      12.0217      0.00000
     48      14.5513      0.00000

 k-point     2 :       0.2500    0.0000    0.0000
  band No.  band energies     occupation 
      1     -13.9936      1.00000
      2     -13.9936      1.00000
      3     -13.9890      1.00000
      4     -13.9316      1.00000
      5     -13.9115      1.00000
      6     -13.9115      1.00000
      7     -13.8818      1.00000
      8     -13.8818      1.00000
      9     -13.8808      1.00000
     10     -13.8808      1.00000
     11     -13.8759      1.00000
     12     -13.8759      1.00000
     13     -13.8558      1.00000
     14     -13.8544      1.00000
     15     -13.8544      1.00000
     16     -13.8404      1.00000
     17     -13.8364      1.00000
     18     -13.8301      1.00000
     19     -13.8300      1.00000
     20     -13.8287      1.00000
     21     -10.2260      1.00000
     22      -8.4387      1.00000
     23      -7.7390      1.00000
     24      -7.7390      1.00000
     25      -3.8059      1.00000
     26      -3.8059      1.00000
     27      -2.8992      1.00000
     28       0.0696      1.00000
     29       0.0696      1.00000
     30       0.1877      1.00000
     31       0.1877      1.00000
     32       0.8460      1.00000
     33       0.8460      1.00000
     34       1.5024      1.00000
     35       2.7657      1.00000
     36       2.7657      1.00000
     37       5.5682      0.00000
     38       6.4632      0.00000
     39       6.6184      0.00000
     40       6.6951      0.00000
     41       6.6951      0.00000
     42       6.9748      0.00000
     43       6.9748      0.00000
     44       7.3083      0.00000
     45       9.0158      0.00000
     46       9.0158      0.00000
     47      12.3525      0.00000
     48      12.7057      0.00000

 k-point     3 :       0.5000    0.0000    0.0000
  band No.  band energies     occupation 
      1     -13.9868      1.00000
      2     -13.9868      1.00000
      3     -13.9620      1.00000
      4     -13.9620      1.00000
      5     -13.8964      1.00000
      6     -13.8964      1.00000
      7     -13.8964      1.00000
      8     -13.8964      1.00000
      9     -13.8902      1.00000
     10     -13.8902      1.00000
     11     -13.8771      1.00000
     12     -13.8770      1.00000
     13     -13.8483      1.00000
     14     -13.8483      1.00000
     15     -13.8476      1.00000
     16     -13.8476      1.00000
     17     -13.8346      1.00000
     18     -13.8345      1.00000
     19     -13.8326      1.00000
     20     -13.8325      1.00000
     21      -9.4866      1.00000
     22      -9.4866      1.00000
     23      -7.7087      1.00000
     24      -7.7087      1.00000
     25      -3.6869      1.00000
     26      -3.6869      1.00000
     27      -0.8514      1.00000
     28      -0.8514      1.00000
     29      -0.3620      1.00000
     30      -0.3620      1.00000
     31      -0.1232      1.00000
     32      -0.1232      1.00000
     33       1.6480      1.00000
     34       1.6480      1.00000
     35       1.6480      1.00000
     36       1.6480      1.00000
     37       6.1402      0.00000
     38       6.1402      0.00000
     39       7.5437      0.00000
     40       7.5437      0.00000
     41       8.9199      0.00000
     42       8.9199      0.00000
     43       9.0679      0.00000
     44       9.0679      0.00000
     45       9.8509      0.00000
     46       9.8509      0.00000
     47      10.3237      0.00000
     48      10.3237      0.00000

 k-point     4 :       0.2500    0.2500    0.0000
  band No.  band energies     occupation 
      1     -13.9885      1.00000
      2     -13.9847      1.00000
      3     -13.9847      1.00000
      4     -13.9381      1.00000
      5     -13.9110      1.00000
      6     -13.9077      1.00000
      7     -13.8873      1.00000
      8     -13.8872      1.00000
      9     -13.8853      1.00000
     10     -13.8822      1.00000
     11     -13.8822      1.00000
     12     -13.8803      1.00000
     13     -13.8515      1.00000
     14     -13.8515      1.00000
     15     -13.8503      1.00000
     16     -13.8399      1.00000
     17     -13.8368      1.00000
     18     -13.8324      1.00000
     19     -13.8309      1.00000
     20     -13.8309      1.00000
     21      -9.9773      1.00000
     22      -8.3159      1.00000
     23      -8.3159      1.00000
     24      -7.8113      1.00000
     25      -3.6925      1.00000
     26      -3.0481      1.00000
     27      -3.0481      1.00000
     28      -0.7041      1.00000
     29       0.1937      1.00000
     30       0.1937      1.00000
     31       0.1976      1.00000
     32       0.8012      1.00000
     33       0.8012      1.00000
     34       1.0229      1.00000
     35       2.0320      1.00000
     36       3.1563      1.00000
     37       6.1080      0.00000
     38       6.5956      0.00000
     39       6.8100      0.00000
     40       6.8100      0.00000
     41       7.4463      0.00000
     42       7.4463      0.00000
     43       8.3071      0.00000
     44       8.5276      0.00000
     45       8.9605      0.00000
     46       9.7629      0.00000
     47      10.6810      0.00000
     48      10.6810      0.00000

 k-point     5 :       0.5000    0.2500    0.0000
  band No.  band energies     occupation 
      1     -13.9812      1.00000
      2     -13.9812      1.00000
      3     -13.9618      1.00000
      4     -13.9618      1.00000
      5     -13.8993      1.00000
      6     -13.8993      1.00000
      7     -13.8968      1.00000
      8     -13.8968      1.00000
      9     -13.8927      1.00000
     10     -13.8927      1.00000
     11     -13.8831      1.00000
     12     -13.8831      1.00000
     13     -13.8452      1.00000
     14     -13.8451      1.00000
     15     -13.8448      1.00000
     16     -13.8447      1.00000
     17     -13.8356      1.00000
     18     -13.8355      1.00000
     19     -13.8338      1.00000
     20     -13.8337      1.00000
     21      -9.2768      1.00000
     22      -9.2768      1.00000
     23      -8.0388      1.00000
     24      -8.0388      1.00000
     25      -3.3950      1.00000
     26      -3.3950      1.00000
     27      -1.5266      1.00000
     28      -1.5266      1.00000
     29      -0.6414      1.00000
     30      -0.6414      1.00000
     31       0.9096      1.00000
     32       0.9096      1.00000
     33       0.9848      1.00000
     34       0.9848      1.00000
     35       2.0807      1.00000
     36       2.0807      1.00000
     37       7.3024      0.00000
     38       7.3025      0.00000
     39       7.5977      0.00000
     40       7.5977      0.00000
     41       7.8262      0.00000
     42       7.8262      0.00000
     43       9.5673      0.00000
     44       9.5673      0.00000
     45       9.6275      0.00000
     46       9.6275      0.00000
     47       9.8188      0.00000
     48       9.8188      0.00000

 k-point     6 :       0.5000    0.5000    0.0000
  band No.  band energies     occupation 
      1     -13.9688      1.00000
      2     -13.9688      1.00000
      3     -13.9688      1.00000
      4     -13.9687      1.00000
      5     -13.8964      1.00000
      6     -13.8963      1.00000
      7     -13.8963      1.00000
      8     -13.8963      1.00000
      9     -13.8954      1.00000
     10     -13.8954      1.00000
     11     -13.8953      1.00000
     12     -13.8953      1.00000
     13     -13.8398      1.00000
     14     -13.8397      1.00000
     15     -13.8397      1.00000
     16     -13.8397      1.00000
     17     -13.8382      1.00000
     18     -13.8381      1.00000
     19     -13.8381      1.00000
     20     -13.8381      1.00000
[...]
     21      -9.0975      1.00000
     22      -9.0975      1.00000
     23      -8.2064      1.00000
     24      -8.2064      1.00000
     25      -3.5461      1.00000
     26      -3.5461      1.00000
     27      -2.3287      1.00000
     28      -2.3287      1.00000
     29       0.0167      1.00000
     30       0.0167      1.00000
     31       1.3837      1.00000
     32       1.3837      1.00000
     33       1.6221      1.00000
     34       1.6221      1.00000
     35       1.9166      1.00000
     36       1.9166      1.00000
     37       6.4701      0.00000
     38       6.4701      0.00000
     39       7.3114      0.00000
     40       7.3114      0.00000
     41       8.3894      0.00000
     42       8.3894      0.00000
     43       8.4737      0.00000
     44       8.4737      0.00000
     45       9.9348      0.00000
     46       9.9348      0.00000
     47      10.5420      0.00000
     48      10.5479      0.00000

 k-point     9 :       0.5000    0.5000    0.2500
  band No.  band energies     occupation 
      1     -13.9693      1.00000
      2     -13.9693      1.00000
      3     -13.9693      1.00000
      4     -13.9692      1.00000
      5     -13.8981      1.00000
      6     -13.8980      1.00000
      7     -13.8980      1.00000
      8     -13.8980      1.00000
      9     -13.8976      1.00000
     10     -13.8976      1.00000
     11     -13.8976      1.00000
     12     -13.8976      1.00000
     13     -13.8376      1.00000
     14     -13.8375      1.00000
     15     -13.8375      1.00000
     16     -13.8375      1.00000
     17     -13.8369      1.00000
     18     -13.8367      1.00000
     19     -13.8367      1.00000
     20     -13.8367      1.00000
     21      -8.6503      1.00000
     22      -8.6503      1.00000
     23      -8.6503      1.00000
     24      -8.6503      1.00000
     25      -3.2706      1.00000
     26      -3.2706      1.00000
     27      -3.2706      1.00000
     28      -3.2706      1.00000
     29       0.9973      1.00000
     30       0.9973      1.00000
     31       0.9973      1.00000
     32       0.9973      1.00000
     33       2.1892      1.00000
     34       2.1892      1.00000
     35       2.1892      1.00000
     36       2.1892      1.00000
     37       6.3368      0.00000
     38       6.3368      0.00000
     39       6.3368      0.00000
     40       6.3368      0.00000
     41       8.8131      0.00000
     42       8.8131      0.00000
     43       8.8131      0.00000
     44       8.8131      0.00000
     45       9.3870      0.00000
     46       9.3870      0.00000
     47       9.3870      0.00000
     48       9.3870      0.00000

 k-point    10 :       0.5000    0.5000    0.5000
  band No.  band energies     occupation 
      1     -13.9699      1.00000
      2     -13.9699      1.00000
      3     -13.9698      1.00000
      4     -13.9698      1.00000
      5     -13.8997      1.00000
      6     -13.8997      1.00000
      7     -13.8997      1.00000
      8     -13.8997      1.00000
      9     -13.8997      1.00000
     10     -13.8997      1.00000
     11     -13.8997      1.00000
     12     -13.8997      1.00000
     13     -13.8356      1.00000
     14     -13.8356      1.00000
     15     -13.8355      1.00000
     16     -13.8355      1.00000
     17     -13.8355      1.00000
     18     -13.8355      1.00000
     19     -13.8355      1.00000
     20     -13.8355      1.00000
     21      -8.5820      1.00000
     22      -8.5820      1.00000
     23      -8.5820      1.00000
     24      -8.5820      1.00000
     25      -3.7327      1.00000
     26      -3.7327      1.00000
     27      -3.7327      1.00000
     28      -3.7327      1.00000
     29       2.2295      1.00000
     30       2.2295      1.00000
     31       2.2295      1.00000
     32       2.2295      1.00000
     33       2.2295      1.00000
     34       2.2295      1.00000
     35       2.2295      1.00000
     36       2.2295      1.00000
     37       5.2109      0.00000
     38       5.2109      0.00000
     39       5.2109      0.00000
     40       5.2109      0.00000
     41       8.9272      0.00000
     42       8.9272      0.00000
     43       8.9272      0.00000
     44       8.9272      0.00000
     45       8.9272      0.00000
     46       8.9272      0.00000
     47       8.9272      0.00000
     48       8.9272      0.00000


--------------------------------------------------------------------------------------------------------


 soft charge-density along one line, spin component           1
         0         1         2         3         4         5         6         7         8         9
 total charge-density along one line
 
 soft charge-density along one line, spin component           2
         0         1         2         3         4         5         6         7         8         9
 total charge-density along one line
 
 pseudopotential strength for first ion, spin component:           1
-11.469   0.000  -0.000  -0.000  -0.000   0.324  -0.000   0.000
  0.000 -11.469  -0.000   0.000   0.000  -0.000   0.324   0.000
 -0.000  -0.000 -11.467   0.000  -0.000   0.000   0.000   0.321
 -0.000   0.000   0.000 -11.469   0.000   0.000   0.000  -0.000
 -0.000   0.000  -0.000   0.000 -11.467   0.000  -0.000   0.000
  0.324  -0.000   0.000   0.000   0.000   4.967   0.000  -0.000
 -0.000   0.324   0.000   0.000  -0.000   0.000   4.967   0.000
  0.000   0.000   0.321  -0.000   0.000  -0.000   0.000   4.966
  0.000   0.000  -0.000   0.324  -0.000  -0.000   0.000   0.000
  0.000  -0.000   0.000  -0.000   0.321   0.000  -0.000   0.000
 -0.000  -0.000   0.000  -0.000  -0.000   0.000   0.000   0.000
  0.000   0.000   0.000   0.000   0.000  -0.000  -0.000   0.000
 -0.000  -0.000   0.000   0.002  -0.000   0.000  -0.000  -0.000
  0.002   0.000  -0.000  -0.000  -0.000  -0.006  -0.000   0.000
 -0.000   0.002  -0.000  -0.000  -0.000  -0.000  -0.006  -0.000
  0.000  -0.000  -0.000  -0.016   0.000  -0.000  -0.000   0.000
 -0.016  -0.000   0.000   0.000   0.000   0.007   0.000  -0.000
 -0.000  -0.016  -0.000   0.000   0.000   0.000   0.007   0.000
 pseudopotential strength for first ion, spin component:           2
-11.469  -0.000  -0.000   0.000   0.000   0.324   0.000   0.000
 -0.000 -11.469   0.000   0.000  -0.000   0.000   0.324  -0.000
 -0.000   0.000 -11.467   0.000  -0.000   0.000  -0.000   0.321
  0.000   0.000   0.000 -11.469   0.000  -0.000  -0.000  -0.000
  0.000  -0.000  -0.000   0.000 -11.467  -0.000   0.000   0.000
  0.324   0.000   0.000  -0.000  -0.000   4.967  -0.000   0.000
  0.000   0.324  -0.000  -0.000   0.000  -0.000   4.967  -0.000
  0.000  -0.000   0.321  -0.000   0.000   0.000  -0.000   4.966
 -0.000  -0.000  -0.000   0.324  -0.000   0.000   0.000  -0.000
 -0.000   0.000   0.000  -0.000   0.321   0.000   0.000   0.000
  0.000   0.000   0.000   0.000  -0.000  -0.000  -0.000   0.000
 -0.000  -0.000   0.000  -0.000   0.000   0.000   0.000   0.000
  0.000  -0.000   0.000   0.002   0.000   0.000   0.000  -0.000
  0.002  -0.000  -0.000   0.000   0.000  -0.006   0.000  -0.000
 -0.000   0.002  -0.000   0.000   0.000   0.000  -0.006  -0.000
 -0.000   0.000  -0.000  -0.016  -0.000  -0.000  -0.000  -0.000
 -0.016   0.000  -0.000  -0.000  -0.000   0.007   0.000   0.000
  0.000  -0.016   0.000  -0.000  -0.000   0.000   0.007   0.000
 total augmentation occupancy for first ion, spin component:           1
  1.994  -0.000  -0.000   0.000   0.000   0.002  -0.000  -0.000   0.000   0.000   0.000   0.000   0.000   0.023  -0.000   0.000
 -0.000   1.994   0.000   0.000  -0.000  -0.000   0.002   0.000   0.000  -0.000   0.000   0.000   0.000   0.000   0.023  -0.000
 -0.000   0.000   1.991   0.000  -0.000  -0.000   0.000  -0.009   0.000  -0.000  -0.000  -0.000   0.000   0.000   0.000   0.000
  0.000   0.000   0.000   1.994  -0.000  -0.000   0.000  -0.000   0.002   0.000   0.000   0.000   0.023   0.000  -0.000   0.003
  0.000  -0.000  -0.000  -0.000   1.991   0.000  -0.000  -0.000  -0.000  -0.009  -0.000  -0.000  -0.000   0.000  -0.000  -0.000
  0.002  -0.000  -0.000  -0.000   0.000   0.046  -0.000   0.000  -0.000  -0.000  -0.000  -0.000  -0.000   0.162   0.000  -0.000
 -0.000   0.002   0.000   0.000  -0.000  -0.000   0.046   0.000  -0.000   0.000  -0.000   0.000   0.000  -0.000   0.162  -0.000
 -0.000   0.000  -0.009  -0.000  -0.000   0.000   0.000   0.012  -0.000   0.000  -0.000  -0.000  -0.000   0.000  -0.000  -0.000
  0.000   0.000   0.000   0.002  -0.000  -0.000  -0.000  -0.000   0.046   0.000  -0.000  -0.000   0.162  -0.000  -0.000   0.003
  0.000  -0.000  -0.000   0.000  -0.009  -0.000   0.000   0.000   0.000   0.012  -0.000  -0.000   0.000  -0.000   0.000   0.000
  0.000   0.000  -0.000   0.000  -0.000  -0.000  -0.000  -0.000  -0.000  -0.000   1.413   0.041   0.000   0.000   0.000  -0.000
  0.000   0.000  -0.000   0.000  -0.000  -0.000   0.000  -0.000  -0.000  -0.000   0.041   0.002  -0.000  -0.000   0.000  -0.000
  0.000   0.000   0.000   0.023  -0.000  -0.000   0.000  -0.000   0.162   0.000   0.000  -0.000   0.937  -0.000  -0.000   0.019
  0.023   0.000   0.000   0.000   0.000   0.162  -0.000   0.000  -0.000  -0.000   0.000  -0.000  -0.000   0.937   0.000  -0.000
 -0.000   0.023   0.000  -0.000  -0.000   0.000   0.162  -0.000  -0.000   0.000   0.000   0.000  -0.000   0.000   0.937  -0.000
  0.000  -0.000   0.000   0.003  -0.000  -0.000  -0.000  -0.000   0.003   0.000  -0.000  -0.000   0.019  -0.000  -0.000   0.000
  0.003   0.000   0.000   0.000  -0.000   0.003   0.000  -0.000  -0.000  -0.000  -0.000  -0.000  -0.000   0.019   0.000  -0.000
  0.000   0.003   0.000   0.000   0.000  -0.000   0.003   0.000  -0.000  -0.000  -0.000   0.000   0.000  -0.000   0.019  -0.000
 total augmentation occupancy for first ion, spin component:           2
 -0.000   0.000   0.000  -0.000  -0.000  -0.000   0.000   0.000  -0.000   0.000  -0.000  -0.000  -0.000   0.000  -0.000   0.000
  0.000  -0.000  -0.000   0.000   0.000   0.000  -0.000  -0.000   0.000   0.000  -0.000  -0.000  -0.000  -0.000   0.000  -0.000
  0.000  -0.000  -0.000   0.000   0.000   0.000  -0.000  -0.000   0.000   0.000   0.000   0.000   0.000  -0.000   0.000   0.000
 -0.000   0.000   0.000  -0.000  -0.000   0.000   0.000   0.000  -0.000  -0.000  -0.000  -0.000   0.000   0.000   0.000   0.000
 -0.000   0.000   0.000  -0.000  -0.000  -0.000   0.000   0.000  -0.000  -0.000  -0.000  -0.000   0.000   0.000  -0.000   0.000
 -0.000   0.000   0.000   0.000  -0.000  -0.000   0.000  -0.000  -0.000   0.000   0.000   0.000  -0.000  -0.000   0.000  -0.000
  0.000  -0.000  -0.000   0.000   0.000   0.000  -0.000  -0.000  -0.000   0.000   0.000   0.000  -0.000  -0.000  -0.000  -0.000
  0.000  -0.000  -0.000   0.000   0.000  -0.000  -0.000  -0.000   0.000  -0.000  -0.000   0.000   0.000  -0.000  -0.000  -0.000
 -0.000   0.000   0.000  -0.000  -0.000  -0.000  -0.000   0.000  -0.000  -0.000  -0.000  -0.000  -0.000   0.000  -0.000   0.000
  0.000   0.000   0.000  -0.000  -0.000   0.000   0.000  -0.000  -0.000  -0.000  -0.000   0.000   0.000  -0.000  -0.000   0.000
 -0.000  -0.000   0.000  -0.000  -0.000   0.000   0.000  -0.000  -0.000  -0.000   0.000  -0.000  -0.000  -0.000  -0.000   0.000
 -0.000  -0.000   0.000  -0.000  -0.000   0.000   0.000   0.000  -0.000   0.000  -0.000   0.000  -0.000   0.000   0.000  -0.000
 -0.000  -0.000   0.000   0.000   0.000  -0.000  -0.000   0.000  -0.000   0.000  -0.000  -0.000   0.000   0.000   0.000  -0.000
  0.000  -0.000  -0.000   0.000   0.000  -0.000  -0.000  -0.000   0.000  -0.000  -0.000   0.000   0.000   0.000   0.000   0.000
 -0.000   0.000   0.000   0.000  -0.000   0.000  -0.000  -0.000  -0.000  -0.000  -0.000   0.000   0.000   0.000   0.000   0.000
  0.000  -0.000   0.000   0.000   0.000  -0.000  -0.000  -0.000   0.000   0.000   0.000  -0.000  -0.000   0.000   0.000   0.000
  0.000  -0.000  -0.000   0.000   0.000   0.000   0.000   0.000  -0.000   0.000   0.000   0.000  -0.000   0.000   0.000   0.000
 -0.000   0.000   0.000  -0.000  -0.000  -0.000   0.000   0.000  -0.000   0.000   0.000   0.000  -0.000  -0.000  -0.000  -0.000


------------------------ aborting loop because EDIFF is reached ----------------------------------------





 total charge

# of ion       s       p       d       tot
------------------------------------------
    1        0.841   0.795  10.009  11.645
    2        0.841   0.795  10.009  11.645
    3        0.841   0.795  10.009  11.645
    4        0.841   0.795  10.009  11.645
    5        1.219   1.643   0.032   2.893
    6        1.219   1.643   0.032   2.893
    7        1.219   1.643   0.032   2.893
    8        1.219   1.643   0.032   2.893
--------------------------------------------------
tot          8.240   9.750  40.163  58.153



 magnetization (x)

# of ion       s       p       d       tot
------------------------------------------
    1       -0.000   0.000  -0.000  -0.000
    2       -0.000   0.000  -0.000  -0.000
    3       -0.000   0.000  -0.000  -0.000
    4       -0.000   0.000  -0.000  -0.000
    5       -0.000   0.000   0.000   0.000
    6       -0.000   0.000   0.000   0.000
    7       -0.000   0.000   0.000   0.000
    8       -0.000   0.000   0.000   0.000
--------------------------------------------------
tot         -0.000   0.000  -0.000   0.000
 
    CHARGE:  cpu time      0.0973: real time      0.0975
    FORLOC:  cpu time      0.0010: real time      0.0010
    FORHF :  cpu time     30.2539: real time     30.3301
    FORNL :  cpu time      0.0437: real time      0.0439
    FORCOR:  cpu time      1.1924: real time      1.1958
    FORHAR:  cpu time      0.0051: real time      0.0053
    MIXING:  cpu time      0.0007: real time      0.0007
    OFIELD:  cpu time      0.0009: real time      0.0012

 VOLUME and BASIS-vectors are now :
 -----------------------------------------------------------------------------
  energy-cutoff  :      680.00
  volume of cell :      181.60
      direct lattice vectors                 reciprocal lattice vectors
     5.662893029  0.000000000  0.000000000     0.176588185  0.000000000  0.000000000
    -0.000000000  5.662893029  0.000000000     0.000000000  0.176588185  0.000000000
     0.000000000  0.000000000  5.662893029    -0.000000000 -0.000000000  0.176588185

  length of vectors
     5.662893029  5.662893029  5.662893029     0.176588185  0.176588185  0.176588185


 FORCES acting on ions
    electron-ion (+dipol)            ewald-force                    non-local-force                 convergence-correction
 -----------------------------------------------------------------------------------------------
   0.568E-05 -.460E-05 -.540E-07   -.284E-13 -.284E-13 -.142E-13   0.332E-17 -.755E-17 0.475E-16   -.192E-04 0.935E-05 0.182E-05
   -.339E-05 0.719E-05 0.272E-05   -.284E-13 -.142E-13 -.142E-13   0.484E-18 -.748E-17 -.223E-16   0.278E-04 -.828E-05 0.487E-05
   0.288E-05 -.531E-05 -.259E-05   -.284E-13 -.426E-13 -.142E-13   -.335E-17 0.187E-16 0.181E-16   0.271E-04 0.237E-04 -.377E-05
   0.203E-05 -.300E-05 0.420E-05   -.568E-13 -.284E-13 -.142E-13   0.239E-18 0.571E-17 0.482E-17   -.350E-04 -.219E-04 -.149E-04
   -.246E-04 -.257E-04 -.301E-04   0.278E-13 0.267E-13 -.414E-15   0.462E-17 -.977E-17 -.528E-17   0.387E-04 0.413E-04 0.482E-04
   -.240E-04 0.246E-04 0.301E-04   0.277E-13 0.300E-13 0.146E-13   0.302E-17 -.298E-17 -.620E-17   0.388E-04 -.404E-04 -.464E-04
   0.237E-04 0.254E-04 -.294E-04   0.292E-13 0.279E-13 -.500E-15   -.738E-17 -.125E-17 0.101E-17   -.383E-04 -.442E-04 0.462E-04
   0.247E-04 -.244E-04 0.293E-04   0.291E-13 0.293E-13 0.146E-13   0.967E-18 0.663E-17 -.681E-18   -.390E-04 0.392E-04 -.491E-04
 -----------------------------------------------------------------------------------------------
   0.690E-05 -.576E-05 0.417E-05   -.283E-13 0.309E-15 -.286E-13   0.192E-17 0.206E-17 0.370E-16   0.988E-06 -.118E-05 -.130E-04
 
 
 POSITION                                       TOTAL-FORCE (eV/Angst)
 -----------------------------------------------------------------------------------
      0.00000      0.00000      0.00000         0.000000     -0.000000      0.000000
      2.83145      2.83145      0.00000        -0.000000     -0.000000      0.000000
      2.83145      0.00000      2.83145         0.000000      0.000000     -0.000000
     -0.00000      2.83145      2.83145         0.000000     -0.000000     -0.000000
      1.41572      1.41572      1.41572         0.000000     -0.000000      0.000000
      1.41572      4.24717      4.24717         0.000000      0.000000      0.000000
      4.24717      4.24717      1.41572        -0.000000     -0.000000     -0.000000
      4.24717      1.41572      4.24717        -0.000000      0.000000     -0.000000
 -----------------------------------------------------------------------------------
    total drift:                                0.000008     -0.000007     -0.000009


--------------------------------------------------------------------------------------------------------



  FREE ENERGIE OF THE ION-ELECTRON SYSTEM (eV)
  ---------------------------------------------------
  free  energy   TOTEN  =       -39.56404178 eV

  energy  without entropy=      -39.56404178  energy(sigma->0) =      -39.56404178
 


--------------------------------------------------------------------------------------------------------


    POTLOK:  cpu time      1.1971: real time      1.2005


--------------------------------------------------------------------------------------------------------


 writing wavefunctions
     LOOP+:  cpu time    531.2026: real time    534.8924
    4ORBIT:  cpu time      0.0000: real time      0.0000



 total charge

# of ion       s       p       d       tot
------------------------------------------
    1        0.841   0.795  10.009  11.645
    2        0.841   0.795  10.009  11.645
    3        0.841   0.795  10.009  11.645
    4        0.841   0.795  10.009  11.645
    5        1.219   1.643   0.032   2.893
    6        1.219   1.643   0.032   2.893
    7        1.219   1.643   0.032   2.893
    8        1.219   1.643   0.032   2.893
--------------------------------------------------
tot          8.240   9.750  40.163  58.153



 magnetization (x)

# of ion       s       p       d       tot
------------------------------------------
    1       -0.000   0.000  -0.000  -0.000
    2       -0.000   0.000  -0.000  -0.000
    3       -0.000   0.000  -0.000  -0.000
    4       -0.000   0.000  -0.000  -0.000
    5       -0.000   0.000   0.000   0.000
    6       -0.000   0.000   0.000   0.000
    7       -0.000   0.000   0.000   0.000
    8       -0.000   0.000   0.000   0.000
--------------------------------------------------
tot         -0.000   0.000  -0.000   0.000
 
 BZINTS: Fermi energy:    3.537783;   72.000000 electrons
         Band energy:-0.628283E+03;  BLOECHL correction:    0.000000

 total amount of memory used by VASP MPI-rank0    41939. kBytes
=======================================================================

   base      :      30000. kBytes
   nonl-proj :       2346. kBytes
   fftplans  :        823. kBytes
   grid      :       1678. kBytes
   one-center:         31. kBytes
   HF        :         64. kBytes
   nonlr-proj:       1120. kBytes
   wavefun   :       1029. kBytes
   fock_wrk  :       4848. kBytes
 
  
  
 General timing and accounting informations for this job:
 ========================================================
  
                  Total CPU time used (sec):      545.494
                            User time (sec):      542.158
                          System time (sec):        3.336
                         Elapsed time (sec):      557.767
  
                   Maximum memory used (kb):      291052.
                   Average memory used (kb):          N/A
  
                          Minor page faults:        68678
                          Major page faults:            0
                 Voluntary context switches:        12058
