 vasp.6.4.2 20Jul23 (build Mar 15 2024 16:31:38) complex                        
  
 executed on             LinuxIFC date 2025.03.19  14:49:03
 running  120 mpi-ranks, on    3 nodes
 distrk:  each k-point on  120 cores,    1 groups
 distr:  one band on NCORE=  10 cores,   12 groups


--------------------------------------------------------------------------------------------------------


 INCAR:
   ALGO = Fast
   EDIFF = 1e-05
   ENAUG = 1360
   ENCUT = 680
   GGA = Ps
   ISMEAR = -5
   ISPIN = 2
   LAECHG = True
   LASPH = True
   LCHARG = True
   LELF = False
   LMAXMIX = 4
   LMIXTAU = True
   LORBIT = 11
   LREAL = False
   LVTOT = True
   LWAVE = True
   MAGMOM = 16*0.6
   NCORE = 10
   NELM = 200
   NSW = 0
   PREC = Accurate
   SIGMA = 0.2

 POTCAR:    PAW_PBE Cu 22Jun2005                  
 POTCAR:    PAW_PBE Sb 06Sep2000                  
 POTCAR:    PAW_PBE S 06Sep2000                   
 WARNING: For LVTOT=.TRUE., VASP.5.x writes the TOTAL local potential to the
     file LOCPOT. If you want only the Hartree contributions, use LVHAR=.TRUE.
     instead. 

 POTCAR:    PAW_PBE Cu 22Jun2005                  
   VRHFIN =Cu: d10 p1                                                                               
   LEXCH  = PE                                                                                      
   EATOM  =  1390.9808 eV,  102.2342 Ry                                                             
                                                                                                    
   TITEL  = PAW_PBE Cu 22Jun2005                                                                    
   LULTRA =        F    use ultrasoft PP ?                                                          
   IUNSCR =        1    unscreen: 0-lin 1-nonlin 2-no                                               
   RPACOR =    2.000    partial core radius                                                         
   POMASS =   63.546; ZVAL   =   11.000    mass and valenz                                          
   RCORE  =    2.300    outmost cutoff radius                                                       
   RWIGS  =    2.200; RWIGS  =    1.164    wigner-seitz radius (au A)                               
   ENMAX  =  295.446; ENMIN  =  221.585 eV                                                          
   ICORE  =        3    local potential                                                             
   LCOR   =        T    correct aug charges                                                         
   LPAW   =        T    paw PP                                                                      
   EAUG   =  586.980                                                                                
   DEXC   =    0.000                                                                                
   RMAX   =    2.344    core radius for proj-oper                                                   
   RAUG   =    1.300    factor for augmentation sphere                                              
   RDEP   =    2.302    radius for radial grids                                                     
   RDEPT  =    1.771    core radius for aug-charge                                                  
                                                                                                    
   Atomic configuration                                                                             
    9 entries                                                                                       
     n  l   j            E        occ.                                                              
     1  0  0.50     -8850.2468   2.0000                                                             
     2  0  0.50     -1062.3498   2.0000                                                             
     2  1  1.50      -916.8226   6.0000                                                             
     3  0  0.50      -114.6929   2.0000                                                             
     3  1  1.50       -72.1325   6.0000                                                             
     3  2  2.50        -5.0394  10.0000                                                             
     4  0  0.50        -4.6097   1.0000                                                             
     4  1  0.50        -4.0817   0.0000                                                             
     4  3  2.50        -1.3606   0.0000                                                             
   Description                                                                                      
     l       E           TYP  RCUT    TYP  RCUT                                                     
     2     -5.0393973     23  2.200                                                                 
     2     10.8846608     23  2.200                                                                 
     0     -4.6097109     23  2.200                                                                 
     0      8.2520465     23  2.200                                                                 
     1     -2.7211652     23  2.200                                                                 
     1     21.7055443     23  2.200                                                                 
     3      2.7211652     23  2.300                                                                 
  local pseudopotential read in
  partial core-charges read in
  partial kinetic energy density read in
  atomic valenz-charges read in
  non local Contribution for L=           2  read in
    real space projection operators read in
  non local Contribution for L=           2  read in
    real space projection operators read in
  non local Contribution for L=           0  read in
    real space projection operators read in
  non local Contribution for L=           0  read in
    real space projection operators read in
  non local Contribution for L=           1  read in
    real space projection operators read in
  non local Contribution for L=           1  read in
    real space projection operators read in
    PAW grid and wavefunctions read in
 
   number of l-projection  operators is LMAX  =           6
   number of lm-projection operators is LMMAX =          18
 
 POTCAR:    PAW_PBE Sb 06Sep2000                  
   VRHFIN =Sb: s2p3                                                                                 
   LEXCH  = PE                                                                                      
   EATOM  =   149.9515 eV,   11.0211 Ry                                                             
                                                                                                    
   TITEL  = PAW_PBE Sb 06Sep2000                                                                    
   LULTRA =        F    use ultrasoft PP ?                                                          
   IUNSCR =        1    unscreen: 0-lin 1-nonlin 2-no                                               
   RPACOR =    2.200    partial core radius                                                         
   POMASS =  121.750; ZVAL   =    5.000    mass and valenz                                          
   RCORE  =    2.300    outmost cutoff radius                                                       
   RWIGS  =    2.980; RWIGS  =    1.577    wigner-seitz radius (au A)                               
   ENMAX  =  172.069; ENMIN  =  129.052 eV                                                          
   ICORE  =        3    local potential                                                             
   LCOR   =        T    correct aug charges                                                         
   LPAW   =        T    paw PP                                                                      
   EAUG   =  380.513                                                                                
   DEXC   =    0.000                                                                                
   RMAX   =    2.346    core radius for proj-oper                                                   
   RAUG   =    1.300    factor for augmentation sphere                                              
   RDEP   =    2.360    radius for radial grids                                                     
   RDEPT  =    2.192    core radius for aug-charge                                                  
                                                                                                    
   Atomic configuration                                                                             
   13 entries                                                                                       
     n  l   j            E        occ.                                                              
     1  0  0.50    -30298.2797   2.0000                                                             
     2  0  0.50     -4610.2252   2.0000                                                             
     2  1  1.50     -4138.3407   6.0000                                                             
     3  0  0.50      -903.8815   2.0000                                                             
     3  1  1.50      -750.1337   6.0000                                                             
     3  2  2.50      -515.7092  10.0000                                                             
     4  0  0.50      -148.8034   2.0000                                                             
     4  1  1.50      -101.7581   6.0000                                                             
     4  2  2.50       -33.5048  10.0000                                                             
     5  0  0.50       -12.8298   2.0000                                                             
     5  1  0.50        -4.8276   3.0000                                                             
     5  2  1.50        -4.0817   0.0000                                                             
     4  3  2.50        -4.0817   0.0000                                                             
   Description                                                                                      
     l       E           TYP  RCUT    TYP  RCUT                                                     
     0    -12.8297861     23  2.300                                                                 
     0     13.6058260     23  2.300                                                                 
     1     -4.8275512     23  2.300                                                                 
     1     -0.7245443     23  2.300                                                                 
     2     -4.0817478     23  2.300                                                                 
     3     -1.3605826     23  2.300                                                                 
  local pseudopotential read in
  partial core-charges read in
  partial kinetic energy density read in
  atomic valenz-charges read in
  non local Contribution for L=           0  read in
    real space projection operators read in
  non local Contribution for L=           0  read in
    real space projection operators read in
  non local Contribution for L=           1  read in
    real space projection operators read in
  non local Contribution for L=           1  read in
    real space projection operators read in
  non local Contribution for L=           2  read in
    real space projection operators read in
    PAW grid and wavefunctions read in
 
   number of l-projection  operators is LMAX  =           5
   number of lm-projection operators is LMMAX =          13
 
 POTCAR:    PAW_PBE S 06Sep2000                   
   VRHFIN =S : s2p4                                                                                 
   LEXCH  = PE                                                                                      
   EATOM  =   276.8230 eV,   20.3459 Ry                                                             
                                                                                                    
   TITEL  = PAW_PBE S 06Sep2000                                                                     
   LULTRA =        F    use ultrasoft PP ?                                                          
   IUNSCR =        1    unscreen: 0-lin 1-nonlin 2-no                                               
   RPACOR =    1.500    partial core radius                                                         
   POMASS =   32.066; ZVAL   =    6.000    mass and valenz                                          
   RCORE  =    1.900    outmost cutoff radius                                                       
   RWIGS  =    2.200; RWIGS  =    1.164    wigner-seitz radius (au A)                               
   ENMAX  =  258.689; ENMIN  =  194.016 eV                                                          
   ICORE  =        2    local potential                                                             
   LCOR   =        T    correct aug charges                                                         
   LPAW   =        T    paw PP                                                                      
   EAUG   =  335.092                                                                                
   DEXC   =    0.000                                                                                
   RMAX   =    1.942    core radius for proj-oper                                                   
   RAUG   =    1.300    factor for augmentation sphere                                              
   RDEP   =    1.954    radius for radial grids                                                     
   RDEPT  =    1.744    core radius for aug-charge                                                  
                                                                                                    
   Atomic configuration                                                                             
    6 entries                                                                                       
     n  l   j            E        occ.                                                              
     1  0  0.50     -2405.8406   2.0000                                                             
     2  0  0.50      -211.7007   2.0000                                                             
     2  1  1.50      -156.4958   6.0000                                                             
     3  0  0.50       -17.2562   2.0000                                                             
     3  1  0.50        -7.0085   4.0000                                                             
     3  2  1.50        -6.8029   0.0000                                                             
   Description                                                                                      
     l       E           TYP  RCUT    TYP  RCUT                                                     
     0    -17.2561641     23  1.900                                                                 
     0    -15.8743224     23  1.900                                                                 
     1     -7.0085400     23  1.900                                                                 
     1     -2.7779785     23  1.900                                                                 
     2     -6.8029130     23  1.900                                                                 
  local pseudopotential read in
  partial core-charges read in
  partial kinetic energy density read in
  atomic valenz-charges read in
  non local Contribution for L=           0  read in
    real space projection operators read in
  non local Contribution for L=           0  read in
    real space projection operators read in
  non local Contribution for L=           1  read in
    real space projection operators read in
  non local Contribution for L=           1  read in
    real space projection operators read in
    PAW grid and wavefunctions read in
 
   number of l-projection  operators is LMAX  =           4
   number of lm-projection operators is LMMAX =           8
 
 -----------------------------------------------------------------------------
|                                                                             |
|               ----> ADVICE to this user running VASP <----                  |
|                                                                             |
|     You enforced a specific xc type in the INCAR file but a different       |
|     type was found in the POTCAR file.                                      |
|     I HOPE YOU KNOW WHAT YOU ARE DOING!                                     |
|                                                                             |
 -----------------------------------------------------------------------------

  PAW_PBE Cu 22Jun2005                  :
 energy of atom  1       EATOM=-1390.9808
 kinetic energy error for atom=    0.0018 (will be added to EATOM!!)
  PAW_PBE Sb 06Sep2000                  :
 energy of atom  2       EATOM= -149.9515
 kinetic energy error for atom=    0.0002 (will be added to EATOM!!)
  PAW_PBE S 06Sep2000                   :
 energy of atom  3       EATOM= -276.8230
 kinetic energy error for atom=    0.0008 (will be added to EATOM!!)
 
 
 POSCAR: Cu4 Sb4 S8
  positions in direct lattice
  No initial velocities read in
 exchange correlation table for  LEXCH =       14
   RHO(1)=    0.500       N(1)  =     2000
   RHO(2)=  100.500       N(2)  =     4000
 


--------------------------------------------------------------------------------------------------------


 ion  position               nearest neighbor table
   1  0.250  0.250  0.828-  14 2.28  16 2.30  12 2.31  12 2.31
   2  0.250  0.750  0.672-  16 2.28  14 2.30  10 2.31  10 2.31
   3  0.750  0.750  0.172-  15 2.28  13 2.30  11 2.31  11 2.31
   4  0.750  0.250  0.328-  13 2.28  15 2.30   9 2.31   9 2.31
   5  0.250  0.729  0.435-   9 2.45  13 2.59  13 2.59  10 3.18  10 3.18
   6  0.750  0.271  0.565-  10 2.45  16 2.59  16 2.59   9 3.18   9 3.18
   7  0.250  0.229  0.065-  11 2.45  15 2.59  15 2.59  12 3.18  12 3.18
   8  0.750  0.771  0.935-  12 2.45  14 2.59  14 2.59  11 3.18  11 3.18
   9  0.250  0.124  0.401-   4 2.31   4 2.31   5 2.45   6 3.18   6 3.18
  10  0.750  0.876  0.599-   2 2.31   2 2.31   6 2.45   5 3.18   5 3.18
  11  0.250  0.624  0.099-   3 2.31   3 2.31   7 2.45   8 3.18   8 3.18
  12  0.750  0.376  0.901-   1 2.31   1 2.31   8 2.45   7 3.18   7 3.18
  13  0.750  0.624  0.322-   4 2.28   3 2.30   5 2.59   5 2.59
  14  0.250  0.876  0.822-   1 2.28   2 2.30   8 2.59   8 2.59
  15  0.750  0.124  0.178-   3 2.28   4 2.30   7 2.59   7 2.59
  16  0.250  0.376  0.678-   2 2.28   1 2.30   6 2.59   6 2.59
 
  LATTYP: Found a simple orthorhombic cell.
 ALAT       =     3.8015747400
 B/A-ratio  =     1.5978432559
 C/A-ratio  =     3.8120414489
  
  Lattice vectors:
  
 A1 = (   3.8015747400,   0.0000000000,   0.0000000000)
 A2 = (  -0.0000000000,   6.0743205600,   0.0000000000)
 A3 = (   0.0000000000,   0.0000000000,  14.4917604800)


Analysis of symmetry for initial positions (statically):
=====================================================================
 Subroutine PRICEL returns:
 Original cell was already a primitive cell.
 

 Routine SETGRP: Setting up the symmetry group for a 
 simple orthorhombic supercell.


 Subroutine GETGRP returns: Found  8 space group operations
 (whereof  2 operations were pure point group operations)
 out of a pool of  8 trial point group operations.


The static configuration has the point symmetry S_2 .
 The point group associated with its full space group is D_2h.


Analysis of symmetry for dynamics (positions and initial velocities):
=====================================================================
 Subroutine PRICEL returns:
 Original cell was already a primitive cell.
 

 Routine SETGRP: Setting up the symmetry group for a 
 simple orthorhombic supercell.


 Subroutine GETGRP returns: Found  8 space group operations
 (whereof  2 operations were pure point group operations)
 out of a pool of  8 trial point group operations.


The dynamic configuration has the point symmetry S_2 .
 The point group associated with its full space group is D_2h.


Analysis of structural, dynamic, and magnetic symmetry:
=====================================================================
 Subroutine PRICEL returns:
 Original cell was already a primitive cell.
 

 Routine SETGRP: Setting up the symmetry group for a 
 simple orthorhombic supercell.


 Subroutine GETGRP returns: Found  8 space group operations
 (whereof  2 operations were pure point group operations)
 out of a pool of  8 trial point group operations.


The overall configuration has the point symmetry S_2 .
 The point group associated with its full space group is D_2h.


 Subroutine INISYM returns: Found  8 space group operations
 (whereof  2 operations are pure point group operations),
 and found     1 'primitive' translations


----------------------------------------------------------------------------------------

                                     Primitive cell                                     

  volume of cell :     334.6435

  direct lattice vectors                    reciprocal lattice vectors
     3.801574740  0.000000000  0.000000000     0.263048886  0.000000000  0.000000000
    -0.000000000  6.074320560  0.000000000     0.000000000  0.164627466  0.000000000
     0.000000000  0.000000000 14.491760480    -0.000000000 -0.000000000  0.069004729

  length of vectors
     3.801574740  6.074320560 14.491760480     0.263048886  0.164627466  0.069004729

  position of ions in fractional coordinates (direct lattice)
     0.250000000  0.250101620  0.828218420
     0.250000000  0.750101620  0.671781580
     0.750000000  0.749898380  0.171781580
     0.750000000  0.249898380  0.328218420
     0.250000000  0.728812000  0.434587410
     0.750000000  0.271188000  0.565412590
     0.250000000  0.228812000  0.065412590
     0.750000000  0.771188000  0.934587410
     0.250000000  0.123685860  0.401045160
     0.750000000  0.876314140  0.598954840
     0.250000000  0.623685860  0.098954840
     0.750000000  0.376314140  0.901045160
     0.750000000  0.624272650  0.321577210
     0.250000000  0.875727350  0.821577210
     0.750000000  0.124272650  0.178422790
     0.250000000  0.375727350  0.678422790

  ion indices of the primitive-cell ions
   primitive index   ion index
                 1           1
                 2           2
                 3           3
                 4           4
                 5           5
                 6           6
                 7           7
                 8           8
                 9           9
                10          10
                11          11
                12          12
                13          13
                14          14
                15          15
                16          16

----------------------------------------------------------------------------------------

 
 
 KPOINTS: pymatgen with grid density = 759 / numbe

Automatic generation of k-mesh.
 Grid dimensions read from file:
 generate k-points for:    6    4    1

 Generating k-lattice:

  Cartesian coordinates                     Fractional coordinates (reciprocal lattice)
     0.043841481  0.000000000  0.000000000     0.166666667 -0.000000000  0.000000000
     0.000000000  0.041156866  0.000000000     0.000000000  0.250000000  0.000000000
    -0.000000000 -0.000000000  0.069004729     0.000000000 -0.000000000  1.000000000

  Length of vectors
     0.043841481  0.041156866  0.069004729

  Shift w.r.t. Gamma in fractional coordinates (k-lattice)
     0.000000000  0.000000000  0.000000000

 TETIRR: Found     72 inequivalent tetrahedra from      144
 
 Subroutine IBZKPT returns following result:
 ===========================================
 
 Found     12 irreducible k-points:
 
 Following reciprocal coordinates:
            Coordinates               Weight
  0.000000  0.000000  0.000000      1.000000
  0.166667  0.000000  0.000000      2.000000
  0.333333  0.000000  0.000000      2.000000
  0.500000  0.000000  0.000000      1.000000
  0.000000  0.250000  0.000000      2.000000
  0.166667  0.250000  0.000000      4.000000
  0.333333  0.250000  0.000000      4.000000
  0.500000  0.250000  0.000000      2.000000
  0.000000  0.500000  0.000000      1.000000
  0.166667  0.500000  0.000000      2.000000
  0.333333  0.500000  0.000000      2.000000
  0.500000  0.500000  0.000000      1.000000
 
 Following cartesian coordinates:
            Coordinates               Weight
  0.000000  0.000000  0.000000      1.000000
  0.043841  0.000000  0.000000      2.000000
  0.087683  0.000000  0.000000      2.000000
  0.131524  0.000000  0.000000      1.000000
  0.000000  0.041157  0.000000      2.000000
  0.043841  0.041157  0.000000      4.000000
  0.087683  0.041157  0.000000      4.000000
  0.131524  0.041157  0.000000      2.000000
  0.000000  0.082314  0.000000      1.000000
  0.043841  0.082314  0.000000      2.000000
  0.087683  0.082314  0.000000      2.000000
  0.131524  0.082314  0.000000      1.000000
 


--------------------------------------------------------------------------------------------------------




 Dimension of arrays:
   k-points           NKPTS =     12   k-points in BZ     NKDIM =     12   number of bands    NBANDS=     72
   number of dos      NEDOS =    301   number of ions     NIONS =     16
   non local maximal  LDIM  =      6   non local SUM 2l+1 LMDIM =     18
   total plane-waves  NPLWV = 217728
   max r-space proj   IRMAX =      1   max aug-charges    IRDMAX=  36303
   dimension x,y,z NGX =    32 NGY =   54 NGZ =  126
   dimension x,y,z NGXF=    64 NGYF=  108 NGZF=  252
   support grid    NGXF=    64 NGYF=  108 NGZF=  252
   ions per type =               4   4   8
   NGX,Y,Z   is equivalent  to a cutoff of  13.99, 14.78, 14.45 a.u.
   NGXF,Y,Z  is equivalent  to a cutoff of  27.99, 29.56, 28.91 a.u.

 SYSTEM =  unknown system                          
 POSCAR =  Cu4 Sb4 S8                              

 Startparameter for this run:
   NWRITE =      2    write-flag & timer
   PREC   = accura    normal or accurate (medium, high low for compatibility)
   ISTART =      0    job   : 0-new  1-cont  2-samecut
   ICHARG =      2    charge: 1-file 2-atom 10-const
   ISPIN  =      2    spin polarized calculation?
   LNONCOLLINEAR =      F non collinear calculations
   LSORBIT =      F    spin-orbit coupling
   INIWAV =      1    electr: 0-lowe 1-rand  2-diag
   LASPH  =      T    aspherical Exc in radial PAW
 Electronic Relaxation 1
   ENCUT  =  680.0 eV  49.98 Ry    7.07 a.u.   8.08 12.92 30.81*2*pi/ulx,y,z
   ENINI  =  680.0     initial cutoff
   ENAUG  = 1360.0 eV  augmentation charge cutoff
   NELM   =    200;   NELMIN=  2; NELMDL= -5     # of ELM steps 
   EDIFF  = 0.1E-04   stopping-criterion for ELM
   LREAL  =      F    real-space projection
   NLSPLINE    = F    spline interpolate recip. space projectors
   LCOMPAT=      F    compatible to vasp.4.4
   GGA_COMPAT  = T    GGA compatible to vasp.4.4-vasp.4.6
   LMAXPAW     = -100 max onsite density
   LMAXMIX     =    4 max onsite mixed and CHGCAR
   VOSKOWN=      0    Vosko Wilk Nusair interpolation
   ROPT   =    0.00000   0.00000   0.00000
 Ionic relaxation
   EDIFFG = 0.1E-03   stopping-criterion for IOM
   NSW    =      0    number of steps for IOM
   NBLOCK =      1;   KBLOCK =      1    inner block; outer block 
   IBRION =     -1    ionic relax: 0-MD 1-quasi-New 2-CG
   NFREE  =      0    steps in history (QN), initial steepest desc. (CG)
   ISIF   =      2    stress and relaxation
   IWAVPR =     10    prediction:  0-non 1-charg 2-wave 3-comb
   ISYM   =      2    0-nonsym 1-usesym 2-fastsym
   LCORR  =      T    Harris-Foulkes like correction to forces

   POTIM  = 0.5000    time-step for ionic-motion
   TEIN   =    0.0    initial temperature
   TEBEG  =    0.0;   TEEND  =   0.0 temperature during run
   SMASS  =  -3.00    Nose mass-parameter (am)
   estimated Nose-frequenzy (Omega)   =  0.10E-29 period in steps = 0.13E+47 mass=  -0.330E-27a.u.
   SCALEE = 1.0000    scale energy and forces
   NPACO  =    256;   APACO  = 10.0  distance and # of slots for P.C.
   PSTRESS=    0.0 pullay stress

  Mass of Ions in am
   POMASS =  63.55121.75 32.07
  Ionic Valenz
   ZVAL   =  11.00  5.00  6.00
  Atomic Wigner-Seitz radii
   RWIGS  =  -1.00 -1.00 -1.00
  virtual crystal weights 
   VCA    =   1.00  1.00  1.00
   NELECT =     112.0000    total number of electrons
   NUPDOWN=      -1.0000    fix difference up-down

 DOS related values:
   EMIN   =  10.00;   EMAX   =-10.00  energy-range for DOS
   EFERMI =   0.00;   METHOD = LEGACY      
   ISMEAR =    -5;   SIGMA  =   0.20  broadening in eV -4-tet -1-fermi 0-gaus

 Electronic relaxation 2 (details)
   IALGO  =     68    algorithm
   LDIAG  =      T    sub-space diagonalisation (order eigenvalues)
   LSUBROT=      F    optimize rotation matrix (better conditioning)
   TURBO    =      0    0=normal 1=particle mesh
   IRESTART =      0    0=no restart 2=restart with 2 vectors
   NREBOOT  =      0    no. of reboots
   NMIN     =      0    reboot dimension
   EREF     =   0.00    reference energy to select bands
   IMIX   =      4    mixing-type and parameters
     AMIX     =   0.40;   BMIX     =  1.00
     AMIX_MAG =   1.60;   BMIX_MAG =  1.00
     AMIN     =   0.10
     WC   =   100.;   INIMIX=   1;  MIXPRE=   1;  MAXMIX= -45

 Intra band minimization:
   WEIMIN = 0.0000     energy-eigenvalue tresh-hold
   EBREAK =  0.35E-07  absolut break condition
   DEPER  =   0.30     relativ break condition  

   TIME   =   0.40     timestep for ELM

  volume/ion in A,a.u.               =      20.92       141.14
  Fermi-wavevector in a.u.,A,eV,Ry     =   1.136632  2.147924 17.577819  1.291933
  Thomas-Fermi vector in A             =   2.273338
 
 Write flags
   LWAVE        =      T    write WAVECAR
   LDOWNSAMPLE  =      F    k-point downsampling of WAVECAR
   LCHARG       =      T    write CHGCAR
   LVTOT        =      T    write LOCPOT, total local potential
   LVHAR        =      F    write LOCPOT, Hartree potential only
   LELF         =      F    write electronic localiz. function (ELF)
   LORBIT       =     11    0 simple, 1 ext, 2 COOP (PROOUT), +10 PAW based schemes


 Dipole corrections
   LMONO  =      F    monopole corrections only (constant potential shift)
   LDIPOL =      F    correct potential (dipole corrections)
   IDIPOL =      0    1-x, 2-y, 3-z, 4-all directions 
   EPSILON=  1.0000000 bulk dielectric constant

 Exchange correlation treatment:
   GGA     =    PS    GGA type
   LEXCH   =    14    internal setting for exchange type
   LIBXC   =     F    Libxc                    
   VOSKOWN =     0    Vosko Wilk Nusair interpolation
   LHFCALC =     F    Hartree Fock is set to
   LHFONE  =     F    Hartree Fock one center treatment
   AEXX    =    0.0000 exact exchange contribution

 Linear response parameters
   LEPSILON=     F    determine dielectric tensor
   LRPA    =     F    only Hartree local field effects (RPA)
   LNABLA  =     F    use nabla operator in PAW spheres
   LVEL    =     F    velocity operator in full k-point grid
   CSHIFT  =0.1000    complex shift for real part using Kramers Kronig
   OMEGAMAX=  -1.0    maximum frequency
   DEG_THRESHOLD= 0.2000000E-02 threshold for treating states as degnerate
   RTIME   =   -0.100 relaxation time in fs
  (WPLASMAI=    0.000 imaginary part of plasma frequency in eV, 0.658/RTIME)
   DFIELD  = 0.0000000 0.0000000 0.0000000 field for delta impulse in time
 
  Optional k-point grid parameters
   LKPOINTS_OPT  =     F    use optional k-point grid
   KPOINTS_OPT_MODE=     1    mode for optional k-point grid
 
 Orbital magnetization related:
   ORBITALMAG=     F  switch on orbital magnetization
   LCHIMAG   =     F  perturbation theory with respect to B field
   DQ        =  0.001000  dq finite difference perturbation B field
   LLRAUG    =     F  two centre corrections for induced B field
   LBONE     =     F  B-component reconstruction in AE one-centre
   LVGVCALC  =     T  calculate vGv susceptibility
   LVGVAPPL  =     F  apply vGv susceptibility instead of pGv for G=0

 Random number generation:
   RANDOM_GENERATOR = DEFAULT
   PCG_SEED         = not used


--------------------------------------------------------------------------------------------------------


 Static calculation
 charge density and potential will be updated during run
 spin polarized calculation
 RMM-DIIS sequential band-by-band and
  variant of blocked Davidson during initial phase
 perform sub-space diagonalisation
    before iterative eigenvector-optimisation
 modified Broyden-mixing scheme, WC =      100.0
 initial mixing is a Kerker type mixing with AMIX =  0.4000 and BMIX =      1.0000
 Hartree-type preconditioning will be used
 using additional bands           16
 reciprocal scheme for non local part
 use partial core corrections
 calculate Harris-corrections to forces 
   (improved forces if not selfconsistent)
 use gradient corrections 
 use of overlap-Matrix (Vanderbilt PP)
 Fermi weights with tetrahedron method with Bloechl corrections


--------------------------------------------------------------------------------------------------------


  energy-cutoff  :      680.00
  volume of cell :      334.64
      direct lattice vectors                 reciprocal lattice vectors
     3.801574740  0.000000000  0.000000000     0.263048886  0.000000000  0.000000000
    -0.000000000  6.074320560  0.000000000     0.000000000  0.164627466  0.000000000
     0.000000000  0.000000000 14.491760480    -0.000000000 -0.000000000  0.069004729

  length of vectors
     3.801574740  6.074320560 14.491760480     0.263048886  0.164627466  0.069004729


 
 k-points in units of 2pi/SCALE and weight: pymatgen with grid density = 759 / numbe
   0.00000000  0.00000000  0.00000000       0.042
   0.04384148  0.00000000  0.00000000       0.083
   0.08768296  0.00000000  0.00000000       0.083
   0.13152444  0.00000000  0.00000000       0.042
   0.00000000  0.04115687  0.00000000       0.083
   0.04384148  0.04115687  0.00000000       0.167
   0.08768296  0.04115687  0.00000000       0.167
   0.13152444  0.04115687  0.00000000       0.083
   0.00000000  0.08231373  0.00000000       0.042
   0.04384148  0.08231373  0.00000000       0.083
   0.08768296  0.08231373  0.00000000       0.083
   0.13152444  0.08231373  0.00000000       0.042
 
 k-points in reciprocal lattice and weights: pymatgen with grid density = 759 / numbe
   0.00000000  0.00000000  0.00000000       0.042
   0.16666667  0.00000000  0.00000000       0.083
   0.33333333  0.00000000  0.00000000       0.083
   0.50000000  0.00000000  0.00000000       0.042
   0.00000000  0.25000000  0.00000000       0.083
   0.16666667  0.25000000  0.00000000       0.167
   0.33333333  0.25000000  0.00000000       0.167
   0.50000000  0.25000000  0.00000000       0.083
   0.00000000  0.50000000  0.00000000       0.042
   0.16666667  0.50000000  0.00000000       0.083
   0.33333333  0.50000000  0.00000000       0.083
   0.50000000  0.50000000  0.00000000       0.042
 
 position of ions in fractional coordinates (direct lattice) 
   0.25000000  0.25010162  0.82821842
   0.25000000  0.75010162  0.67178158
   0.75000000  0.74989838  0.17178158
   0.75000000  0.24989838  0.32821842
   0.25000000  0.72881200  0.43458741
   0.75000000  0.27118800  0.56541259
   0.25000000  0.22881200  0.06541259
   0.75000000  0.77118800  0.93458741
   0.25000000  0.12368586  0.40104516
   0.75000000  0.87631414  0.59895484
   0.25000000  0.62368586  0.09895484
   0.75000000  0.37631414  0.90104516
   0.75000000  0.62427265  0.32157721
   0.25000000  0.87572735  0.82157721
   0.75000000  0.12427265  0.17842279
   0.25000000  0.37572735  0.67842279
 
 position of ions in cartesian coordinates  (Angst):
   0.95039368  1.51919741 12.00234297
   0.95039368  4.55635769  9.73529775
   2.85118105  4.55512315  2.48941751
   2.85118106  1.51796287  4.75646273
   0.95039368  4.42703772  6.29793665
   2.85118106  1.64728284  8.19382383
   0.95039368  1.38987744  0.94794359
   2.85118105  4.68444312 13.54381689
   0.95039368  0.75130756  5.81185040
   2.85118105  5.32301300  8.67991008
   0.95039368  3.78846784  1.43402984
   2.85118105  2.28585272 13.05773064
   2.85118105  3.79203219  4.66021990
   0.95039368  5.31944865 11.90610014
   2.85118106  0.75487191  2.58566034
   0.95039368  2.28228837  9.83154058
 


--------------------------------------------------------------------------------------------------------


 k-point   1 :   0.0000 0.0000 0.0000  plane waves:   13425
 k-point   2 :   0.1667 0.0000 0.0000  plane waves:   13432
 k-point   3 :   0.3333 0.0000 0.0000  plane waves:   13486
 k-point   4 :   0.5000 0.0000 0.0000  plane waves:   13524
 k-point   5 :   0.0000 0.2500 0.0000  plane waves:   13448
 k-point   6 :   0.1667 0.2500 0.0000  plane waves:   13467
 k-point   7 :   0.3333 0.2500 0.0000  plane waves:   13496
 k-point   8 :   0.5000 0.2500 0.0000  plane waves:   13480
 k-point   9 :   0.0000 0.5000 0.0000  plane waves:   13418
 k-point  10 :   0.1667 0.5000 0.0000  plane waves:   13462
 k-point  11 :   0.3333 0.5000 0.0000  plane waves:   13474
 k-point  12 :   0.5000 0.5000 0.0000  plane waves:   13524

 maximum and minimum number of plane-waves per node :      1368     1320

 maximum number of plane-waves:     13524
 maximum index in each direction: 
   IXMAX=    8   IYMAX=   12   IZMAX=   30
   IXMIN=   -8   IYMIN=  -13   IZMIN=  -30


 parallel 3D FFT for wavefunctions:
    minimum data exchange during FFTs selected (reduces bandwidth)
 parallel 3D FFT for charge:
    minimum data exchange during FFTs selected (reduces bandwidth)


 total amount of memory used by VASP MPI-rank0    46992. kBytes
=======================================================================

   base      :      30000. kBytes
   nonl-proj :       7441. kBytes
   fftplans  :       1661. kBytes
   grid      :       4594. kBytes
   one-center:         62. kBytes
   wavefun   :       3234. kBytes
 
     INWAV:  cpu time      0.0001: real time      0.0006
 Broyden mixing: mesh for mixing (old mesh)
   NGX = 17   NGY = 25   NGZ = 61
  (NGX  = 64   NGY  =108   NGZ  =252)
  gives a total of  25925 points

 initial charge density was supplied:
 charge density of overlapping atoms calculated
 number of electron     112.0000000 magnetization       9.6000000
 keeping initial charge density in first step


--------------------------------------------------------------------------------------------------------


 Maximum index for augmentation-charges          455 (set IRDMAX)


--------------------------------------------------------------------------------------------------------


 First call to EWALD:  gamma=   0.255
 Maximum number of real-space cells 5x 3x 2
 Maximum number of reciprocal cells 2x 2x 5

    FEWALD:  cpu time      0.0027: real time      0.0030


--------------------------------------- Ionic step        1  -------------------------------------------




--------------------------------------- Iteration      1(   1)  ---------------------------------------


    POTLOK:  cpu time      0.0535: real time      0.0554
    SETDIJ:  cpu time      0.3991: real time      0.4005
     EDDAV:  cpu time      1.1089: real time      1.1165
 BZINTS: Fermi energy:   22.151903;  112.000000 electrons
         Band energy: 0.132342E+04;  BLOECHL correction:   -0.213029
       DOS:  cpu time      0.0153: real time      0.0154
    --------------------------------------------
      LOOP:  cpu time      1.5768: real time      1.5877

 eigenvalue-minimisations  :  3456
 total energy-change (2. order) : 0.1103167E+04  (-0.5147686E+04)
 number of electron     112.0000000 magnetization       9.6000000
 augmentation part      112.0000000 magnetization       9.6000000

 Free energy of the ion-electron system (eV)
  ---------------------------------------------------
  alpha Z        PSCENC =       140.40642575
  Ewald energy   TEWEN  =     -5671.52231121
  -Hartree energ DENC   =     -2980.89971617
  -exchange      EXHF   =         0.00000000
  -V(xc)+E(xc)   XCENC  =       106.15872711
  PAW double counting   =      7298.03152464    -7481.74669141
  entropy T*S    EENTRO =         0.00000000
  eigenvalues    EBANDS =      1323.42354002
  atomic energy  EATOM  =      8369.31508255
  Solvation  Ediel_sol  =         0.00000000
  ---------------------------------------------------
  free energy    TOTEN  =      1103.16658127 eV

  energy without entropy =     1103.16658127  energy(sigma->0) =     1103.16658127


--------------------------------------------------------------------------------------------------------




--------------------------------------- Iteration      1(   2)  ---------------------------------------


     EDDAV:  cpu time      1.0595: real time      1.0630
 BZINTS: Fermi energy:   10.238801;  112.000000 electrons
         Band energy: 0.323611E+03;  BLOECHL correction:   -0.225842
       DOS:  cpu time      0.0147: real time      0.0147
    --------------------------------------------
      LOOP:  cpu time      1.0742: real time      1.0777

 eigenvalue-minimisations  :  3624
 total energy-change (2. order) :-0.9998126E+03  (-0.9585301E+03)
 number of electron     112.0000000 magnetization       9.6000000
 augmentation part      112.0000000 magnetization       9.6000000

 Free energy of the ion-electron system (eV)
  ---------------------------------------------------
  alpha Z        PSCENC =       140.40642575
  Ewald energy   TEWEN  =     -5671.52231121
  -Hartree energ DENC   =     -2980.89971617
  -exchange      EXHF   =         0.00000000
  -V(xc)+E(xc)   XCENC  =       106.15872711
  PAW double counting   =      7298.03152464    -7481.74669141
  entropy T*S    EENTRO =         0.00000000
  eigenvalues    EBANDS =       323.61089765
  atomic energy  EATOM  =      8369.31508255
  Solvation  Ediel_sol  =         0.00000000
  ---------------------------------------------------
  free energy    TOTEN  =       103.35393890 eV

  energy without entropy =      103.35393890  energy(sigma->0) =      103.35393890


--------------------------------------------------------------------------------------------------------




--------------------------------------- Iteration      1(   3)  ---------------------------------------


     EDDAV:  cpu time      1.3571: real time      1.3749
 BZINTS: Fermi energy:    7.049375;  112.000000 electrons
         Band energy: 0.154489E+03;  BLOECHL correction:   -0.034249
       DOS:  cpu time      0.0141: real time      0.0142
    --------------------------------------------
      LOOP:  cpu time      1.3712: real time      1.3891

 eigenvalue-minimisations  :  4860
 total energy-change (2. order) :-0.1691219E+03  (-0.1627910E+03)
 number of electron     112.0000000 magnetization       9.6000000
 augmentation part      112.0000000 magnetization       9.6000000

 Free energy of the ion-electron system (eV)
  ---------------------------------------------------
  alpha Z        PSCENC =       140.40642575
  Ewald energy   TEWEN  =     -5671.52231121
  -Hartree energ DENC   =     -2980.89971617
  -exchange      EXHF   =         0.00000000
  -V(xc)+E(xc)   XCENC  =       106.15872711
  PAW double counting   =      7298.03152464    -7481.74669141
  entropy T*S    EENTRO =         0.00000000
  eigenvalues    EBANDS =       154.48900007
  atomic energy  EATOM  =      8369.31508255
  Solvation  Ediel_sol  =         0.00000000
  ---------------------------------------------------
  free energy    TOTEN  =       -65.76795868 eV

  energy without entropy =      -65.76795868  energy(sigma->0) =      -65.76795868


--------------------------------------------------------------------------------------------------------




--------------------------------------- Iteration      1(   4)  ---------------------------------------


     EDDAV:  cpu time      1.4141: real time      1.4284
 BZINTS: Fermi energy:    6.787376;  112.000000 electrons
         Band energy: 0.140941E+03;  BLOECHL correction:   -0.031311
       DOS:  cpu time      0.0136: real time      0.0136
    --------------------------------------------
      LOOP:  cpu time      1.4277: real time      1.4421

 eigenvalue-minimisations  :  5412
 total energy-change (2. order) :-0.1354768E+02  (-0.1335793E+02)
 number of electron     112.0000000 magnetization       9.6000000
 augmentation part      112.0000000 magnetization       9.6000000

 Free energy of the ion-electron system (eV)
  ---------------------------------------------------
  alpha Z        PSCENC =       140.40642575
  Ewald energy   TEWEN  =     -5671.52231121
  -Hartree energ DENC   =     -2980.89971617
  -exchange      EXHF   =         0.00000000
  -V(xc)+E(xc)   XCENC  =       106.15872711
  PAW double counting   =      7298.03152464    -7481.74669141
  entropy T*S    EENTRO =         0.00000000
  eigenvalues    EBANDS =       140.94132233
  atomic energy  EATOM  =      8369.31508255
  Solvation  Ediel_sol  =         0.00000000
  ---------------------------------------------------
  free energy    TOTEN  =       -79.31563642 eV

  energy without entropy =      -79.31563642  energy(sigma->0) =      -79.31563642


--------------------------------------------------------------------------------------------------------




--------------------------------------- Iteration      1(   5)  ---------------------------------------


     EDDAV:  cpu time      1.4039: real time      1.4205
 BZINTS: Fermi energy:    6.780426;  112.000000 electrons
         Band energy: 0.140701E+03;  BLOECHL correction:   -0.031336
       DOS:  cpu time      0.0140: real time      0.0140
    CHARGE:  cpu time      0.0750: real time      0.0754
    MIXING:  cpu time      0.0058: real time      0.0063
    --------------------------------------------
      LOOP:  cpu time      1.4988: real time      1.5163

 eigenvalue-minimisations  :  5352
 total energy-change (2. order) :-0.2406560E+00  (-0.2397530E+00)
 number of electron     111.9999976 magnetization       7.2183279
 augmentation part       15.5636689 magnetization       7.2334377

 Broyden mixing:
  rms(total) = 0.27314E+01    rms(broyden)= 0.27314E+01
  rms(prec ) = 0.29640E+01
  weight for this iteration     100.00

 Free energy of the ion-electron system (eV)
  ---------------------------------------------------
  alpha Z        PSCENC =       140.40642575
  Ewald energy   TEWEN  =     -5671.52231121
  -Hartree energ DENC   =     -2980.89971617
  -exchange      EXHF   =         0.00000000
  -V(xc)+E(xc)   XCENC  =       106.15872711
  PAW double counting   =      7298.03152464    -7481.74669141
  entropy T*S    EENTRO =         0.00000000
  eigenvalues    EBANDS =       140.70066630
  atomic energy  EATOM  =      8369.31508255
  Solvation  Ediel_sol  =         0.00000000
  ---------------------------------------------------
  free energy    TOTEN  =       -79.55629245 eV

  energy without entropy =      -79.55629245  energy(sigma->0) =      -79.55629245


--------------------------------------------------------------------------------------------------------




--------------------------------------- Iteration      1(   6)  ---------------------------------------


    POTLOK:  cpu time      0.0407: real time      0.0551
    SETDIJ:  cpu time      0.3916: real time      0.3925
    EDDIAG:  cpu time      0.2740: real time      0.2748
  RMM-DIIS:  cpu time      0.5991: real time      0.6007
    ORTHCH:  cpu time      0.0424: real time      0.0425
 BZINTS: Fermi energy:    5.151972;  112.000000 electrons
         Band energy:-0.300538E+02;  BLOECHL correction:    0.000000
       DOS:  cpu time      0.0053: real time      0.0053
    CHARGE:  cpu time      0.0731: real time      0.0732
    MIXING:  cpu time      0.0017: real time      0.0018
    --------------------------------------------
      LOOP:  cpu time      1.4279: real time      1.4459

 eigenvalue-minimisations  :  4116
 total energy-change (2. order) :-0.6491747E-01  (-0.9874612E+01)
 number of electron     111.9999970 magnetization       6.0246472
 augmentation part       20.7482154 magnetization       5.9359409

 Broyden mixing:
  rms(total) = 0.18293E+01    rms(broyden)= 0.18292E+01
  rms(prec ) = 0.20276E+01
  weight for this iteration     100.00

 eigenvalues of (default mixing * dielectric matrix)
  average eigenvalue GAMMA=   0.7061
  0.7061

 Free energy of the ion-electron system (eV)
  ---------------------------------------------------
  alpha Z        PSCENC =       140.40642575
  Ewald energy   TEWEN  =     -5671.52231121
  -Hartree energ DENC   =     -2837.05337532
  -exchange      EXHF   =         0.00000000
  -V(xc)+E(xc)   XCENC  =       101.32269264
  PAW double counting   =      8289.20551631    -8441.24141970
  entropy T*S    EENTRO =         0.00000000
  eigenvalues    EBANDS =       -30.05382093
  atomic energy  EATOM  =      8369.31508255
  Solvation  Ediel_sol  =         0.00000000
  ---------------------------------------------------
  free energy    TOTEN  =       -79.62120991 eV

  energy without entropy =      -79.62120991  energy(sigma->0) =      -79.62120991


--------------------------------------------------------------------------------------------------------




--------------------------------------- Iteration      1(   7)  ---------------------------------------


    POTLOK:  cpu time      0.0398: real time      0.0540
    SETDIJ:  cpu time      0.3953: real time      0.3962
    EDDIAG:  cpu time      0.2688: real time      0.2694
  RMM-DIIS:  cpu time      0.5312: real time      0.5326
    ORTHCH:  cpu time      0.0420: real time      0.0421
 BZINTS: Fermi energy:    5.741370;  112.000000 electrons
         Band energy: 0.975192E+02;  BLOECHL correction:    0.000000
       DOS:  cpu time      0.0056: real time      0.0056
    CHARGE:  cpu time      0.0706: real time      0.0708
    MIXING:  cpu time      0.0006: real time      0.0006
    --------------------------------------------
      LOOP:  cpu time      1.3540: real time      1.3714

 eigenvalue-minimisations  :  3809
 total energy-change (2. order) : 0.5737759E+01  (-0.3468908E+01)
 number of electron     111.9999973 magnetization       3.0479380
 augmentation part       18.4490929 magnetization       2.9134083

 Broyden mixing:
  rms(total) = 0.92425E+00    rms(broyden)= 0.92425E+00
  rms(prec ) = 0.93598E+00
  weight for this iteration     100.00

 eigenvalues of (default mixing * dielectric matrix)
  average eigenvalue GAMMA=   1.2245
  1.8417  0.6074

 Free energy of the ion-electron system (eV)
  ---------------------------------------------------
  alpha Z        PSCENC =       140.40642575
  Ewald energy   TEWEN  =     -5671.52231121
  -Hartree energ DENC   =     -2928.48042375
  -exchange      EXHF   =         0.00000000
  -V(xc)+E(xc)   XCENC  =       105.01581152
  PAW double counting   =      8941.98864099    -9128.12591735
  entropy T*S    EENTRO =         0.00000000
  eigenvalues    EBANDS =        97.51924054
  atomic energy  EATOM  =      8369.31508255
  Solvation  Ediel_sol  =         0.00000000
  ---------------------------------------------------
  free energy    TOTEN  =       -73.88345097 eV

  energy without entropy =      -73.88345097  energy(sigma->0) =      -73.88345097


--------------------------------------------------------------------------------------------------------




--------------------------------------- Iteration      1(   8)  ---------------------------------------


    POTLOK:  cpu time      0.0472: real time      0.0547
    SETDIJ:  cpu time      0.3907: real time      0.3916
    EDDIAG:  cpu time      0.2694: real time      0.2702
  RMM-DIIS:  cpu time      0.6415: real time      0.6431
    ORTHCH:  cpu time      0.0431: real time      0.0432
 BZINTS: Fermi energy:    6.185840;  112.000000 electrons
         Band energy: 0.129875E+03;  BLOECHL correction:    0.000000
       DOS:  cpu time      0.0057: real time      0.0058
    CHARGE:  cpu time      0.0829: real time      0.0831
    MIXING:  cpu time      0.0008: real time      0.0008
    --------------------------------------------
      LOOP:  cpu time      1.4812: real time      1.4924

 eigenvalue-minimisations  :  4208
 total energy-change (2. order) :-0.1035914E+01  (-0.4063384E+00)
 number of electron     111.9999973 magnetization       1.6359452
 augmentation part       17.7846932 magnetization       1.5143759

 Broyden mixing:
  rms(total) = 0.52076E+00    rms(broyden)= 0.52076E+00
  rms(prec ) = 0.57722E+00
  weight for this iteration     100.00

 eigenvalues of (default mixing * dielectric matrix)
  average eigenvalue GAMMA=   1.3607
  0.6637  1.1055  2.3130

 Free energy of the ion-electron system (eV)
  ---------------------------------------------------
  alpha Z        PSCENC =       140.40642575
  Ewald energy   TEWEN  =     -5671.52231121
  -Hartree energ DENC   =     -2950.39021000
  -exchange      EXHF   =         0.00000000
  -V(xc)+E(xc)   XCENC  =       105.66753690
  PAW double counting   =     10406.73904955   -10605.00957881
  entropy T*S    EENTRO =         0.00000000
  eigenvalues    EBANDS =       129.87463983
  atomic energy  EATOM  =      8369.31508255
  Solvation  Ediel_sol  =         0.00000000
  ---------------------------------------------------
  free energy    TOTEN  =       -74.91936544 eV

  energy without entropy =      -74.91936544  energy(sigma->0) =      -74.91936544


--------------------------------------------------------------------------------------------------------




--------------------------------------- Iteration      1(   9)  ---------------------------------------


    POTLOK:  cpu time      0.0535: real time      0.0641
    SETDIJ:  cpu time      0.3970: real time      0.3981
    EDDIAG:  cpu time      0.2817: real time      0.2824
  RMM-DIIS:  cpu time      0.5687: real time      0.5702
    ORTHCH:  cpu time      0.0439: real time      0.0440
 BZINTS: Fermi energy:    5.576727;  112.000000 electrons
         Band energy: 0.869641E+02;  BLOECHL correction:    0.000000
       DOS:  cpu time      0.0057: real time      0.0057
    CHARGE:  cpu time      0.0736: real time      0.0738
    MIXING:  cpu time      0.0011: real time      0.0011
    --------------------------------------------
      LOOP:  cpu time      1.4253: real time      1.4395

 eigenvalue-minimisations  :  4033
 total energy-change (2. order) :-0.1337958E+00  (-0.3776906E+00)
 number of electron     111.9999972 magnetization       1.3019768
 augmentation part       18.9242568 magnetization       1.2823423

 Broyden mixing:
  rms(total) = 0.33543E+00    rms(broyden)= 0.33543E+00
  rms(prec ) = 0.38688E+00
  weight for this iteration     100.00

 eigenvalues of (default mixing * dielectric matrix)
  average eigenvalue GAMMA=   1.2200
  2.4858  1.2086  0.5927  0.5927

 Free energy of the ion-electron system (eV)
  ---------------------------------------------------
  alpha Z        PSCENC =       140.40642575
  Ewald energy   TEWEN  =     -5671.52231121
  -Hartree energ DENC   =     -2913.97703523
  -exchange      EXHF   =         0.00000000
  -V(xc)+E(xc)   XCENC  =       104.07261440
  PAW double counting   =     10827.83695396   -11018.14896767
  entropy T*S    EENTRO =         0.00000000
  eigenvalues    EBANDS =        86.96407618
  atomic energy  EATOM  =      8369.31508255
  Solvation  Ediel_sol  =         0.00000000
  ---------------------------------------------------
  free energy    TOTEN  =       -75.05316128 eV

  energy without entropy =      -75.05316128  energy(sigma->0) =      -75.05316128


--------------------------------------------------------------------------------------------------------




--------------------------------------- Iteration      1(  10)  ---------------------------------------


    POTLOK:  cpu time      0.0465: real time      0.0598
    SETDIJ:  cpu time      0.4067: real time      0.4077
    EDDIAG:  cpu time      0.2934: real time      0.2942
  RMM-DIIS:  cpu time      0.5807: real time      0.5821
    ORTHCH:  cpu time      0.0431: real time      0.0432
 BZINTS: Fermi energy:    5.736146;  112.000000 electrons
         Band energy: 0.994002E+02;  BLOECHL correction:    0.000000
       DOS:  cpu time      0.0059: real time      0.0059
    CHARGE:  cpu time      0.0787: real time      0.0789
    MIXING:  cpu time      0.0011: real time      0.0011
    --------------------------------------------
      LOOP:  cpu time      1.4562: real time      1.4730

 eigenvalue-minimisations  :  4150
 total energy-change (2. order) : 0.1193366E+00  (-0.6655363E-01)
 number of electron     111.9999972 magnetization       1.0502336
 augmentation part       18.5901076 magnetization       1.0202090

 Broyden mixing:
  rms(total) = 0.15307E+00    rms(broyden)= 0.15306E+00
  rms(prec ) = 0.17128E+00
  weight for this iteration     100.00

 eigenvalues of (default mixing * dielectric matrix)
  average eigenvalue GAMMA=   1.1809
  1.8704  1.8704  0.6907  0.6907  0.7823

 Free energy of the ion-electron system (eV)
  ---------------------------------------------------
  alpha Z        PSCENC =       140.40642575
  Ewald energy   TEWEN  =     -5671.52231121
  -Hartree energ DENC   =     -2924.63582184
  -exchange      EXHF   =         0.00000000
  -V(xc)+E(xc)   XCENC  =       104.39616501
  PAW double counting   =     10863.57904638   -11055.87259208
  entropy T*S    EENTRO =         0.00000000
  eigenvalues    EBANDS =        99.40018073
  atomic energy  EATOM  =      8369.31508255
  Solvation  Ediel_sol  =         0.00000000
  ---------------------------------------------------
  free energy    TOTEN  =       -74.93382472 eV

  energy without entropy =      -74.93382472  energy(sigma->0) =      -74.93382472


--------------------------------------------------------------------------------------------------------




--------------------------------------- Iteration      1(  11)  ---------------------------------------


    POTLOK:  cpu time      0.0449: real time      0.0591
    SETDIJ:  cpu time      0.4034: real time      0.4045
    EDDIAG:  cpu time      0.3058: real time      0.3065
  RMM-DIIS:  cpu time      0.6855: real time      0.6873
    ORTHCH:  cpu time      0.0440: real time      0.0442
 BZINTS: Fermi energy:    5.804335;  112.000000 electrons
         Band energy: 0.105355E+03;  BLOECHL correction:    0.000000
       DOS:  cpu time      0.0055: real time      0.0055
    CHARGE:  cpu time      0.0813: real time      0.0815
    MIXING:  cpu time      0.0009: real time      0.0009
    --------------------------------------------
      LOOP:  cpu time      1.5713: real time      1.5894

 eigenvalue-minimisations  :  4939
 total energy-change (2. order) :-0.2018406E-01  (-0.3700484E-01)
 number of electron     111.9999973 magnetization       0.3835563
 augmentation part       18.4645217 magnetization       0.3523534

 Broyden mixing:
  rms(total) = 0.81566E-01    rms(broyden)= 0.81565E-01
  rms(prec ) = 0.85416E-01
  weight for this iteration     100.00

 eigenvalues of (default mixing * dielectric matrix)
  average eigenvalue GAMMA=   1.4102
  2.6643  2.6643  1.0325  0.6898  0.6898  0.7205

 Free energy of the ion-electron system (eV)
  ---------------------------------------------------
  alpha Z        PSCENC =       140.40642575
  Ewald energy   TEWEN  =     -5671.52231121
  -Hartree energ DENC   =     -2930.68918346
  -exchange      EXHF   =         0.00000000
  -V(xc)+E(xc)   XCENC  =       104.54181981
  PAW double counting   =     10803.18097323   -10995.54184840
  entropy T*S    EENTRO =         0.00000000
  eigenvalues    EBANDS =       105.35503295
  atomic energy  EATOM  =      8369.31508255
  Solvation  Ediel_sol  =         0.00000000
  ---------------------------------------------------
  free energy    TOTEN  =       -74.95400878 eV

  energy without entropy =      -74.95400878  energy(sigma->0) =      -74.95400878


--------------------------------------------------------------------------------------------------------




--------------------------------------- Iteration      1(  12)  ---------------------------------------


    POTLOK:  cpu time      0.0506: real time      0.0642
    SETDIJ:  cpu time      0.4205: real time      0.4215
    EDDIAG:  cpu time      0.2932: real time      0.2941
  RMM-DIIS:  cpu time      0.6058: real time      0.6072
    ORTHCH:  cpu time      0.0427: real time      0.0428
 BZINTS: Fermi energy:    5.860860;  112.000000 electrons
         Band energy: 0.110748E+03;  BLOECHL correction:    0.000000
       DOS:  cpu time      0.0056: real time      0.0057
    CHARGE:  cpu time      0.0720: real time      0.0722
    MIXING:  cpu time      0.0008: real time      0.0008
    --------------------------------------------
      LOOP:  cpu time      1.4913: real time      1.5084

 eigenvalue-minimisations  :  4385
 total energy-change (2. order) :-0.3977799E-01  (-0.1191943E-01)
 number of electron     111.9999973 magnetization       0.2063069
 augmentation part       18.3045790 magnetization       0.1949828

 Broyden mixing:
  rms(total) = 0.70430E-01    rms(broyden)= 0.70429E-01
  rms(prec ) = 0.81290E-01
  weight for this iteration     100.00

 eigenvalues of (default mixing * dielectric matrix)
  average eigenvalue GAMMA=   1.3649
  2.7365  2.7365  1.1303  0.8250  0.8250  0.6504  0.6504

 Free energy of the ion-electron system (eV)
  ---------------------------------------------------
  alpha Z        PSCENC =       140.40642575
  Ewald energy   TEWEN  =     -5671.52231121
  -Hartree energ DENC   =     -2936.86502018
  -exchange      EXHF   =         0.00000000
  -V(xc)+E(xc)   XCENC  =       104.67698677
  PAW double counting   =     10749.94518826   -10941.69803825
  entropy T*S    EENTRO =         0.00000000
  eigenvalues    EBANDS =       110.74789954
  atomic energy  EATOM  =      8369.31508255
  Solvation  Ediel_sol  =         0.00000000
  ---------------------------------------------------
  free energy    TOTEN  =       -74.99378677 eV

  energy without entropy =      -74.99378677  energy(sigma->0) =      -74.99378677


--------------------------------------------------------------------------------------------------------




--------------------------------------- Iteration      1(  13)  ---------------------------------------


    POTLOK:  cpu time      0.0398: real time      0.0543
    SETDIJ:  cpu time      0.3950: real time      0.3960
    EDDIAG:  cpu time      0.2671: real time      0.2677
  RMM-DIIS:  cpu time      0.6283: real time      0.6299
    ORTHCH:  cpu time      0.0423: real time      0.0424
 BZINTS: Fermi energy:    5.852386;  112.000000 electrons
         Band energy: 0.108370E+03;  BLOECHL correction:    0.000000
       DOS:  cpu time      0.0056: real time      0.0056
    CHARGE:  cpu time      0.0741: real time      0.0743
    MIXING:  cpu time      0.0007: real time      0.0007
    --------------------------------------------
      LOOP:  cpu time      1.4528: real time      1.4709

 eigenvalue-minimisations  :  4367
 total energy-change (2. order) : 0.5715353E-02  (-0.2458842E-02)
 number of electron     111.9999973 magnetization       0.1256999
 augmentation part       18.3896281 magnetization       0.1141210

 Broyden mixing:
  rms(total) = 0.20423E-01    rms(broyden)= 0.20423E-01
  rms(prec ) = 0.22582E-01
  weight for this iteration     100.00

 eigenvalues of (default mixing * dielectric matrix)
  average eigenvalue GAMMA=   1.3395
  2.8628  2.0803  2.0803  0.8274  0.8274  0.7494  0.6444  0.6444

 Free energy of the ion-electron system (eV)
  ---------------------------------------------------
  alpha Z        PSCENC =       140.40642575
  Ewald energy   TEWEN  =     -5671.52231121
  -Hartree energ DENC   =     -2934.54531109
  -exchange      EXHF   =         0.00000000
  -V(xc)+E(xc)   XCENC  =       104.62693234
  PAW double counting   =     10798.23521141   -10989.87424733
  entropy T*S    EENTRO =         0.00000000
  eigenvalues    EBANDS =       108.37014617
  atomic energy  EATOM  =      8369.31508255
  Solvation  Ediel_sol  =         0.00000000
  ---------------------------------------------------
  free energy    TOTEN  =       -74.98807142 eV

  energy without entropy =      -74.98807142  energy(sigma->0) =      -74.98807142


--------------------------------------------------------------------------------------------------------




--------------------------------------- Iteration      1(  14)  ---------------------------------------


    POTLOK:  cpu time      0.0399: real time      0.0546
    SETDIJ:  cpu time      0.3907: real time      0.3916
    EDDIAG:  cpu time      0.2676: real time      0.2684
  RMM-DIIS:  cpu time      0.6410: real time      0.6425
    ORTHCH:  cpu time      0.0420: real time      0.0421
 BZINTS: Fermi energy:    5.850113;  112.000000 electrons
         Band energy: 0.108249E+03;  BLOECHL correction:    0.000000
       DOS:  cpu time      0.0055: real time      0.0055
    CHARGE:  cpu time      0.0750: real time      0.0752
    MIXING:  cpu time      0.0008: real time      0.0008
    --------------------------------------------
      LOOP:  cpu time      1.4625: real time      1.4807

 eigenvalue-minimisations  :  4666
 total energy-change (2. order) :-0.2051068E-02  (-0.1810696E-02)
 number of electron     111.9999973 magnetization       0.0240621
 augmentation part       18.4032488 magnetization       0.0179823

 Broyden mixing:
  rms(total) = 0.12347E-01    rms(broyden)= 0.12347E-01
  rms(prec ) = 0.13256E-01
  weight for this iteration     100.00

 eigenvalues of (default mixing * dielectric matrix)
  average eigenvalue GAMMA=   1.4722
  3.4990  2.8089  1.6639  1.6639  0.8387  0.8387  0.6562  0.6562  0.6242

 Free energy of the ion-electron system (eV)
  ---------------------------------------------------
  alpha Z        PSCENC =       140.40642575
  Ewald energy   TEWEN  =     -5671.52231121
  -Hartree energ DENC   =     -2934.34572339
  -exchange      EXHF   =         0.00000000
  -V(xc)+E(xc)   XCENC  =       104.64252472
  PAW double counting   =     10788.32042581   -10980.05564819
  entropy T*S    EENTRO =         0.00000000
  eigenvalues    EBANDS =       108.24910147
  atomic energy  EATOM  =      8369.31508255
  Solvation  Ediel_sol  =         0.00000000
  ---------------------------------------------------
  free energy    TOTEN  =       -74.99012249 eV

  energy without entropy =      -74.99012249  energy(sigma->0) =      -74.99012249


--------------------------------------------------------------------------------------------------------




--------------------------------------- Iteration      1(  15)  ---------------------------------------


    POTLOK:  cpu time      0.0401: real time      0.0559
    SETDIJ:  cpu time      0.3955: real time      0.3966
    EDDIAG:  cpu time      0.2732: real time      0.2738
  RMM-DIIS:  cpu time      0.6742: real time      0.6760
    ORTHCH:  cpu time      0.0424: real time      0.0425
 BZINTS: Fermi energy:    5.850724;  112.000000 electrons
         Band energy: 0.107887E+03;  BLOECHL correction:    0.000000
       DOS:  cpu time      0.0067: real time      0.0070
    CHARGE:  cpu time      0.0725: real time      0.0727
    MIXING:  cpu time      0.0008: real time      0.0008
    --------------------------------------------
      LOOP:  cpu time      1.5055: real time      1.5253

 eigenvalue-minimisations  :  4893
 total energy-change (2. order) :-0.9301235E-03  (-0.4417979E-03)
 number of electron     111.9999973 magnetization       0.0111863
 augmentation part       18.4104304 magnetization       0.0117542

 Broyden mixing:
  rms(total) = 0.57446E-02    rms(broyden)= 0.57445E-02
  rms(prec ) = 0.59228E-02
  weight for this iteration     100.00

 eigenvalues of (default mixing * dielectric matrix)
  average eigenvalue GAMMA=   1.3767
  3.7000  2.3848  1.7136  1.7136  0.8054  0.8054  0.7619  0.6525  0.6525  0.5774

 Free energy of the ion-electron system (eV)
  ---------------------------------------------------
  alpha Z        PSCENC =       140.40642575
  Ewald energy   TEWEN  =     -5671.52231121
  -Hartree energ DENC   =     -2933.99719895
  -exchange      EXHF   =         0.00000000
  -V(xc)+E(xc)   XCENC  =       104.63169655
  PAW double counting   =     10763.65350332   -10955.36558485
  entropy T*S    EENTRO =         0.00000000
  eigenvalues    EBANDS =       107.88733424
  atomic energy  EATOM  =      8369.31508255
  Solvation  Ediel_sol  =         0.00000000
  ---------------------------------------------------
  free energy    TOTEN  =       -74.99105261 eV

  energy without entropy =      -74.99105261  energy(sigma->0) =      -74.99105261


--------------------------------------------------------------------------------------------------------




--------------------------------------- Iteration      1(  16)  ---------------------------------------


    POTLOK:  cpu time      0.0428: real time      0.0549
    SETDIJ:  cpu time      0.3900: real time      0.3909
    EDDIAG:  cpu time      0.2696: real time      0.2705
  RMM-DIIS:  cpu time      0.6819: real time      0.6836
    ORTHCH:  cpu time      0.0431: real time      0.0432
 BZINTS: Fermi energy:    5.849984;  112.000000 electrons
         Band energy: 0.108042E+03;  BLOECHL correction:    0.000000
       DOS:  cpu time      0.0055: real time      0.0057
    CHARGE:  cpu time      0.0722: real time      0.0724
    MIXING:  cpu time      0.0010: real time      0.0010
    --------------------------------------------
      LOOP:  cpu time      1.5062: real time      1.5223

 eigenvalue-minimisations  :  4986
 total energy-change (2. order) :-0.4316188E-04  (-0.5494952E-04)
 number of electron     111.9999973 magnetization       0.0032627
 augmentation part       18.4063294 magnetization       0.0028286

 Broyden mixing:
  rms(total) = 0.27063E-02    rms(broyden)= 0.27063E-02
  rms(prec ) = 0.28424E-02
  weight for this iteration     100.00

 eigenvalues of (default mixing * dielectric matrix)
  average eigenvalue GAMMA=   1.3533
  3.8845  2.1951  1.8281  1.8281  1.0908  0.8064  0.8064  0.6539  0.6539  0.6131
  0.5260

 Free energy of the ion-electron system (eV)
  ---------------------------------------------------
  alpha Z        PSCENC =       140.40642575
  Ewald energy   TEWEN  =     -5671.52231121
  -Hartree energ DENC   =     -2934.10104971
  -exchange      EXHF   =         0.00000000
  -V(xc)+E(xc)   XCENC  =       104.63345522
  PAW double counting   =     10771.17752968   -10962.94234561
  entropy T*S    EENTRO =         0.00000000
  eigenvalues    EBANDS =       108.04211756
  atomic energy  EATOM  =      8369.31508255
  Solvation  Ediel_sol  =         0.00000000
  ---------------------------------------------------
  free energy    TOTEN  =       -74.99109577 eV

  energy without entropy =      -74.99109577  energy(sigma->0) =      -74.99109577


--------------------------------------------------------------------------------------------------------




--------------------------------------- Iteration      1(  17)  ---------------------------------------


    POTLOK:  cpu time      0.0447: real time      0.0564
    SETDIJ:  cpu time      0.3898: real time      0.3909
    EDDIAG:  cpu time      0.2682: real time      0.2689
  RMM-DIIS:  cpu time      0.5894: real time      0.5910
    ORTHCH:  cpu time      0.0434: real time      0.0435
 BZINTS: Fermi energy:    5.848856;  112.000000 electrons
         Band energy: 0.108007E+03;  BLOECHL correction:    0.000000
       DOS:  cpu time      0.0055: real time      0.0055
    CHARGE:  cpu time      0.1059: real time      0.1061
    MIXING:  cpu time      0.0012: real time      0.0012
    --------------------------------------------
      LOOP:  cpu time      1.4481: real time      1.4636

 eigenvalue-minimisations  :  3987
 total energy-change (2. order) :-0.1252517E-04  (-0.1123381E-04)
 number of electron     111.9999973 magnetization       0.0011435
 augmentation part       18.4067954 magnetization       0.0008403

 Broyden mixing:
  rms(total) = 0.12230E-02    rms(broyden)= 0.12230E-02
  rms(prec ) = 0.13508E-02
  weight for this iteration     100.00

 eigenvalues of (default mixing * dielectric matrix)
  average eigenvalue GAMMA=   1.3562
  3.9039  2.2172  2.2172  1.4411  1.4411  0.9039  0.8092  0.8092  0.6578  0.6578
  0.6136  0.6020

 Free energy of the ion-electron system (eV)
  ---------------------------------------------------
  alpha Z        PSCENC =       140.40642575
  Ewald energy   TEWEN  =     -5671.52231121
  -Hartree energ DENC   =     -2934.04987256
  -exchange      EXHF   =         0.00000000
  -V(xc)+E(xc)   XCENC  =       104.63112242
  PAW double counting   =     10771.58732442   -10963.36603237
  entropy T*S    EENTRO =         0.00000000
  eigenvalues    EBANDS =       108.00715271
  atomic energy  EATOM  =      8369.31508255
  Solvation  Ediel_sol  =         0.00000000
  ---------------------------------------------------
  free energy    TOTEN  =       -74.99110830 eV

  energy without entropy =      -74.99110830  energy(sigma->0) =      -74.99110830


--------------------------------------------------------------------------------------------------------




--------------------------------------- Iteration      1(  18)  ---------------------------------------


    POTLOK:  cpu time      0.0458: real time      0.0614
    SETDIJ:  cpu time      0.3952: real time      0.3961
    EDDIAG:  cpu time      0.2820: real time      0.2829
  RMM-DIIS:  cpu time      0.4752: real time      0.4764
    ORTHCH:  cpu time      0.0456: real time      0.0457
 BZINTS: Fermi energy:    5.847977;  112.000000 electrons
         Band energy: 0.107930E+03;  BLOECHL correction:    0.000000
       DOS:  cpu time      0.0062: real time      0.0062
    --------------------------------------------
      LOOP:  cpu time      1.2500: real time      1.2687

 eigenvalue-minimisations  :  3108
 total energy-change (2. order) :-0.2957964E-05  (-0.4048116E-05)
 number of electron     111.9999973 magnetization       0.0011435
 augmentation part       18.4067954 magnetization       0.0008403

 Free energy of the ion-electron system (eV)
  ---------------------------------------------------
  alpha Z        PSCENC =       140.40642575
  Ewald energy   TEWEN  =     -5671.52231121
  -Hartree energ DENC   =     -2933.95939893
  -exchange      EXHF   =         0.00000000
  -V(xc)+E(xc)   XCENC  =       104.62888039
  PAW double counting   =     10770.37058203   -10962.16067177
  entropy T*S    EENTRO =         0.00000000
  eigenvalues    EBANDS =       107.93029995
  atomic energy  EATOM  =      8369.31508255
  Solvation  Ediel_sol  =         0.00000000
  ---------------------------------------------------
  free energy    TOTEN  =       -74.99111126 eV

  energy without entropy =      -74.99111126  energy(sigma->0) =      -74.99111126


--------------------------------------------------------------------------------------------------------




 average (electrostatic) potential at core
  the test charge radii are     0.9430  1.1712  0.9698
  (the norm of the test charge is              1.0000)
       1 -64.5393       2 -64.5393       3 -64.5393       4 -64.5393       5 -87.4777
       6 -87.4777       7 -87.4777       8 -87.4777       9 -85.9230      10 -85.9230
      11 -85.9230      12 -85.9230      13 -86.2753      14 -86.2753      15 -86.2753
      16 -86.2753
 
 
 
 E-fermi :   5.8480     XC(G=0): -10.0639     alpha+bet :-11.0670

 Fermi energy:         5.8479771254

 spin component 1

 k-point     1 :       0.0000    0.0000    0.0000
  band No.  band energies     occupation 
      1      -8.9662      1.00000
      2      -8.6750      1.00000
      3      -8.5627      1.00000
      4      -8.1701      1.00000
      5      -7.3229      1.00000
      6      -7.2045      1.00000
      7      -7.0626      1.00000
      8      -6.8745      1.00000
      9      -3.4251      1.00000
     10      -3.2434      1.00000
     11      -3.1996      1.00000
     12      -2.7553      1.00000
     13      -0.5694      1.00000
     14      -0.1559      1.00000
     15       0.2902      1.00000
     16       0.7064      1.00000
     17       0.8500      1.00000
     18       1.3936      1.00000
     19       1.6554      1.00000
     20       1.6905      1.00000
     21       1.7493      1.00000
     22       1.8887      1.00000
     23       2.0667      1.00000
     24       2.0925      1.00000
     25       2.0966      1.00000
     26       2.1248      1.00000
     27       2.1626      1.00000
     28       2.2414      1.00000
     29       2.2886      1.00000
     30       2.3588      1.00000
     31       2.3916      1.00000
     32       2.4648      1.00000
     33       3.0346      1.00000
     34       3.1137      1.00000
     35       3.1463      1.00000
     36       3.4787      1.00000
     37       3.6767      1.00000
     38       3.6794      1.00000
     39       3.7111      1.00000
     40       3.7716      1.00000
     41       3.9241      1.00000
     42       3.9605      1.00000
     43       3.9933      1.00000
     44       4.0103      1.00000
     45       4.3339      1.00000
     46       4.4027      1.00000
     47       4.5957      1.00000
     48       4.9437      1.00000
     49       5.1559      1.00000
     50       5.4837      1.00000
     51       5.4935      1.00000
     52       5.5557      1.00000
     53       5.6071      1.00000
     54       5.6550      1.00000
     55       5.6751      1.00000
     56       5.8094      1.00000
     57       6.6394      0.00000
     58       6.9823      0.00000
     59       7.0061      0.00000
     60       7.3344      0.00000
     61       7.8321      0.00000
     62       7.9648      0.00000
     63       8.2690      0.00000
     64       8.2810      0.00000
     65       8.5073      0.00000
     66       8.5698      0.00000
     67       8.7953      0.00000
     68       8.9518      0.00000
     69       9.9097      0.00000
     70      10.1088      0.00000
     71      10.4670      0.00000
     72      10.9720      0.00000

 k-point     2 :       0.1667    0.0000    0.0000
  band No.  band energies     occupation 
      1      -8.7716      1.00000
      2      -8.4876      1.00000
      3      -8.3897      1.00000
      4      -8.0036      1.00000
      5      -7.2424      1.00000
      6      -7.1621      1.00000
      7      -7.0284      1.00000
      8      -6.8743      1.00000
      9      -3.4366      1.00000
     10      -3.2253      1.00000
     11      -3.1804      1.00000
     12      -2.8175      1.00000
     13      -0.3761      1.00000
     14       0.0249      1.00000
     15       0.3371      1.00000
     16       0.7450      1.00000
     17       0.7784      1.00000
     18       0.8594      1.00000
     19       0.9130      1.00000
     20       1.0797      1.00000
     21       1.4040      1.00000
     22       1.5910      1.00000
     23       1.6306      1.00000
     24       1.7627      1.00000
     25       1.9600      1.00000
     26       2.0124      1.00000
     27       2.0663      1.00000
     28       2.1221      1.00000
     29       2.1320      1.00000
     30       2.1775      1.00000
     31       2.3061      1.00000
     32       2.3524      1.00000
     33       3.1022      1.00000
     34       3.3652      1.00000
     35       3.3828      1.00000
     36       3.3981      1.00000
     37       3.6805      1.00000
     38       3.7113      1.00000
[...]
     68       8.7423      0.00000
     69      10.4508      0.00000
     70      10.4508      0.00000
     71      10.4510      0.00000
     72      10.4535      0.00000


--------------------------------------------------------------------------------------------------------


 soft charge-density along one line, spin component           1
         0         1         2         3         4         5         6         7         8         9
 total charge-density along one line
 
 soft charge-density along one line, spin component           2
         0         1         2         3         4         5         6         7         8         9
 total charge-density along one line
 
 pseudopotential strength for first ion, spin component:           1
 -3.710  -0.000   0.000   0.003  -0.000  -4.139  -0.000  -0.000
 -0.000  -3.702   0.010  -0.000  -0.004  -0.000  -4.146  -0.007
  0.000   0.010  -3.690   0.000  -0.006  -0.000  -0.007  -4.155
  0.003  -0.000   0.000  -3.694  -0.000  -0.002   0.000  -0.000
 -0.000  -0.004  -0.006  -0.000  -3.714   0.000   0.003   0.005
 -4.139  -0.000  -0.000  -0.002   0.000   9.891   0.000   0.000
 -0.000  -4.146  -0.007   0.000   0.003   0.000   9.896   0.004
 -0.000  -0.007  -4.155  -0.000   0.005   0.000   0.004   9.904
 -0.002   0.000  -0.000  -4.152   0.000   0.002  -0.000   0.000
  0.000   0.003   0.005   0.000  -4.136  -0.000  -0.002  -0.003
  0.000  -0.001  -0.003  -0.000  -0.002  -0.000   0.000   0.002
  0.000  -0.001  -0.006  -0.000  -0.003  -0.000   0.001   0.003
  0.000  -0.002  -0.001  -0.000  -0.003  -0.000   0.001   0.003
 -0.000  -0.000  -0.000  -0.000  -0.001   0.000   0.002  -0.002
 -0.001  -0.000  -0.000  -0.003  -0.000   0.002   0.000  -0.000
  0.000  -0.002  -0.001  -0.000  -0.003  -0.000   0.002   0.005
 -0.000  -0.001  -0.001  -0.000  -0.001   0.000   0.003  -0.004
 -0.001  -0.000   0.000  -0.004  -0.000   0.004   0.000  -0.000
 pseudopotential strength for first ion, spin component:           2
 -3.710  -0.000   0.000   0.003  -0.000  -4.139   0.000  -0.000
 -0.000  -3.702   0.010  -0.000  -0.004   0.000  -4.146  -0.007
  0.000   0.010  -3.690   0.000  -0.006  -0.000  -0.007  -4.155
  0.003  -0.000   0.000  -3.694  -0.000  -0.002   0.000  -0.000
 -0.000  -0.004  -0.006  -0.000  -3.714   0.000   0.003   0.005
 -4.139   0.000  -0.000  -0.002   0.000   9.891   0.000   0.000
  0.000  -4.146  -0.007   0.000   0.003   0.000   9.896   0.004
 -0.000  -0.007  -4.155  -0.000   0.005   0.000   0.004   9.904
 -0.002   0.000  -0.000  -4.152   0.000   0.002  -0.000   0.000
  0.000   0.003   0.005   0.000  -4.136  -0.000  -0.002  -0.003
  0.000  -0.001  -0.003  -0.000  -0.002  -0.000   0.000   0.002
  0.000  -0.001  -0.006  -0.000  -0.003  -0.000   0.001   0.003
  0.000  -0.002  -0.001   0.000  -0.003  -0.000   0.001   0.003
  0.000  -0.000  -0.000  -0.000  -0.001   0.000   0.002  -0.002
 -0.001   0.000  -0.000  -0.003  -0.000   0.002   0.000  -0.000
  0.000  -0.002  -0.001   0.000  -0.003  -0.000   0.002   0.005
  0.000  -0.001  -0.001  -0.000  -0.001  -0.000   0.003  -0.004
 -0.001   0.000   0.000  -0.004  -0.000   0.004  -0.000  -0.000
 total augmentation occupancy for first ion, spin component:           1
  1.932   0.000   0.000  -0.003  -0.000  -0.013  -0.000  -0.000   0.003   0.000   0.000   0.000  -0.000  -0.000  -0.023  -0.000
  0.000   1.935   0.011  -0.000   0.003  -0.000  -0.012  -0.007   0.000  -0.001  -0.009  -0.003  -0.008  -0.012  -0.000  -0.001
  0.000   0.011   1.942   0.000  -0.004  -0.000  -0.007  -0.015   0.000   0.002   0.006   0.002  -0.008   0.017  -0.000  -0.006
 -0.003  -0.000   0.000   1.936   0.000   0.003   0.000   0.000  -0.013  -0.000   0.000   0.000  -0.000  -0.000  -0.015  -0.000
 -0.000   0.003  -0.004   0.000   1.929   0.000  -0.001   0.002  -0.000  -0.007   0.012   0.001  -0.017   0.003   0.000  -0.011
 -0.013  -0.000  -0.000   0.003   0.000   0.016   0.000   0.000   0.010   0.000  -0.000   0.000   0.000   0.000   0.041  -0.000
 -0.000  -0.012  -0.007   0.000  -0.001   0.000   0.016  -0.009   0.000   0.005   0.005  -0.000   0.000   0.036   0.000   0.000
 -0.000  -0.007  -0.015   0.000   0.002   0.000  -0.009   0.029   0.000   0.004  -0.006  -0.000   0.036  -0.047   0.000  -0.003
  0.003   0.000   0.000  -0.013  -0.000   0.010   0.000   0.000   0.023   0.000  -0.000   0.000   0.000   0.000   0.054  -0.000
  0.000  -0.001   0.002  -0.000  -0.007   0.000   0.005   0.004   0.000   0.029  -0.009   0.001   0.065   0.025  -0.000  -0.006
  0.000  -0.009   0.006   0.000   0.012  -0.000   0.005  -0.006  -0.000  -0.009   1.718  -0.223  -0.027   0.003   0.000   0.003
  0.000  -0.003   0.002   0.000   0.001   0.000  -0.000  -0.000   0.000   0.001  -0.223   0.036   0.004   0.001  -0.000  -0.001
 -0.000  -0.008  -0.008  -0.000  -0.017   0.000   0.000   0.036   0.000   0.065  -0.027   0.004   0.264   0.005  -0.000  -0.022
 -0.000  -0.012   0.017  -0.000   0.003   0.000   0.036  -0.047   0.000   0.025   0.003   0.001   0.005   0.240   0.000  -0.000
 -0.023  -0.000  -0.000  -0.015   0.000   0.041   0.000   0.000   0.054  -0.000   0.000  -0.000  -0.000   0.000   0.246   0.000
 -0.000  -0.001  -0.006  -0.000  -0.011  -0.000   0.000  -0.003  -0.000  -0.006   0.003  -0.001  -0.022  -0.000   0.000   0.002
 -0.000  -0.005   0.007  -0.000  -0.004  -0.000  -0.003   0.004  -0.000  -0.002   0.000  -0.000  -0.000  -0.021  -0.000   0.000
 -0.006  -0.000  -0.000  -0.009   0.000  -0.003  -0.000  -0.000  -0.005   0.000  -0.000   0.000   0.000  -0.000  -0.021  -0.000
 total augmentation occupancy for first ion, spin component:           2
  0.000   0.000   0.000  -0.000  -0.000   0.000   0.000   0.000   0.000   0.000   0.000  -0.000  -0.000  -0.000  -0.000  -0.000
  0.000   0.000   0.000  -0.000  -0.000   0.000   0.000  -0.000  -0.000   0.000  -0.000   0.000   0.000  -0.000  -0.000  -0.000
  0.000   0.000   0.000  -0.000   0.000   0.000  -0.000   0.000   0.000   0.000   0.000  -0.000   0.000   0.000  -0.000  -0.000
 -0.000  -0.000  -0.000  -0.000   0.000   0.000  -0.000   0.000   0.000   0.000   0.000  -0.000  -0.000  -0.000  -0.000  -0.000
 -0.000  -0.000   0.000   0.000   0.000   0.000   0.000   0.000   0.000   0.000   0.000  -0.000  -0.000  -0.000   0.000  -0.000
  0.000   0.000   0.000   0.000   0.000   0.000   0.000   0.000  -0.000  -0.000   0.000  -0.000  -0.000  -0.000   0.000   0.000
  0.000   0.000  -0.000  -0.000   0.000   0.000   0.000   0.000  -0.000  -0.000   0.000   0.000   0.000   0.000  -0.000  -0.000
  0.000  -0.000   0.000   0.000   0.000   0.000   0.000   0.000  -0.000   0.000   0.000  -0.000   0.000  -0.000  -0.000  -0.000
  0.000  -0.000   0.000   0.000   0.000  -0.000  -0.000  -0.000   0.000   0.000  -0.000  -0.000  -0.000  -0.000  -0.000   0.000
  0.000   0.000   0.000   0.000   0.000  -0.000  -0.000   0.000   0.000  -0.000   0.000   0.000  -0.000  -0.000   0.000   0.000
  0.000  -0.000   0.000   0.000   0.000   0.000   0.000   0.000  -0.000   0.000  -0.000   0.000   0.000   0.000  -0.000   0.000
 -0.000   0.000  -0.000  -0.000  -0.000  -0.000   0.000  -0.000  -0.000   0.000   0.000  -0.000  -0.000  -0.000   0.000   0.000
 -0.000   0.000   0.000  -0.000  -0.000  -0.000   0.000   0.000  -0.000  -0.000   0.000  -0.000   0.000   0.000  -0.000   0.000
 -0.000  -0.000   0.000  -0.000  -0.000  -0.000   0.000  -0.000  -0.000  -0.000   0.000  -0.000   0.000   0.000   0.000  -0.000
 -0.000  -0.000  -0.000  -0.000   0.000   0.000  -0.000  -0.000  -0.000   0.000  -0.000   0.000  -0.000   0.000   0.000  -0.000
 -0.000  -0.000  -0.000  -0.000  -0.000   0.000  -0.000  -0.000   0.000   0.000   0.000   0.000   0.000  -0.000  -0.000  -0.000
 -0.000  -0.000   0.000  -0.000  -0.000   0.000   0.000  -0.000   0.000   0.000  -0.000   0.000  -0.000   0.000   0.000   0.000
 -0.000  -0.000  -0.000  -0.000   0.000   0.000   0.000   0.000   0.000  -0.000  -0.000  -0.000  -0.000   0.000   0.000   0.000


------------------------ aborting loop because EDIFF is reached ----------------------------------------





 total charge

# of ion       s       p       d       tot
------------------------------------------
    1        0.379   0.381   9.244  10.005
    2        0.379   0.381   9.244  10.005
    3        0.379   0.381   9.244  10.005
    4        0.379   0.381   9.244  10.005
    5        1.271   0.967   0.065   2.303
    6        1.271   0.967   0.065   2.303
    7        1.271   0.967   0.065   2.303
    8        1.271   0.967   0.065   2.303
    9        1.333   2.331   0.000   3.664
   10        1.333   2.331   0.000   3.664
   11        1.333   2.331   0.000   3.664
   12        1.333   2.331   0.000   3.664
   13        1.338   2.318   0.000   3.656
   14        1.338   2.318   0.000   3.656
   15        1.338   2.318   0.000   3.656
   16        1.338   2.318   0.000   3.656
--------------------------------------------------
tot         17.285  23.990  37.235  78.510



 magnetization (x)

# of ion       s       p       d       tot
------------------------------------------
    1        0.000   0.000  -0.000  -0.000
    2        0.000   0.000  -0.000  -0.000
    3        0.000   0.000  -0.000  -0.000
    4        0.000   0.000  -0.000  -0.000
    5       -0.000   0.000   0.000   0.000
    6       -0.000   0.000   0.000   0.000
    7       -0.000   0.000   0.000   0.000
    8       -0.000   0.000   0.000   0.000
    9       -0.000  -0.000   0.000  -0.000
   10       -0.000  -0.000   0.000  -0.000
   11       -0.000  -0.000   0.000  -0.000
   12       -0.000  -0.000   0.000  -0.000
   13       -0.000  -0.000   0.000  -0.000
   14       -0.000  -0.000   0.000  -0.000
   15       -0.000  -0.000   0.000  -0.000
   16       -0.000  -0.000   0.000  -0.000
--------------------------------------------------
tot         -0.000  -0.000  -0.000  -0.001
 
    CHARGE:  cpu time      0.0847: real time      0.0849
    FORLOC:  cpu time      0.0018: real time      0.0019
    FORNL :  cpu time      0.2075: real time      0.2083
    STRESS:  cpu time      0.3901: real time      0.3915
    FORCOR:  cpu time      0.0385: real time      0.0389
    FORHAR:  cpu time      0.0080: real time      0.0083
    MIXING:  cpu time      0.0010: real time      0.0010
    OFIELD:  cpu time      0.0008: real time      0.0010

  FORCE on cell =-STRESS in cart. coord.  units (eV):
  Direction    XX          YY          ZZ          XY          YZ          ZX
  --------------------------------------------------------------------------------------
  Alpha Z   140.40643   140.40643   140.40643
  Ewald   -1722.61371 -1707.91640 -2241.00419    -0.00000     0.00000    -0.00000
  Hartree  1177.27785  1108.66156   648.26431    -0.00000    -0.00000    -0.00000
  E(xc)    -499.82463  -500.97176  -499.72736     0.00000    -0.00000    -0.00000
  Local   -1211.71929 -1155.16262  -178.65671    -0.00000     0.00000    -0.00000
  n-local   809.19537   819.19630   808.99084    -1.63685     0.00016    -0.00011
  augment   167.13634   164.50871   165.87640     0.00000    -0.00000     0.00000
  Kinetic  1136.61537  1128.80715  1151.81101    -1.74531    -0.00003    -0.00006
  Fock        0.00000     0.00000     0.00000     0.00000     0.00000     0.00000
  -------------------------------------------------------------------------------------
  Total      -3.52626    -2.47063    -4.03927     0.00000    -0.00000    -0.00000
  in kB     -16.88275   -11.82866   -19.33889     0.00000    -0.00000    -0.00000
  external pressure =      -16.02 kB  Pullay stress =        0.00 kB


 VOLUME and BASIS-vectors are now :
 -----------------------------------------------------------------------------
  energy-cutoff  :      680.00
  volume of cell :      334.64
      direct lattice vectors                 reciprocal lattice vectors
     3.801574740  0.000000000  0.000000000     0.263048886  0.000000000  0.000000000
    -0.000000000  6.074320560  0.000000000     0.000000000  0.164627466  0.000000000
     0.000000000  0.000000000 14.491760480    -0.000000000 -0.000000000  0.069004729

  length of vectors
     3.801574740  6.074320560 14.491760480     0.263048886  0.164627466  0.069004729


 FORCES acting on ions
    electron-ion (+dipol)            ewald-force                    non-local-force                 convergence-correction
 -----------------------------------------------------------------------------------------------
   0.173E-12 0.256E+01 -.741E+02   0.950E-14 -.276E+01 0.743E+02   -.115E-16 0.223E+00 -.152E+00   -.173E-13 0.717E-03 0.449E-02
   0.134E-12 0.256E+01 0.741E+02   0.680E-13 -.276E+01 -.743E+02   -.159E-16 0.223E+00 0.152E+00   0.328E-13 0.717E-03 -.449E-02
   0.409E-12 -.256E+01 0.741E+02   -.125E-14 0.276E+01 -.743E+02   0.874E-17 -.223E+00 0.152E+00   0.399E-13 -.717E-03 -.449E-02
   0.400E-12 -.256E+01 -.741E+02   -.490E-13 0.276E+01 0.743E+02   0.115E-16 -.223E+00 -.152E+00   -.170E-13 -.717E-03 0.449E-02
   0.487E-14 0.195E+02 -.409E+02   -.304E-13 -.248E+02 0.491E+02   -.366E-15 0.522E+01 -.799E+01   -.860E-14 0.123E-02 0.114E-02
   0.266E-14 -.195E+02 0.409E+02   0.217E-13 0.248E+02 -.491E+02   0.369E-15 -.522E+01 0.799E+01   0.738E-14 -.123E-02 -.114E-02
   0.566E-14 0.195E+02 0.409E+02   0.314E-13 -.248E+02 -.491E+02   -.352E-15 0.522E+01 0.799E+01   0.662E-14 0.123E-02 -.114E-02
   0.520E-14 -.195E+02 -.409E+02   -.353E-13 0.248E+02 0.491E+02   0.355E-15 -.522E+01 -.799E+01   -.774E-14 -.123E-02 0.114E-02
   0.394E-13 0.435E+02 -.124E+03   0.552E-13 -.413E+02 0.125E+03   0.119E-15 -.196E+01 -.577E+00   -.120E-13 -.275E-02 0.594E-02
   -.195E-13 -.435E+02 0.124E+03   -.484E-13 0.413E+02 -.125E+03   -.128E-15 0.196E+01 0.577E+00   0.850E-14 0.275E-02 -.594E-02
   0.134E-13 0.435E+02 0.124E+03   0.290E-13 -.413E+02 -.125E+03   0.118E-15 -.196E+01 0.577E+00   0.114E-13 -.275E-02 -.594E-02
   -.182E-15 -.435E+02 -.124E+03   -.254E-13 0.413E+02 0.125E+03   -.118E-15 0.196E+01 -.577E+00   -.180E-13 0.275E-02 0.594E-02
   0.635E-13 -.585E+02 -.110E+03   -.139E-13 0.583E+02 0.108E+03   -.641E-17 0.155E+00 0.184E+01   -.192E-14 0.216E-02 0.457E-02
   0.767E-14 0.585E+02 -.110E+03   0.340E-13 -.583E+02 0.108E+03   0.873E-17 -.155E+00 0.184E+01   0.355E-14 -.216E-02 0.457E-02
   0.486E-13 -.585E+02 0.110E+03   -.285E-13 0.583E+02 -.108E+03   -.553E-17 0.155E+00 -.184E+01   0.240E-14 0.216E-02 -.457E-02
   -.627E-14 0.585E+02 0.110E+03   0.183E-13 -.583E+02 -.108E+03   0.612E-17 -.155E+00 -.184E+01   0.637E-14 -.216E-02 -.457E-02
 -----------------------------------------------------------------------------------------------
   0.128E-11 0.916E-11 0.184E-11   0.349E-13 -.284E-13 0.000E+00   -.705E-17 0.000E+00 0.133E-14   0.365E-13 -.120E-12 0.336E-12
 
 
 POSITION                                       TOTAL-FORCE (eV/Angst)
 -----------------------------------------------------------------------------------
      0.95039      1.51920     12.00234        -0.000000      0.017200     -0.001987
      0.95039      4.55636      9.73530        -0.000000      0.017200      0.001987
      2.85118      4.55512      2.48942         0.000000     -0.017200      0.001987
      2.85118      1.51796      4.75646         0.000000     -0.017200     -0.001987
      0.95039      4.42704      6.29794         0.000000     -0.088408      0.209146
      2.85118      1.64728      8.19382        -0.000000      0.088408     -0.209146
      0.95039      1.38988      0.94794         0.000000     -0.088408     -0.209146
      2.85118      4.68444     13.54382        -0.000000      0.088408      0.209146
      0.95039      0.75131      5.81185        -0.000000      0.240400     -0.015952
      2.85118      5.32301      8.67991         0.000000     -0.240400      0.015952
      0.95039      3.78847      1.43403        -0.000000      0.240400      0.015952
      2.85118      2.28585     13.05773         0.000000     -0.240400     -0.015952
      2.85118      3.79203      4.66022         0.000000     -0.085582     -0.137149
      0.95039      5.31945     11.90610        -0.000000      0.085582     -0.137149
      2.85118      0.75487      2.58566         0.000000     -0.085582      0.137149
      0.95039      2.28229      9.83154        -0.000000      0.085582      0.137149
 -----------------------------------------------------------------------------------
    total drift:                                0.000000      0.000000      0.000000


--------------------------------------------------------------------------------------------------------



  FREE ENERGIE OF THE ION-ELECTRON SYSTEM (eV)
  ---------------------------------------------------
  free  energy   TOTEN  =       -74.99111126 eV

  energy  without entropy=      -74.99111126  energy(sigma->0) =      -74.99111126
 


--------------------------------------------------------------------------------------------------------


    POTLOK:  cpu time      0.4357: real time      0.4370


--------------------------------------------------------------------------------------------------------


 writing wavefunctions
     LOOP+:  cpu time     31.5196: real time     31.8550
    4ORBIT:  cpu time      0.0000: real time      0.0000



 total charge

# of ion       s       p       d       tot
------------------------------------------
    1        0.379   0.381   9.244  10.005
    2        0.379   0.381   9.244  10.005
    3        0.379   0.381   9.244  10.005
    4        0.379   0.381   9.244  10.005
    5        1.271   0.967   0.065   2.303
    6        1.271   0.967   0.065   2.303
    7        1.271   0.967   0.065   2.303
    8        1.271   0.967   0.065   2.303
    9        1.333   2.331   0.000   3.664
   10        1.333   2.331   0.000   3.664
   11        1.333   2.331   0.000   3.664
   12        1.333   2.331   0.000   3.664
   13        1.338   2.318   0.000   3.656
   14        1.338   2.318   0.000   3.656
   15        1.338   2.318   0.000   3.656
   16        1.338   2.318   0.000   3.656
--------------------------------------------------
tot         17.285  23.990  37.235  78.510



 magnetization (x)

# of ion       s       p       d       tot
------------------------------------------
    1        0.000   0.000  -0.000  -0.000
    2        0.000   0.000  -0.000  -0.000
    3        0.000   0.000  -0.000  -0.000
    4        0.000   0.000  -0.000  -0.000
    5       -0.000   0.000   0.000   0.000
    6       -0.000   0.000   0.000   0.000
    7       -0.000   0.000   0.000   0.000
    8       -0.000   0.000   0.000   0.000
    9       -0.000  -0.000   0.000  -0.000
   10       -0.000  -0.000   0.000  -0.000
   11       -0.000  -0.000   0.000  -0.000
   12       -0.000  -0.000   0.000  -0.000
   13       -0.000  -0.000   0.000  -0.000
   14       -0.000  -0.000   0.000  -0.000
   15       -0.000  -0.000   0.000  -0.000
   16       -0.000  -0.000   0.000  -0.000
--------------------------------------------------
tot         -0.000  -0.000  -0.000  -0.001
 
 BZINTS: Fermi energy:    5.847977;  112.000000 electrons
         Band energy: 0.107930E+03;  BLOECHL correction:    0.000000

 total amount of memory used by VASP MPI-rank0    46992. kBytes
=======================================================================

   base      :      30000. kBytes
   nonl-proj :       7441. kBytes
   fftplans  :       1661. kBytes
   grid      :       4594. kBytes
   one-center:         62. kBytes
   wavefun   :       3234. kBytes
 
  
  
 General timing and accounting informations for this job:
 ========================================================
  
                  Total CPU time used (sec):       49.224
                            User time (sec):       44.487
                          System time (sec):        4.737
                         Elapsed time (sec):       50.274
  
                   Maximum memory used (kb):      217096.
                   Average memory used (kb):          N/A
  
                          Minor page faults:        49129
                          Major page faults:            0
                 Voluntary context switches:         2185
