 vasp.6.4.2 20Jul23 (build Mar 15 2024 16:31:38) complex                        
  
 executed on             LinuxIFC date 2025.03.19  13:43:57
 running  120 mpi-ranks, on    3 nodes
 distrk:  each k-point on  120 cores,    1 groups
 distr:  one band on NCORE=  10 cores,   12 groups


--------------------------------------------------------------------------------------------------------


 INCAR:
   ALGO = Normal
   EDIFF = 1e-05
   ENAUG = 1360
   ENCUT = 680
   GGA = Pe
   HFSCREEN = 0.2
   ISMEAR = -5
   ISPIN = 2
   LAECHG = True
   LASPH = True
   LCHARG = True
   LDAU = False
   LELF = False
   LHFCALC = True
   LMAXMIX = 4
   LMIXTAU = True
   LORBIT = 11
   LREAL = False
   LVTOT = True
   LWAVE = True
   MAGMOM = 8*0.6
   NCORE = 10
   NELM = 200
   NSW = 0
   PREC = Accurate
   PRECFOCK = Fast
   SIGMA = 0.2

 POTCAR:    PAW_PBE Ga_d 06Jul2010                
 POTCAR:    PAW_PBE Cu 22Jun2005                  
 POTCAR:    PAW_PBE Se 06Sep2000                  
 WARNING: For LVTOT=.TRUE., VASP.5.x writes the TOTAL local potential to the
     file LOCPOT. If you want only the Hartree contributions, use LVHAR=.TRUE.
     instead. 

 POTCAR:    PAW_PBE Ga_d 06Jul2010                
   VRHFIN =Ga: s2p1                                                                                 
   LEXCH  = PE                                                                                      
   EATOM  =  2148.8298 eV,  157.9345 Ry                                                             
                                                                                                    
   TITEL  = PAW_PBE Ga_d 06Jul2010                                                                  
   LULTRA =        F    use ultrasoft PP ?                                                          
   IUNSCR =        1    unscreen: 0-lin 1-nonlin 2-no                                               
   RPACOR =    1.700    partial core radius                                                         
   POMASS =   69.723; ZVAL   =   13.000    mass and valenz                                          
   RCORE  =    2.300    outmost cutoff radius                                                       
   RWIGS  =    2.300; RWIGS  =    1.217    wigner-seitz radius (au A)                               
   ENMAX  =  282.691; ENMIN  =  212.018 eV                                                          
   ICORE  =        3    local potential                                                             
   LCOR   =        T    correct aug charges                                                         
   LPAW   =        T    paw PP                                                                      
   EAUG   =  490.690                                                                                
   DEXC   =    0.000                                                                                
   RMAX   =    2.341    core radius for proj-oper                                                   
   RAUG   =    1.300    factor for augmentation sphere                                              
   RDEP   =    2.413    radius for radial grids                                                     
   RDEPT  =    1.856    core radius for aug-charge                                                  
                                                                                                    
   Atomic configuration                                                                             
    9 entries                                                                                       
     n  l   j            E        occ.                                                              
     1  0  0.50    -10228.7831   2.0000                                                             
     2  0  0.50     -1262.1604   2.0000                                                             
     2  1  1.50     -1098.6333   6.0000                                                             
     3  0  0.50      -148.1110   2.0000                                                             
     3  1  1.50       -98.8436   6.0000                                                             
     3  2  2.50       -19.1549  10.0000                                                             
     4  0  0.50        -8.9483   2.0000                                                             
     4  1  0.50        -2.5791   1.0000                                                             
     4  3  2.50        -2.7416   0.0000                                                             
   Description                                                                                      
     l       E           TYP  RCUT    TYP  RCUT                                                     
     2    -19.1549037     23  2.300                                                                 
     2     -5.4423304     23  2.300                                                                 
     0     -8.9483111     23  2.300                                                                 
     0     68.0291300     23  2.300                                                                 
     1     -2.5790802     23  2.100                                                                 
     1     81.6349560     23  2.300                                                                 
     3      6.8029130     23  2.300                                                                 
  local pseudopotential read in
  partial core-charges read in
  partial kinetic energy density read in
  atomic valenz-charges read in
  non local Contribution for L=           2  read in
    real space projection operators read in
  non local Contribution for L=           2  read in
    real space projection operators read in
  non local Contribution for L=           0  read in
    real space projection operators read in
  non local Contribution for L=           0  read in
    real space projection operators read in
  non local Contribution for L=           1  read in
    real space projection operators read in
  non local Contribution for L=           1  read in
    real space projection operators read in
    PAW grid and wavefunctions read in
 
   number of l-projection  operators is LMAX  =           6
   number of lm-projection operators is LMMAX =          18
 
 POTCAR:    PAW_PBE Cu 22Jun2005                  
   VRHFIN =Cu: d10 p1                                                                               
   LEXCH  = PE                                                                                      
   EATOM  =  1390.9808 eV,  102.2342 Ry                                                             
                                                                                                    
   TITEL  = PAW_PBE Cu 22Jun2005                                                                    
   LULTRA =        F    use ultrasoft PP ?                                                          
   IUNSCR =        1    unscreen: 0-lin 1-nonlin 2-no                                               
   RPACOR =    2.000    partial core radius                                                         
   POMASS =   63.546; ZVAL   =   11.000    mass and valenz                                          
   RCORE  =    2.300    outmost cutoff radius                                                       
   RWIGS  =    2.200; RWIGS  =    1.164    wigner-seitz radius (au A)                               
   ENMAX  =  295.446; ENMIN  =  221.585 eV                                                          
   ICORE  =        3    local potential                                                             
   LCOR   =        T    correct aug charges                                                         
   LPAW   =        T    paw PP                                                                      
   EAUG   =  586.980                                                                                
   DEXC   =    0.000                                                                                
   RMAX   =    2.344    core radius for proj-oper                                                   
   RAUG   =    1.300    factor for augmentation sphere                                              
   RDEP   =    2.302    radius for radial grids                                                     
   RDEPT  =    1.771    core radius for aug-charge                                                  
                                                                                                    
   Atomic configuration                                                                             
    9 entries                                                                                       
     n  l   j            E        occ.                                                              
     1  0  0.50     -8850.2468   2.0000                                                             
     2  0  0.50     -1062.3498   2.0000                                                             
     2  1  1.50      -916.8226   6.0000                                                             
     3  0  0.50      -114.6929   2.0000                                                             
     3  1  1.50       -72.1325   6.0000                                                             
     3  2  2.50        -5.0394  10.0000                                                             
     4  0  0.50        -4.6097   1.0000                                                             
     4  1  0.50        -4.0817   0.0000                                                             
     4  3  2.50        -1.3606   0.0000                                                             
   Description                                                                                      
     l       E           TYP  RCUT    TYP  RCUT                                                     
     2     -5.0393973     23  2.200                                                                 
     2     10.8846608     23  2.200                                                                 
     0     -4.6097109     23  2.200                                                                 
     0      8.2520465     23  2.200                                                                 
     1     -2.7211652     23  2.200                                                                 
     1     21.7055443     23  2.200                                                                 
     3      2.7211652     23  2.300                                                                 
  local pseudopotential read in
  partial core-charges read in
  partial kinetic energy density read in
  atomic valenz-charges read in
  non local Contribution for L=           2  read in
    real space projection operators read in
  non local Contribution for L=           2  read in
    real space projection operators read in
  non local Contribution for L=           0  read in
    real space projection operators read in
  non local Contribution for L=           0  read in
    real space projection operators read in
  non local Contribution for L=           1  read in
    real space projection operators read in
  non local Contribution for L=           1  read in
    real space projection operators read in
    PAW grid and wavefunctions read in
 
   number of l-projection  operators is LMAX  =           6
   number of lm-projection operators is LMMAX =          18
 
 POTCAR:    PAW_PBE Se 06Sep2000                  
   VRHFIN =Se: s2p4                                                                                 
   LEXCH  = PE                                                                                      
   EATOM  =   257.1286 eV,   18.8984 Ry                                                             
                                                                                                    
   TITEL  = PAW_PBE Se 06Sep2000                                                                    
   LULTRA =        F    use ultrasoft PP ?                                                          
   IUNSCR =        1    unscreen: 0-lin 1-nonlin 2-no                                               
   RPACOR =    1.900    partial core radius                                                         
   POMASS =   78.960; ZVAL   =    6.000    mass and valenz                                          
   RCORE  =    2.100    outmost cutoff radius                                                       
   RWIGS  =    2.200; RWIGS  =    1.164    wigner-seitz radius (au A)                               
   ENMAX  =  211.555; ENMIN  =  158.666 eV                                                          
   ICORE  =        3    local potential                                                             
   LCOR   =        T    correct aug charges                                                         
   LPAW   =        T    paw PP                                                                      
   EAUG   =  446.842                                                                                
   DEXC   =    0.000                                                                                
   RMAX   =    2.147    core radius for proj-oper                                                   
   RAUG   =    1.300    factor for augmentation sphere                                              
   RDEP   =    2.177    radius for radial grids                                                     
   RDEPT  =    1.928    core radius for aug-charge                                                  
                                                                                                    
   Atomic configuration                                                                             
   10 entries                                                                                       
     n  l   j            E        occ.                                                              
     1  0  0.50    -12503.4787   2.0000                                                             
     2  0  0.50     -1606.9547   2.0000                                                             
     2  1  1.50     -1413.3140   6.0000                                                             
     3  0  0.50      -213.4885   2.0000                                                             
     3  1  1.50      -152.9538   6.0000                                                             
     3  2  2.50       -53.1221  10.0000                                                             
     4  0  0.50       -17.2865   2.0000                                                             
     4  1  0.50        -6.5110   4.0000                                                             
     4  2  2.50        -6.8029   0.0000                                                             
     4  3  2.50        -6.8029   0.0000                                                             
   Description                                                                                      
     l       E           TYP  RCUT    TYP  RCUT                                                     
     0    -17.2865377     23  2.100                                                                 
     0    -15.3094411     23  2.100                                                                 
     1     -6.5110275     23  2.100                                                                 
     1     -0.0695192     23  2.100                                                                 
     2     -6.8029130     23  2.100                                                                 
     3     -1.3605826      7  2.100                                                                 
  local pseudopotential read in
  partial core-charges read in
  partial kinetic energy density read in
  atomic valenz-charges read in
  non local Contribution for L=           0  read in
    real space projection operators read in
  non local Contribution for L=           0  read in
    real space projection operators read in
  non local Contribution for L=           1  read in
    real space projection operators read in
  non local Contribution for L=           1  read in
    real space projection operators read in
  non local Contribution for L=           2  read in
    real space projection operators read in
    PAW grid and wavefunctions read in
 
   number of l-projection  operators is LMAX  =           5
   number of lm-projection operators is LMMAX =          13
 
  PAW_PBE Ga_d 06Jul2010                :
 energy of atom  1       EATOM=-2148.8298
 kinetic energy error for atom=    0.0008 (will be added to EATOM!!)
  PAW_PBE Cu 22Jun2005                  :
 energy of atom  2       EATOM=-1390.9808
 kinetic energy error for atom=    0.0018 (will be added to EATOM!!)
  PAW_PBE Se 06Sep2000                  :
 energy of atom  3       EATOM= -257.1286
 kinetic energy error for atom=    0.0004 (will be added to EATOM!!)
 
 
 POSCAR: Ga2 Cu2 Se4
  positions in direct lattice
  No initial velocities read in
 exchange correlation table for  LEXCH =        8
   RHO(1)=    0.500       N(1)  =     2000
   RHO(2)=  100.500       N(2)  =     4000
 


--------------------------------------------------------------------------------------------------------


 ion  position               nearest neighbor table
   1  0.500  0.500  0.000-   8 2.43   7 2.43   6 2.43   5 2.43
   2  0.750  0.250  0.500-   6 2.43   8 2.43   5 2.43   7 2.43
   3  0.000  0.000  0.000-   5 2.41   6 2.41   7 2.41   8 2.41
   4  0.250  0.750  0.500-   7 2.41   5 2.41   8 2.41   6 2.41
   5  0.371  0.375  0.250-   3 2.41   4 2.41   2 2.43   1 2.43
   6  0.125  0.629  0.750-   3 2.41   4 2.41   2 2.43   1 2.43
   7  0.625  0.121  0.750-   4 2.41   3 2.41   1 2.43   2 2.43
   8  0.879  0.875  0.250-   4 2.41   3 2.41   1 2.43   2 2.43
 
  LATTYP: Found a body centered tetragonal cell.
 ALAT       =     5.6027357700
 C/A-ratio  =     1.9830197459
  
  Lattice vectors:
  
 A1 = (   1.0357585192,  -5.0026425748,  -4.5228292072)
 A2 = (  -5.1087403584,   0.0000000000,  -4.5228296824)
 A3 = (   4.0729818392,   5.0026425748,   2.2225205196)


Analysis of symmetry for initial positions (statically):
=====================================================================
 Subroutine PRICEL returns:
 Original cell was already a primitive cell.
 

 Routine SETGRP: Setting up the symmetry group for a 
 body centered tetragonal supercell.


 Subroutine GETGRP returns: Found  8 space group operations
 (whereof  4 operations were pure point group operations)
 out of a pool of 16 trial point group operations.


The static configuration has the point symmetry S_4 .
 The point group associated with its full space group is D_2d.


Analysis of symmetry for dynamics (positions and initial velocities):
=====================================================================
 Subroutine PRICEL returns:
 Original cell was already a primitive cell.
 

 Routine SETGRP: Setting up the symmetry group for a 
 body centered tetragonal supercell.


 Subroutine GETGRP returns: Found  8 space group operations
 (whereof  4 operations were pure point group operations)
 out of a pool of 16 trial point group operations.


The dynamic configuration has the point symmetry S_4 .
 The point group associated with its full space group is D_2d.


Analysis of structural, dynamic, and magnetic symmetry:
=====================================================================
 Subroutine PRICEL returns:
 Original cell was already a primitive cell.
 

 Routine SETGRP: Setting up the symmetry group for a 
 body centered tetragonal supercell.


 Subroutine GETGRP returns: Found  8 space group operations
 (whereof  4 operations were pure point group operations)
 out of a pool of 16 trial point group operations.


The overall configuration has the point symmetry S_4 .
 The point group associated with its full space group is D_2d.


 Subroutine INISYM returns: Found  8 space group operations
 (whereof  4 operations are pure point group operations),
 and found     1 'primitive' translations


----------------------------------------------------------------------------------------

                                     Primitive cell                                     

  volume of cell :     174.3803

  direct lattice vectors                    reciprocal lattice vectors
     5.108740358  0.000000000 -2.300308688     0.195742968  0.040527070  0.000000000
    -1.035758519  5.002642575 -2.300309163     0.000000000  0.199894353  0.000000000
     0.000000000  0.000000000  6.823138370     0.065991517  0.081054136  0.146560123

  length of vectors
     5.602735770  5.602736000  6.823138370     0.199894354  0.199894353  0.180012563

  position of ions in fractional coordinates (direct lattice)
     0.500000000  0.500000000  1.000000000
     0.750000000  0.250000000  0.500000000
     0.000000000  0.000000000  0.000000000
     0.250000000  0.750000000  0.500000000
     0.371215780  0.375000000  0.250000000
     0.125000000  0.628784220  0.750000000
     0.625000000  0.121215780  0.750000000
     0.878784220  0.875000000  0.250000000

  ion indices of the primitive-cell ions
   primitive index   ion index
                 1           1
                 2           2
                 3           3
                 4           4
                 5           5
                 6           6
                 7           7
                 8           8

----------------------------------------------------------------------------------------

 
 
 KPOINTS: pymatgen with grid density = 728 / numbe

Automatic generation of k-mesh.
 Grid dimensions read from file:
 generate k-points for:    4    4    3

 Generating k-lattice:

  Cartesian coordinates                     Fractional coordinates (reciprocal lattice)
     0.048935742  0.010131768  0.000000000     0.250000000  0.000000000  0.000000000
     0.000000000  0.049973588  0.000000000     0.000000000  0.250000000  0.000000000
     0.021997172  0.027018045  0.048853374    -0.000000000  0.000000000  0.333333333

  Length of vectors
     0.049973589  0.049973588  0.060004188

  Shift w.r.t. Gamma in fractional coordinates (k-lattice)
     0.000000000  0.000000000  0.000000000

 -----------------------------------------------------------------------------
|                                                                             |
|           W    W    AA    RRRRR   N    N  II  N    N   GGGG   !!!           |
|           W    W   A  A   R    R  NN   N  II  NN   N  G    G  !!!           |
|           W    W  A    A  R    R  N N  N  II  N N  N  G       !!!           |
|           W WW W  AAAAAA  RRRRR   N  N N  II  N  N N  G  GGG   !            |
|           WW  WW  A    A  R   R   N   NN  II  N   NN  G    G                |
|           W    W  A    A  R    R  N    N  II  N    N   GGGG   !!!           |
|                                                                             |
|     Your reciprocal lattice and k-lattice belong to different lattice       |
|     classes:                                                                |
|                                                                             |
|        The reciprocal lattice is body-centered tetragonal,                  |
|        whereas your k-lattice is base-centered monoclinic.                  |
|                                                                             |
|     Results are often still useful ...                                      |
|                                                                             |
 -----------------------------------------------------------------------------

 WARNING: IBZKPT: internal override: KBLOWUP is changed to .FALSE.
      ... skipping the blow-up phase ...

 TETIRR: Found     74 inequivalent tetrahedra from      288
 
 Subroutine IBZKPT returns following result:
 ===========================================
 
 Found     17 irreducible k-points:
 
 Following reciprocal coordinates:
            Coordinates               Weight
  0.000000  0.000000  0.000000      1.000000
  0.250000 -0.000000  0.000000      4.000000
  0.500000 -0.000000  0.000000      2.000000
  0.250000  0.250000  0.000000      2.000000
  0.500000  0.250000  0.000000      4.000000
 -0.250000  0.250000  0.000000      2.000000
  0.500000  0.500000  0.000000      1.000000
  0.000000 -0.000000  0.333333      2.000000
  0.250000  0.000000  0.333333      4.000000
  0.500000 -0.000000  0.333333      4.000000
 -0.250000 -0.000000  0.333333      4.000000
  0.250000  0.250000  0.333333      2.000000
  0.500000  0.250000  0.333333      4.000000
 -0.250000  0.250000  0.333333      4.000000
  0.500000  0.500000  0.333333      2.000000
 -0.250000  0.500000  0.333333      4.000000
 -0.250000 -0.250000  0.333333      2.000000
 
 Following cartesian coordinates:
            Coordinates               Weight
  0.000000  0.000000  0.000000      1.000000
  0.048936  0.010132  0.000000      4.000000
  0.097871  0.020264  0.000000      2.000000
  0.048936  0.060105  0.000000      2.000000
  0.097871  0.070237  0.000000      4.000000
 -0.048936  0.039842  0.000000      2.000000
  0.097871  0.120211  0.000000      1.000000
  0.021997  0.027018  0.048853      2.000000
  0.070933  0.037150  0.048853      4.000000
  0.119869  0.047282  0.048853      4.000000
 -0.026939  0.016886  0.048853      4.000000
  0.070933  0.087123  0.048853      2.000000
  0.119869  0.097255  0.048853      4.000000
 -0.026939  0.066860  0.048853      4.000000
  0.119869  0.147229  0.048853      2.000000
 -0.026939  0.116833  0.048853      4.000000
 -0.026939 -0.033087  0.048853      2.000000
 
 WARNING: full set of k-points will be restricted to regular points only.

 
 Subroutine IBZKPT_HF returns following result:
 ==============================================
 
 Found     48 k-points in 1st BZ
 the following     48 k-points will be used (e.g. in the exchange kernel)
 Following reciprocal coordinates:   # in IRBZ
  0.000000  0.000000  0.000000    0.02083333   1 t-inv F
  0.250000 -0.000000  0.000000    0.02083333   2 t-inv F
  0.500000 -0.000000  0.000000    0.02083333   3 t-inv F
  0.250000  0.250000  0.000000    0.02083333   4 t-inv F
  0.500000  0.250000  0.000000    0.02083333   5 t-inv F
 -0.250000  0.250000  0.000000    0.02083333   6 t-inv F
  0.500000  0.500000  0.000000    0.02083333   7 t-inv F
  0.000000 -0.000000  0.333333    0.02083333   8 t-inv F
  0.250000  0.000000  0.333333    0.02083333   9 t-inv F
  0.500000 -0.000000  0.333333    0.02083333  10 t-inv F
 -0.250000 -0.000000  0.333333    0.02083333  11 t-inv F
  0.250000  0.250000  0.333333    0.02083333  12 t-inv F
  0.500000  0.250000  0.333333    0.02083333  13 t-inv F
 -0.250000  0.250000  0.333333    0.02083333  14 t-inv F
  0.500000  0.500000  0.333333    0.02083333  15 t-inv F
 -0.250000  0.500000  0.333333    0.02083333  16 t-inv F
 -0.250000 -0.250000  0.333333    0.02083333  17 t-inv F
 -0.000000 -0.250000  0.000000    0.02083333   2 t-inv F
 -0.250000 -0.000000  0.000000    0.02083333   2 t-inv F
 -0.000000  0.250000  0.000000    0.02083333   2 t-inv F
 -0.000000 -0.500000  0.000000    0.02083333   3 t-inv F
  0.250000  0.500000  0.000000    0.02083333   5 t-inv F
  0.250000 -0.250000  0.000000    0.02083333   6 t-inv F
  0.000000  0.000000 -0.333333    0.02083333   8 t-inv F
  0.000000 -0.250000 -0.333333    0.02083333   9 t-inv F
 -0.250000  0.000000 -0.333333    0.02083333   9 t-inv F
  0.000000  0.250000  0.333333    0.02083333   9 t-inv F
 -0.000000 -0.500000 -0.333333    0.02083333  10 t-inv F
 -0.500000 -0.000000 -0.333333    0.02083333  10 t-inv F
 -0.000000  0.500000  0.333333    0.02083333  10 t-inv F
 -0.000000  0.250000 -0.333333    0.02083333  11 t-inv F
  0.250000 -0.000000 -0.333333    0.02083333  11 t-inv F
 -0.000000 -0.250000  0.333333    0.02083333  11 t-inv F
  0.250000  0.500000  0.333333    0.02083333  13 t-inv F
  0.250000 -0.250000  0.333333    0.02083333  14 t-inv F
  0.500000 -0.250000  0.333333    0.02083333  16 t-inv F
 -0.250000 -0.250000  0.000000    0.02083333   4 t-inv T
 -0.500000 -0.250000  0.000000    0.02083333   5 t-inv T
 -0.250000 -0.500000  0.000000    0.02083333   5 t-inv T
 -0.250000 -0.250000 -0.333333    0.02083333  12 t-inv T
 -0.500000 -0.250000 -0.333333    0.02083333  13 t-inv T
 -0.250000 -0.500000 -0.333333    0.02083333  13 t-inv T
  0.250000 -0.250000 -0.333333    0.02083333  14 t-inv T
 -0.250000  0.250000 -0.333333    0.02083333  14 t-inv T
 -0.500000 -0.500000 -0.333333    0.02083333  15 t-inv T
  0.250000 -0.500000 -0.333333    0.02083333  16 t-inv T
 -0.500000  0.250000 -0.333333    0.02083333  16 t-inv T
  0.250000  0.250000 -0.333333    0.02083333  17 t-inv T


--------------------------------------------------------------------------------------------------------




 Dimension of arrays:
   k-points           NKPTS =     17   k-points in BZ     NKDIM =     48   number of bands    NBANDS=     48
   number of dos      NEDOS =    301   number of ions     NIONS =      8
   non local maximal  LDIM  =      6   non local SUM 2l+1 LMDIM =     18
   total plane-waves  NPLWV = 138240
   max r-space proj   IRMAX =      1   max aug-charges    IRDMAX=  34767
   dimension x,y,z NGX =    48 NGY =   48 NGZ =   60
   dimension x,y,z NGXF=    96 NGYF=   96 NGZF=  120
   support grid    NGXF=    96 NGYF=   96 NGZF=  120
   ions per type =               2   2   4
   NGX,Y,Z   is equivalent  to a cutoff of  14.24, 14.24, 14.62 a.u.
   NGXF,Y,Z  is equivalent  to a cutoff of  28.49, 28.49, 29.24 a.u.

 SYSTEM =  unknown system                          
 POSCAR =  Ga2 Cu2 Se4                             

 Startparameter for this run:
   NWRITE =      2    write-flag & timer
   PREC   = accura    normal or accurate (medium, high low for compatibility)
   ISTART =      0    job   : 0-new  1-cont  2-samecut
   ICHARG =      2    charge: 1-file 2-atom 10-const
   ISPIN  =      2    spin polarized calculation?
   LNONCOLLINEAR =      F non collinear calculations
   LSORBIT =      F    spin-orbit coupling
   INIWAV =      1    electr: 0-lowe 1-rand  2-diag
   LASPH  =      T    aspherical Exc in radial PAW
 Electronic Relaxation 1
   ENCUT  =  680.0 eV  49.98 Ry    7.07 a.u.  11.91 11.91 14.51*2*pi/ulx,y,z
   ENINI  =  680.0     initial cutoff
   ENAUG  = 1360.0 eV  augmentation charge cutoff
   NELM   =    200;   NELMIN=  2; NELMDL= -5     # of ELM steps 
   EDIFF  = 0.1E-04   stopping-criterion for ELM
   LREAL  =      F    real-space projection
   NLSPLINE    = F    spline interpolate recip. space projectors
   LCOMPAT=      F    compatible to vasp.4.4
   GGA_COMPAT  = T    GGA compatible to vasp.4.4-vasp.4.6
   LMAXPAW     = -100 max onsite density
   LMAXMIX     =    4 max onsite mixed and CHGCAR
   VOSKOWN=      0    Vosko Wilk Nusair interpolation
   ROPT   =    0.00000   0.00000   0.00000
 Ionic relaxation
   EDIFFG = 0.1E-03   stopping-criterion for IOM
   NSW    =      0    number of steps for IOM
   NBLOCK =      1;   KBLOCK =      1    inner block; outer block 
   IBRION =     -1    ionic relax: 0-MD 1-quasi-New 2-CG
   NFREE  =      0    steps in history (QN), initial steepest desc. (CG)
   ISIF   =      0    stress and relaxation
   IWAVPR =     10    prediction:  0-non 1-charg 2-wave 3-comb
   ISYM   =      3    0-nonsym 1-usesym 2-fastsym
   LCORR  =      T    Harris-Foulkes like correction to forces

   POTIM  = 0.5000    time-step for ionic-motion
   TEIN   =    0.0    initial temperature
   TEBEG  =    0.0;   TEEND  =   0.0 temperature during run
   SMASS  =  -3.00    Nose mass-parameter (am)
   estimated Nose-frequenzy (Omega)   =  0.10E-29 period in steps = 0.13E+47 mass=  -0.717E-27a.u.
   SCALEE = 1.0000    scale energy and forces
   NPACO  =    256;   APACO  = 10.0  distance and # of slots for P.C.
   PSTRESS=    0.0 pullay stress

  Mass of Ions in am
   POMASS =  69.72 63.55 78.96
  Ionic Valenz
   ZVAL   =  13.00 11.00  6.00
  Atomic Wigner-Seitz radii
   RWIGS  =  -1.00 -1.00 -1.00
  virtual crystal weights 
   VCA    =   1.00  1.00  1.00
   NELECT =      72.0000    total number of electrons
   NUPDOWN=      -1.0000    fix difference up-down

 DOS related values:
   EMIN   =  10.00;   EMAX   =-10.00  energy-range for DOS
   EFERMI =   0.00;   METHOD = LEGACY      
   ISMEAR =    -5;   SIGMA  =   0.20  broadening in eV -4-tet -1-fermi 0-gaus

 Electronic relaxation 2 (details)
   IALGO  =     38    algorithm
   LDIAG  =      T    sub-space diagonalisation (order eigenvalues)
   LSUBROT=      F    optimize rotation matrix (better conditioning)
   TURBO    =      0    0=normal 1=particle mesh
   IRESTART =      0    0=no restart 2=restart with 2 vectors
   NREBOOT  =      0    no. of reboots
   NMIN     =      0    reboot dimension
   EREF     =   0.00    reference energy to select bands
   IMIX   =      1    mixing-type and parameters
     AMIX     =   0.40;   BMIX     =  1.00
     AMIX_MAG =   1.60;   BMIX_MAG =  1.00
     AMIN     =   0.10
     WC   =   100.;   INIMIX=   1;  MIXPRE=   1;  MAXMIX= -45

 Intra band minimization:
   WEIMIN = 0.0000     energy-eigenvalue tresh-hold
   EBREAK =  0.52E-07  absolut break condition
   DEPER  =   0.30     relativ break condition  

   TIME   =   0.40     timestep for ELM

  volume/ion in A,a.u.               =      21.80       147.10
  Fermi-wavevector in a.u.,A,eV,Ry     =   1.219045  2.303662 20.219229  1.486071
  Thomas-Fermi vector in A             =   2.354311
 
 Write flags
   LWAVE        =      T    write WAVECAR
   LDOWNSAMPLE  =      F    k-point downsampling of WAVECAR
   LCHARG       =      T    write CHGCAR
   LVTOT        =      T    write LOCPOT, total local potential
   LVHAR        =      F    write LOCPOT, Hartree potential only
   LELF         =      F    write electronic localiz. function (ELF)
   LORBIT       =     11    0 simple, 1 ext, 2 COOP (PROOUT), +10 PAW based schemes


 Dipole corrections
   LMONO  =      F    monopole corrections only (constant potential shift)
   LDIPOL =      F    correct potential (dipole corrections)
   IDIPOL =      0    1-x, 2-y, 3-z, 4-all directions 
   EPSILON=  1.0000000 bulk dielectric constant

 Exchange correlation treatment:
   GGA     =    PE    GGA type
   LEXCH   =     8    internal setting for exchange type
   LIBXC   =     F    Libxc                    
   VOSKOWN =     0    Vosko Wilk Nusair interpolation
   EXXOEP  =     0    0=HF, 1=EXX-LHF (local Hartree Fock) 2=EXX OEP
   LHFCALC =     T    Hartree Fock is set to
   LSYMGRAD=     F    symmetrize gradient (conserves proper symmetry)
   PRECFOCK=fast      Normal, Fast or Accurate (Low or Medium for compatibility)
   LRHFCALC=     F    long range Hartree Fock
   LRSCOR  =     F    long range correlation only (use DFT for short range part)
   LTHOMAS =     F    Thomas Fermi screening in HF
   LMODELHF=     F    short range full HF, long range fraction AEXX
   FOCKCORR=     1    mode to apply convergence corrections
   LFOCKACE=     T    use Adeptively-Compressed-Exchange operator
   ENCUT4O =  -1.0   cutoff for four orbital integrals eV
   LMAXFOCK=     4    L truncation for augmentation on plane wave grid
   LMAXFOCKAE=  -1    L truncation for all-electron charge restoration on plane wave grid
   NMAXFOCKAE=   1    number of basis functions for all-electron charge restoration
   LFOCKAEDFT=     F  apply the AE augmentation even for DFT
   NKREDX  =     1    reduce k-point grid by
   NKREDY  =     1    reduce k-point grid by
   NKREDZ  =     1    reduce k-point grid by
   SHIFTRED=     F    shift reduced grid of Gamma
   HFKIDENT=     F    idential grid for each k-point
   ODDONLY =     F    use only odd q-grid points
   EVENONLY=     F    use only even q-grid points
   HFALPHA =   -1.0000 decay constant for conv. correction
   MCALPHA =    0.0000 extent of test-charge in conv. correction in multipole expansion
   AEXX    =    0.2500 exact exchange contribution
   HFSCREEN=    0.2000 screening length (either q_TF or 0.3 A-1)
   HFSCREENC=   0.2000 screening length for correlation (either q_TF or 0.3 A-1)
   HFRCUT  =    0.0000 spherical cutoff for potential kernel
   ALDAX   =    0.7500 LDA exchange part
   AGGAX   =    0.7500 GGA exchange part
   ALDAC   =    1.0000 LDA correlation
   AGGAC   =    1.0000 GGA correlation
   ENCUTFOCK=  -1.0 apply spherical cutoff to Coloumb kernel
   NBANDSGWLOW=     1    first orbital included in HF term
   NBLOCK_FOCK=    64    blocking factor in FOCK_ACC

 Linear response parameters
   LEPSILON=     F    determine dielectric tensor
   LRPA    =     F    only Hartree local field effects (RPA)
   LNABLA  =     F    use nabla operator in PAW spheres
   LVEL    =     F    velocity operator in full k-point grid
   CSHIFT  =0.1000    complex shift for real part using Kramers Kronig
   OMEGAMAX=  -1.0    maximum frequency
   DEG_THRESHOLD= 0.2000000E-02 threshold for treating states as degnerate
   RTIME   =   -0.100 relaxation time in fs
  (WPLASMAI=    0.000 imaginary part of plasma frequency in eV, 0.658/RTIME)
   DFIELD  = 0.0000000 0.0000000 0.0000000 field for delta impulse in time
 
  Optional k-point grid parameters
   LKPOINTS_OPT  =     F    use optional k-point grid
   KPOINTS_OPT_MODE=     1    mode for optional k-point grid
 
 Orbital magnetization related:
   ORBITALMAG=     F  switch on orbital magnetization
   LCHIMAG   =     F  perturbation theory with respect to B field
   DQ        =  0.001000  dq finite difference perturbation B field
   LLRAUG    =     F  two centre corrections for induced B field
   LBONE     =     F  B-component reconstruction in AE one-centre
   LVGVCALC  =     T  calculate vGv susceptibility
   LVGVAPPL  =     F  apply vGv susceptibility instead of pGv for G=0

 Random number generation:
   RANDOM_GENERATOR = DEFAULT
   PCG_SEED         = not used


--------------------------------------------------------------------------------------------------------


 Static calculation
 charge density and potential will be updated during run
 spin polarized calculation
 Variant of blocked Davidson
 Davidson routine will perform the subspace rotation
 perform sub-space diagonalisation
    after iterative eigenvector-optimisation
 Kerker-like  mixing scheme
 using additional bands           12
 reciprocal scheme for non local part
 use partial core corrections
 calculate Harris-corrections to forces 
   (improved forces if not selfconsistent)
 use gradient corrections 
 use of overlap-Matrix (Vanderbilt PP)
 Fermi weights with tetrahedron method with Bloechl corrections


--------------------------------------------------------------------------------------------------------


  energy-cutoff  :      680.00
  volume of cell :      174.38
      direct lattice vectors                 reciprocal lattice vectors
     5.108740358  0.000000000 -2.300308688     0.195742968  0.040527070  0.000000000
    -1.035758519  5.002642575 -2.300309163     0.000000000  0.199894353  0.000000000
     0.000000000  0.000000000  6.823138370     0.065991517  0.081054136  0.146560123

  length of vectors
     5.602735770  5.602736000  6.823138370     0.199894354  0.199894353  0.180012563


 
 k-points in units of 2pi/SCALE and weight: pymatgen with grid density = 728 / numbe
   0.00000000  0.00000000  0.00000000       0.021
   0.04893574  0.01013177  0.00000000       0.083
   0.09787148  0.02026354  0.00000000       0.042
   0.04893574  0.06010536  0.00000000       0.042
   0.09787148  0.07023712  0.00000000       0.083
  -0.04893574  0.03984182  0.00000000       0.042
   0.09787148  0.12021071  0.00000000       0.021
   0.02199717  0.02701805  0.04885337       0.042
   0.07093291  0.03714981  0.04885337       0.083
   0.11986866  0.04728158  0.04885337       0.083
  -0.02693857  0.01688628  0.04885337       0.083
   0.07093291  0.08712340  0.04885337       0.042
   0.11986866  0.09725517  0.04885337       0.083
  -0.02693857  0.06685987  0.04885337       0.083
   0.11986866  0.14722876  0.04885337       0.042
  -0.02693857  0.11683345  0.04885337       0.083
  -0.02693857 -0.03308731  0.04885337       0.042
 
 k-points in reciprocal lattice and weights: pymatgen with grid density = 728 / numbe
   0.00000000  0.00000000  0.00000000       0.021
   0.25000000 -0.00000000  0.00000000       0.083
   0.50000000 -0.00000000  0.00000000       0.042
   0.25000000  0.25000000  0.00000000       0.042
   0.50000000  0.25000000  0.00000000       0.083
  -0.25000000  0.25000000  0.00000000       0.042
   0.50000000  0.50000000  0.00000000       0.021
   0.00000000 -0.00000000  0.33333333       0.042
   0.25000000  0.00000000  0.33333333       0.083
   0.50000000 -0.00000000  0.33333333       0.083
  -0.25000000 -0.00000000  0.33333333       0.083
   0.25000000  0.25000000  0.33333333       0.042
   0.50000000  0.25000000  0.33333333       0.083
  -0.25000000  0.25000000  0.33333333       0.083
   0.50000000  0.50000000  0.33333333       0.042
  -0.25000000  0.50000000  0.33333333       0.083
  -0.25000000 -0.25000000  0.33333333       0.042
 
 position of ions in fractional coordinates (direct lattice) 
   0.50000000  0.50000000  0.00000000
   0.75000000  0.25000000  0.50000000
   0.00000000  0.00000000  0.00000000
   0.25000000  0.75000000  0.50000000
   0.37121578  0.37500000  0.25000000
   0.12500000  0.62878422  0.75000000
   0.62500000  0.12121578  0.75000000
   0.87878422  0.87500000  0.25000000
 
 position of ions in cartesian coordinates  (Angst):
   2.03649092  2.50132129 -2.30030893
   3.57261564  1.25066064  1.11126038
   0.00000000  0.00000000  0.00000000
   0.50036620  3.75198193  1.11126014
   1.50803559  1.87599097 -0.01074223
  -0.01267607  3.14558271  3.38341709
   3.06741245  0.60639922  3.40082708
   3.58319171  4.37731225 -2.32846090
 


--------------------------------------------------------------------------------------------------------


 k-point   1 :   0.0000 0.0000 0.0000  plane waves:    7043
 k-point   2 :   0.2500-0.0000 0.0000  plane waves:    7032
 k-point   3 :   0.5000-0.0000 0.0000  plane waves:    7016
 k-point   4 :   0.2500 0.2500 0.0000  plane waves:    7031
 k-point   5 :   0.5000 0.2500 0.0000  plane waves:    7016
 k-point   6 :  -0.2500 0.2500 0.0000  plane waves:    7013
 k-point   7 :   0.5000 0.5000 0.0000  plane waves:    7032
 k-point   8 :   0.0000-0.0000 0.3333  plane waves:    7016
 k-point   9 :   0.2500 0.0000 0.3333  plane waves:    7004
 k-point  10 :   0.5000-0.0000 0.3333  plane waves:    7027
 k-point  11 :  -0.2500-0.0000 0.3333  plane waves:    7015
 k-point  12 :   0.2500 0.2500 0.3333  plane waves:    7022
 k-point  13 :   0.5000 0.2500 0.3333  plane waves:    7029
 k-point  14 :  -0.2500 0.2500 0.3333  plane waves:    7032
 k-point  15 :   0.5000 0.5000 0.3333  plane waves:    7046
 k-point  16 :  -0.2500 0.5000 0.3333  plane waves:    7031
 k-point  17 :  -0.2500-0.2500 0.3333  plane waves:    7032

 maximum and minimum number of plane-waves per node :       732      679

 maximum number of plane-waves:      7046
 maximum index in each direction: 
   IXMAX=   12   IYMAX=   12   IZMAX=   14
   IXMIN=  -12   IYMIN=  -12   IZMIN=  -14


 parallel 3D FFT for wavefunctions:
    minimum data exchange during FFTs selected (reduces bandwidth)
 parallel 3D FFT for charge:
    minimum data exchange during FFTs selected (reduces bandwidth)


 FFT grid for exact exchange (Hartree Fock) 
  NGX = 28; NGY = 28; NGZ = 32

 
 Radii for the augmentation spheres in the non-local exchange
 for species   1 augmentation radius   1.392 (default was   1.031)
       energy cutoff for augmentation   2720.0
 for species   2 augmentation radius   1.273 (default was   0.943)
       energy cutoff for augmentation   2720.0
 for species   3 augmentation radius   1.459 (default was   1.081)
       energy cutoff for augmentation   2720.0

 real space projection operators:
  total allocation   :       2587.50 KBytes
  max/ min on nodes  :        278.71        189.06

 Maximum index for augmentation-charges in exchange          263
  SETUP_FOCK is finished

 total amount of memory used by VASP MPI-rank0    41114. kBytes
=======================================================================

   base      :      30000. kBytes
   nonl-proj :       5559. kBytes
   fftplans  :        995. kBytes
   grid      :       2187. kBytes
   one-center:         31. kBytes
   HF        :         64. kBytes
   nonlr-proj:        607. kBytes
   wavefun   :       1671. kBytes
 
     INWAV:  cpu time      0.0000: real time      0.0001
 initial charge density was supplied:
 charge density of overlapping atoms calculated
 number of electron      72.0000000 magnetization       4.8000000
 keeping initial charge density in first step


--------------------------------------------------------------------------------------------------------


 Maximum index for augmentation-charges          927 (set IRDMAX)


--------------------------------------------------------------------------------------------------------


 First call to EWALD:  gamma=   0.317
 Maximum number of real-space cells 3x 3x 3
 Maximum number of reciprocal cells 3x 3x 3

    FEWALD:  cpu time      0.0021: real time      0.0022


--------------------------------------- Ionic step        1  -------------------------------------------




--------------------------------------- Iteration      1(   1)  ---------------------------------------


    POTLOK:  cpu time      0.0568: real time      0.0899
    SETDIJ:  cpu time      0.4818: real time      0.4834
     EDDAV:  cpu time      0.7115: real time      0.7194
 BZINTS: Fermi energy:   19.067932;   72.000000 electrons
         Band energy: 0.312312E+03;  BLOECHL correction:   -0.430486
       DOS:  cpu time      0.0114: real time      0.0118
    --------------------------------------------
      LOOP:  cpu time      1.2615: real time      1.3045

 eigenvalue-minimisations  :  3528
 total energy-change (2. order) :-0.3256467E+04  (-0.3833932E+04)
 number of electron      72.0000000 magnetization       4.8000000
 augmentation part       72.0000000 magnetization       4.8000000

 Free energy of the ion-electron system (eV)
  ---------------------------------------------------
  alpha Z        PSCENC =       236.66789905
  Ewald energy   TEWEN  =     -4863.29910036
  -Hartree energ DENC   =     -2637.76833053
  -exchange      EXHF   =         0.00000000
  -V(xc)+E(xc)   XCENC  =       177.07437661
  PAW double counting   =      6503.67618105   -11078.28736089
  entropy T*S    EENTRO =         0.00000000
  eigenvalues    EBANDS =       312.31173301
  atomic energy  EATOM  =      8093.15734121
  Solvation  Ediel_sol  =         0.00000000
  ---------------------------------------------------
  free energy    TOTEN  =     -3256.46726085 eV

  energy without entropy =    -3256.46726085  energy(sigma->0) =    -3256.46726085
  exchange ACFDT corr.  =         0.00000000  see jH, gK, PRB 81, 115126


--------------------------------------------------------------------------------------------------------




--------------------------------------- Iteration      1(   2)  ---------------------------------------


     EDDAV:  cpu time      0.6301: real time      0.6334
 BZINTS: Fermi energy:    6.498538;   72.000000 electrons
         Band energy:-0.311936E+03;  BLOECHL correction:   -0.001997
       DOS:  cpu time      0.0094: real time      0.0095
    --------------------------------------------
      LOOP:  cpu time      0.6396: real time      0.6429

 eigenvalue-minimisations  :  3300
 total energy-change (2. order) :-0.6242477E+03  (-0.5889408E+03)
 number of electron      72.0000000 magnetization       4.8000000
 augmentation part       72.0000000 magnetization       4.8000000

 Free energy of the ion-electron system (eV)
  ---------------------------------------------------
  alpha Z        PSCENC =       236.66789905
  Ewald energy   TEWEN  =     -4863.29910036
  -Hartree energ DENC   =     -2637.76833053
  -exchange      EXHF   =         0.00000000
  -V(xc)+E(xc)   XCENC  =       177.07437661
  PAW double counting   =      6503.67618105   -11078.28736089
  entropy T*S    EENTRO =         0.00000000
  eigenvalues    EBANDS =      -311.93593645
  atomic energy  EATOM  =      8093.15734121
  Solvation  Ediel_sol  =         0.00000000
  ---------------------------------------------------
  free energy    TOTEN  =     -3880.71493031 eV

  energy without entropy =    -3880.71493031  energy(sigma->0) =    -3880.71493031
  exchange ACFDT corr.  =         0.00000000  see jH, gK, PRB 81, 115126


--------------------------------------------------------------------------------------------------------




--------------------------------------- Iteration      1(   3)  ---------------------------------------


     EDDAV:  cpu time      0.7514: real time      0.7691
 BZINTS: Fermi energy:    2.690966;   72.000000 electrons
         Band energy:-0.416400E+03;  BLOECHL correction:    0.000000
       DOS:  cpu time      0.0042: real time      0.0042
    --------------------------------------------
      LOOP:  cpu time      0.7556: real time      0.7733

 eigenvalue-minimisations  :  4188
 total energy-change (2. order) :-0.1044644E+03  (-0.1014883E+03)
 number of electron      72.0000000 magnetization       4.8000000
 augmentation part       72.0000000 magnetization       4.8000000

 Free energy of the ion-electron system (eV)
  ---------------------------------------------------
  alpha Z        PSCENC =       236.66789905
  Ewald energy   TEWEN  =     -4863.29910036
  -Hartree energ DENC   =     -2637.76833053
  -exchange      EXHF   =         0.00000000
  -V(xc)+E(xc)   XCENC  =       177.07437661
  PAW double counting   =      6503.67618105   -11078.28736089
  entropy T*S    EENTRO =         0.00000000
  eigenvalues    EBANDS =      -416.40036070
  atomic energy  EATOM  =      8093.15734121
  Solvation  Ediel_sol  =         0.00000000
  ---------------------------------------------------
  free energy    TOTEN  =     -3985.17935456 eV

  energy without entropy =    -3985.17935456  energy(sigma->0) =    -3985.17935456
  exchange ACFDT corr.  =         0.00000000  see jH, gK, PRB 81, 115126


--------------------------------------------------------------------------------------------------------




--------------------------------------- Iteration      1(   4)  ---------------------------------------


     EDDAV:  cpu time      0.6936: real time      0.7133
 BZINTS: Fermi energy:    2.459705;   72.000000 electrons
         Band energy:-0.422186E+03;  BLOECHL correction:    0.000000
       DOS:  cpu time      0.0044: real time      0.0044
    --------------------------------------------
      LOOP:  cpu time      0.6980: real time      0.7177

 eigenvalue-minimisations  :  3852
 total energy-change (2. order) :-0.5785701E+01  (-0.5766640E+01)
 number of electron      72.0000000 magnetization       4.8000000
 augmentation part       72.0000000 magnetization       4.8000000

 Free energy of the ion-electron system (eV)
  ---------------------------------------------------
  alpha Z        PSCENC =       236.66789905
  Ewald energy   TEWEN  =     -4863.29910036
  -Hartree energ DENC   =     -2637.76833053
  -exchange      EXHF   =         0.00000000
  -V(xc)+E(xc)   XCENC  =       177.07437661
  PAW double counting   =      6503.67618105   -11078.28736089
  entropy T*S    EENTRO =         0.00000000
  eigenvalues    EBANDS =      -422.18606149
  atomic energy  EATOM  =      8093.15734121
  Solvation  Ediel_sol  =         0.00000000
  ---------------------------------------------------
  free energy    TOTEN  =     -3990.96505535 eV

  energy without entropy =    -3990.96505535  energy(sigma->0) =    -3990.96505535
  exchange ACFDT corr.  =         0.00000000  see jH, gK, PRB 81, 115126


--------------------------------------------------------------------------------------------------------




--------------------------------------- Iteration      1(   5)  ---------------------------------------


    POTLOK:  cpu time      0.0365: real time      0.0518
    SETDIJ:  cpu time      1.1564: real time      1.1593
     EDDAV:  cpu time     47.3771: real time     47.5035
 BZINTS: Fermi energy:    3.238544;   72.000000 electrons
         Band energy:-0.384706E+03;  BLOECHL correction:    0.000000
       DOS:  cpu time      0.0040: real time      0.0041
    CHARGE:  cpu time      0.0791: real time      0.0951
    MIXING:  cpu time      0.0010: real time      0.0010
    --------------------------------------------
      LOOP:  cpu time     48.6539: real time     48.8148

 eigenvalue-minimisations  :  4272
 total energy-change (2. order) : 0.3954194E+04  (-0.2594401E+01)
 number of electron      72.0000006 magnetization      -2.8800000
 augmentation part       26.8999327 magnetization      -2.7861825

 Free energy of the ion-electron system (eV)
  ---------------------------------------------------
  alpha Z        PSCENC =       236.66789905
  Ewald energy   TEWEN  =     -4863.29910036
  -Hartree energ DENC   =     -2637.76833053
  -exchange      EXHF   =       173.00079063
  -V(xc)+E(xc)   XCENC  =       131.57906539
  PAW double counting   =      6546.42584338    -7331.82884262
  entropy T*S    EENTRO =         0.00000000
  eigenvalues    EBANDS =      -384.70594940
  atomic energy  EATOM  =      8093.15734121
  Solvation  Ediel_sol  =         0.00000000
  ---------------------------------------------------
  free energy    TOTEN  =       -36.77128325 eV

  energy without entropy =      -36.77128325  energy(sigma->0) =      -36.77128325
  exchange ACFDT corr.  =         0.00000000  see jH, gK, PRB 81, 115126


--------------------------------------------------------------------------------------------------------




--------------------------------------- Iteration      1(   6)  ---------------------------------------


    POTLOK:  cpu time      0.0564: real time      0.0673
    SETDIJ:  cpu time      1.1516: real time      1.1547
     EDDAV:  cpu time     47.4461: real time     47.5724
 BZINTS: Fermi energy:    3.412802;   72.000000 electrons
         Band energy:-0.382442E+03;  BLOECHL correction:    0.000000
       DOS:  cpu time      0.0041: real time      0.0044
    CHARGE:  cpu time      0.0734: real time      0.0736
    MIXING:  cpu time      0.0002: real time      0.0002
    --------------------------------------------
      LOOP:  cpu time     48.7318: real time     48.8725

 eigenvalue-minimisations  :  4476
 total energy-change (2. order) : 0.2014691E-01  (-0.3216684E+00)
 number of electron      72.0000009 magnetization       1.7280000
 augmentation part       26.8065499 magnetization       1.7262015

 Free energy of the ion-electron system (eV)
  ---------------------------------------------------
  alpha Z        PSCENC =       236.66789905
  Ewald energy   TEWEN  =     -4863.29910036
  -Hartree energ DENC   =     -2630.22616369
  -exchange      EXHF   =       169.09141147
  -V(xc)+E(xc)   XCENC  =       131.73967308
  PAW double counting   =      7015.34550052    -7806.78606574
  entropy T*S    EENTRO =         0.00000000
  eigenvalues    EBANDS =      -382.44163187
  atomic energy  EATOM  =      8093.15734121
  Solvation  Ediel_sol  =         0.00000000
  ---------------------------------------------------
  free energy    TOTEN  =       -36.75113634 eV

  energy without entropy =      -36.75113634  energy(sigma->0) =      -36.75113634
  exchange ACFDT corr.  =         0.00000000  see jH, gK, PRB 81, 115126


--------------------------------------------------------------------------------------------------------




--------------------------------------- Iteration      1(   7)  ---------------------------------------


    POTLOK:  cpu time      0.0384: real time      0.0524
    SETDIJ:  cpu time      1.1518: real time      1.1547
     EDDAV:  cpu time     47.5213: real time     47.6479
 BZINTS: Fermi energy:    3.292841;   72.000000 electrons
         Band energy:-0.391147E+03;  BLOECHL correction:    0.000000
       DOS:  cpu time      0.0049: real time      0.0049
    CHARGE:  cpu time      0.0559: real time      0.0560
    MIXING:  cpu time      0.0002: real time      0.0002
    --------------------------------------------
      LOOP:  cpu time     48.7724: real time     48.9162

 eigenvalue-minimisations  :  4800
 total energy-change (2. order) :-0.3946284E-01  (-0.1194289E+00)
 number of electron      72.0000011 magnetization      -1.0368000
 augmentation part       27.0229597 magnetization      -1.0198152

 Free energy of the ion-electron system (eV)
  ---------------------------------------------------
  alpha Z        PSCENC =       236.66789905
  Ewald energy   TEWEN  =     -4863.29910036
  -Hartree energ DENC   =     -2618.18081025
  -exchange      EXHF   =       167.78798192
  -V(xc)+E(xc)   XCENC  =       131.54161635
  PAW double counting   =      7368.43020353    -8161.74828476
  entropy T*S    EENTRO =         0.00000000
  eigenvalues    EBANDS =      -391.14744588
  atomic energy  EATOM  =      8093.15734121
  Solvation  Ediel_sol  =         0.00000000
  ---------------------------------------------------
  free energy    TOTEN  =       -36.79059918 eV

  energy without entropy =      -36.79059918  energy(sigma->0) =      -36.79059918
  exchange ACFDT corr.  =         0.00000000  see jH, gK, PRB 81, 115126


--------------------------------------------------------------------------------------------------------




--------------------------------------- Iteration      1(   8)  ---------------------------------------


    POTLOK:  cpu time      0.0389: real time      0.0530
    SETDIJ:  cpu time      1.1481: real time      1.1510
     EDDAV:  cpu time     47.5240: real time     47.6506
 BZINTS: Fermi energy:    3.285123;   72.000000 electrons
         Band energy:-0.387227E+03;  BLOECHL correction:    0.000000
       DOS:  cpu time      0.0042: real time      0.0042
    CHARGE:  cpu time      0.0642: real time      0.0644
    MIXING:  cpu time      0.0005: real time      0.0005
    --------------------------------------------
      LOOP:  cpu time     48.7798: real time     48.9236

 eigenvalue-minimisations  :  4656
 total energy-change (2. order) :-0.6493688E-01  (-0.3280217E-01)
 number of electron      72.0000012 magnetization       0.6220800
 augmentation part       27.0135421 magnetization       0.6214427

 Free energy of the ion-electron system (eV)
  ---------------------------------------------------
  alpha Z        PSCENC =       236.66789905
  Ewald energy   TEWEN  =     -4863.29910036
  -Hartree energ DENC   =     -2618.84212644
  -exchange      EXHF   =       167.99212522
  -V(xc)+E(xc)   XCENC  =       131.65004756
  PAW double counting   =      7638.40990255    -8435.36417843
  entropy T*S    EENTRO =         0.00000000
  eigenvalues    EBANDS =      -387.22744642
  atomic energy  EATOM  =      8093.15734121
  Solvation  Ediel_sol  =         0.00000000
  ---------------------------------------------------
  free energy    TOTEN  =       -36.85553606 eV

  energy without entropy =      -36.85553606  energy(sigma->0) =      -36.85553606
  exchange ACFDT corr.  =         0.00000000  see jH, gK, PRB 81, 115126


--------------------------------------------------------------------------------------------------------




--------------------------------------- Iteration      1(   9)  ---------------------------------------


    POTLOK:  cpu time      0.0487: real time      0.0639
    SETDIJ:  cpu time      1.1713: real time      1.1743
     EDDAV:  cpu time     47.1128: real time     47.2374
 BZINTS: Fermi energy:    3.295818;   72.000000 electrons
         Band energy:-0.385831E+03;  BLOECHL correction:    0.000000
       DOS:  cpu time      0.0041: real time      0.0041
    CHARGE:  cpu time      0.0554: real time      0.0555
    MIXING:  cpu time      0.0004: real time      0.0004
    --------------------------------------------
      LOOP:  cpu time     48.3927: real time     48.5357

 eigenvalue-minimisations  :  4584
 total energy-change (2. order) :-0.1157351E-01  (-0.3583616E-02)
 number of electron      72.0000013 magnetization      -0.3732480
 augmentation part       26.9891016 magnetization      -0.3715413

 Free energy of the ion-electron system (eV)
  ---------------------------------------------------
  alpha Z        PSCENC =       236.66789905
  Ewald energy   TEWEN  =     -4863.29910036
  -Hartree energ DENC   =     -2618.36554175
  -exchange      EXHF   =       167.76323283
  -V(xc)+E(xc)   XCENC  =       131.68032643
  PAW double counting   =      7830.18341732    -8628.82395337
  entropy T*S    EENTRO =         0.00000000
  eigenvalues    EBANDS =      -385.83073093
  atomic energy  EATOM  =      8093.15734121
  Solvation  Ediel_sol  =         0.00000000
  ---------------------------------------------------
  free energy    TOTEN  =       -36.86710957 eV

  energy without entropy =      -36.86710957  energy(sigma->0) =      -36.86710957
  exchange ACFDT corr.  =         0.00000000  see jH, gK, PRB 81, 115126


--------------------------------------------------------------------------------------------------------




--------------------------------------- Iteration      1(  10)  ---------------------------------------


    POTLOK:  cpu time      0.0386: real time      0.0510
    SETDIJ:  cpu time      1.1464: real time      1.1493
     EDDAV:  cpu time     47.6207: real time     47.7873
 BZINTS: Fermi energy:    3.278337;   72.000000 electrons
         Band energy:-0.386257E+03;  BLOECHL correction:    0.000000
       DOS:  cpu time      0.0047: real time      0.0047
    CHARGE:  cpu time      0.0557: real time      0.0559
    MIXING:  cpu time      0.0002: real time      0.0002
    --------------------------------------------
      LOOP:  cpu time     48.8664: real time     49.0485

 eigenvalue-minimisations  :  4620
 total energy-change (2. order) :-0.4161959E-02  (-0.1596669E-02)
 number of electron      72.0000013 magnetization       0.2239488
 augmentation part       26.9903327 magnetization       0.2236837

 Free energy of the ion-electron system (eV)
  ---------------------------------------------------
  alpha Z        PSCENC =       236.66789905
  Ewald energy   TEWEN  =     -4863.29910036
  -Hartree energ DENC   =     -2617.20616356
  -exchange      EXHF   =       167.68954274
  -V(xc)+E(xc)   XCENC  =       131.67373575
  PAW double counting   =      7944.65905860    -8743.95615538
  entropy T*S    EENTRO =         0.00000000
  eigenvalues    EBANDS =      -386.25742958
  atomic energy  EATOM  =      8093.15734121
  Solvation  Ediel_sol  =         0.00000000
  ---------------------------------------------------
  free energy    TOTEN  =       -36.87127153 eV

  energy without entropy =      -36.87127153  energy(sigma->0) =      -36.87127153
  exchange ACFDT corr.  =         0.00000000  see jH, gK, PRB 81, 115126


--------------------------------------------------------------------------------------------------------




--------------------------------------- Iteration      1(  11)  ---------------------------------------


    POTLOK:  cpu time      0.0392: real time      0.0525
    SETDIJ:  cpu time      1.1474: real time      1.1504
     EDDAV:  cpu time     47.8266: real time     47.9527
 BZINTS: Fermi energy:    3.284326;   72.000000 electrons
         Band energy:-0.386230E+03;  BLOECHL correction:    0.000000
       DOS:  cpu time      0.0044: real time      0.0044
    CHARGE:  cpu time      0.0639: real time      0.0641
    MIXING:  cpu time      0.0003: real time      0.0003
    --------------------------------------------
      LOOP:  cpu time     49.0819: real time     49.2243

 eigenvalue-minimisations  :  4236
 total energy-change (2. order) :-0.2303497E-02  (-0.4947359E-03)
 number of electron      72.0000014 magnetization      -0.1343693
 augmentation part       26.9890786 magnetization      -0.1340694

 Free energy of the ion-electron system (eV)
  ---------------------------------------------------
  alpha Z        PSCENC =       236.66789905
  Ewald energy   TEWEN  =     -4863.29910036
  -Hartree energ DENC   =     -2616.82298154
  -exchange      EXHF   =       167.74172642
  -V(xc)+E(xc)   XCENC  =       131.68372860
  PAW double counting   =      8006.77844427    -8806.55023607
  entropy T*S    EENTRO =         0.00000000
  eigenvalues    EBANDS =      -386.23039660
  atomic energy  EATOM  =      8093.15734121
  Solvation  Ediel_sol  =         0.00000000
  ---------------------------------------------------
  free energy    TOTEN  =       -36.87357503 eV

  energy without entropy =      -36.87357503  energy(sigma->0) =      -36.87357503
  exchange ACFDT corr.  =         0.00000000  see jH, gK, PRB 81, 115126


--------------------------------------------------------------------------------------------------------




--------------------------------------- Iteration      1(  12)  ---------------------------------------


    POTLOK:  cpu time      0.0394: real time      0.0548
    SETDIJ:  cpu time      1.1474: real time      1.1504
     EDDAV:  cpu time     47.2418: real time     47.3672
 BZINTS: Fermi energy:    3.270581;   72.000000 electrons
         Band energy:-0.386086E+03;  BLOECHL correction:    0.000000
       DOS:  cpu time      0.0042: real time      0.0042
    CHARGE:  cpu time      0.0747: real time      0.0750
    MIXING:  cpu time      0.0006: real time      0.0006
    --------------------------------------------
      LOOP:  cpu time     48.5081: real time     48.6522

 eigenvalue-minimisations  :  4320
 total energy-change (2. order) :-0.9781587E-03  (-0.1773652E-03)
 number of electron      72.0000014 magnetization       0.0806216
 augmentation part       26.9863610 magnetization       0.0806749

 Free energy of the ion-electron system (eV)
  ---------------------------------------------------
  alpha Z        PSCENC =       236.66789905
  Ewald energy   TEWEN  =     -4863.29910036
  -Hartree energ DENC   =     -2616.68771361
  -exchange      EXHF   =       167.76124780
  -V(xc)+E(xc)   XCENC  =       131.69426071
  PAW double counting   =      8040.53915901    -8840.62169179
  entropy T*S    EENTRO =         0.00000000
  eigenvalues    EBANDS =      -386.08595521
  atomic energy  EATOM  =      8093.15734121
  Solvation  Ediel_sol  =         0.00000000
  ---------------------------------------------------
  free energy    TOTEN  =       -36.87455319 eV

  energy without entropy =      -36.87455319  energy(sigma->0) =      -36.87455319
  exchange ACFDT corr.  =         0.00000000  see jH, gK, PRB 81, 115126


--------------------------------------------------------------------------------------------------------




--------------------------------------- Iteration      1(  13)  ---------------------------------------


    POTLOK:  cpu time      0.0467: real time      0.0627
    SETDIJ:  cpu time      1.1701: real time      1.1731
     EDDAV:  cpu time     47.5930: real time     47.7192
 BZINTS: Fermi energy:    3.275508;   72.000000 electrons
         Band energy:-0.386035E+03;  BLOECHL correction:    0.000000
       DOS:  cpu time      0.0040: real time      0.0040
    CHARGE:  cpu time      0.0559: real time      0.0560
    MIXING:  cpu time      0.0002: real time      0.0002
    --------------------------------------------
      LOOP:  cpu time     48.8698: real time     49.0151

 eigenvalue-minimisations  :  4224
 total energy-change (2. order) :-0.4177061E-03  (-0.5941305E-04)
 number of electron      72.0000014 magnetization      -0.0483729
 augmentation part       26.9855875 magnetization      -0.0483577

 Free energy of the ion-electron system (eV)
  ---------------------------------------------------
  alpha Z        PSCENC =       236.66789905
  Ewald energy   TEWEN  =     -4863.29910036
  -Hartree energ DENC   =     -2616.57156139
  -exchange      EXHF   =       167.76110015
  -V(xc)+E(xc)   XCENC  =       131.69971238
  PAW double counting   =      8058.51215360    -8858.76799409
  entropy T*S    EENTRO =         0.00000000
  eigenvalues    EBANDS =      -386.03452145
  atomic energy  EATOM  =      8093.15734121
  Solvation  Ediel_sol  =         0.00000000
  ---------------------------------------------------
  free energy    TOTEN  =       -36.87497089 eV

  energy without entropy =      -36.87497089  energy(sigma->0) =      -36.87497089
  exchange ACFDT corr.  =         0.00000000  see jH, gK, PRB 81, 115126


--------------------------------------------------------------------------------------------------------




--------------------------------------- Iteration      1(  14)  ---------------------------------------


    POTLOK:  cpu time      0.0388: real time      0.0523
    SETDIJ:  cpu time      1.1459: real time      1.1489
     EDDAV:  cpu time     47.4914: real time     47.6168
 BZINTS: Fermi energy:    3.269364;   72.000000 electrons
         Band energy:-0.385987E+03;  BLOECHL correction:    0.000000
       DOS:  cpu time      0.0042: real time      0.0042
    CHARGE:  cpu time      0.0656: real time      0.0657
    MIXING:  cpu time      0.0003: real time      0.0003
    --------------------------------------------
      LOOP:  cpu time     48.7461: real time     48.8881

 eigenvalue-minimisations  :  4248
 total energy-change (2. order) :-0.1834658E-03  (-0.2100743E-04)
 number of electron      72.0000014 magnetization       0.0290238
 augmentation part       26.9855607 magnetization       0.0290508

 Free energy of the ion-electron system (eV)
  ---------------------------------------------------
  alpha Z        PSCENC =       236.66789905
  Ewald energy   TEWEN  =     -4863.29910036
  -Hartree energ DENC   =     -2616.51843582
  -exchange      EXHF   =       167.76177011
  -V(xc)+E(xc)   XCENC  =       131.70332333
  PAW double counting   =      8067.99573952    -8868.35641623
  entropy T*S    EENTRO =         0.00000000
  eigenvalues    EBANDS =      -385.98727517
  atomic energy  EATOM  =      8093.15734121
  Solvation  Ediel_sol  =         0.00000000
  ---------------------------------------------------
  free energy    TOTEN  =       -36.87515436 eV

  energy without entropy =      -36.87515436  energy(sigma->0) =      -36.87515436
  exchange ACFDT corr.  =         0.00000000  see jH, gK, PRB 81, 115126


--------------------------------------------------------------------------------------------------------




--------------------------------------- Iteration      1(  15)  ---------------------------------------


    POTLOK:  cpu time      0.0395: real time      0.0542
    SETDIJ:  cpu time      1.1495: real time      1.1524
     EDDAV:  cpu time     47.1219: real time     47.2465
 BZINTS: Fermi energy:    3.269728;   72.000000 electrons
         Band energy:-0.385929E+03;  BLOECHL correction:    0.000000
       DOS:  cpu time      0.0040: real time      0.0040
    CHARGE:  cpu time      0.0716: real time      0.0718
    MIXING:  cpu time      0.0005: real time      0.0005
    --------------------------------------------
      LOOP:  cpu time     48.3869: real time     48.5293

 eigenvalue-minimisations  :  4056
 total energy-change (2. order) :-0.8461208E-04  (-0.8115158E-05)
 number of electron      72.0000014 magnetization      -0.0174143
 augmentation part       26.9854055 magnetization      -0.0174154

 Free energy of the ion-electron system (eV)
  ---------------------------------------------------
  alpha Z        PSCENC =       236.66789905
  Ewald energy   TEWEN  =     -4863.29910036
  -Hartree energ DENC   =     -2616.51182410
  -exchange      EXHF   =       167.76201099
  -V(xc)+E(xc)   XCENC  =       131.70602891
  PAW double counting   =      8073.12856492    -8873.55684196
  entropy T*S    EENTRO =         0.00000000
  eigenvalues    EBANDS =      -385.92931764
  atomic energy  EATOM  =      8093.15734121
  Solvation  Ediel_sol  =         0.00000000
  ---------------------------------------------------
  free energy    TOTEN  =       -36.87523897 eV

  energy without entropy =      -36.87523897  energy(sigma->0) =      -36.87523897
  exchange ACFDT corr.  =         0.00000000  see jH, gK, PRB 81, 115126


--------------------------------------------------------------------------------------------------------




--------------------------------------- Iteration      1(  16)  ---------------------------------------


    POTLOK:  cpu time      0.0368: real time      0.0510
    SETDIJ:  cpu time      1.1439: real time      1.1468
     EDDAV:  cpu time     47.2453: real time     47.3703
 BZINTS: Fermi energy:    3.266438;   72.000000 electrons
         Band energy:-0.385887E+03;  BLOECHL correction:    0.000000
       DOS:  cpu time      0.0047: real time      0.0047
    CHARGE:  cpu time      0.0568: real time      0.0569
    MIXING:  cpu time      0.0002: real time      0.0002
    --------------------------------------------
      LOOP:  cpu time     48.4877: real time     48.6299

 eigenvalue-minimisations  :  3552
 total energy-change (2. order) :-0.3932629E-04  (-0.2915330E-05)
 number of electron      72.0000014 magnetization       0.0104486
 augmentation part       26.9852225 magnetization       0.0105018

 Free energy of the ion-electron system (eV)
  ---------------------------------------------------
  alpha Z        PSCENC =       236.66789905
  Ewald energy   TEWEN  =     -4863.29910036
  -Hartree energ DENC   =     -2616.51485847
  -exchange      EXHF   =       167.76105444
  -V(xc)+E(xc)   XCENC  =       131.70768412
  PAW double counting   =      8075.97458600    -8876.44297951
  entropy T*S    EENTRO =         0.00000000
  eigenvalues    EBANDS =      -385.88690477
  atomic energy  EATOM  =      8093.15734121
  Solvation  Ediel_sol  =         0.00000000
  ---------------------------------------------------
  free energy    TOTEN  =       -36.87527830 eV

  energy without entropy =      -36.87527830  energy(sigma->0) =      -36.87527830
  exchange ACFDT corr.  =         0.00000000  see jH, gK, PRB 81, 115126


--------------------------------------------------------------------------------------------------------




--------------------------------------- Iteration      1(  17)  ---------------------------------------


    POTLOK:  cpu time      0.0363: real time      0.0509
    SETDIJ:  cpu time      1.1621: real time      1.1650
     EDDAV:  cpu time     47.3095: real time     47.4426
 BZINTS: Fermi energy:    3.265504;   72.000000 electrons
         Band energy:-0.385862E+03;  BLOECHL correction:    0.000000
       DOS:  cpu time      0.0040: real time      0.0040
    CHARGE:  cpu time      0.0661: real time      0.0662
    MIXING:  cpu time      0.0005: real time      0.0004
    --------------------------------------------
      LOOP:  cpu time     48.5784: real time     48.7292

 eigenvalue-minimisations  :  2976
 total energy-change (2. order) :-0.1833134E-04  (-0.1070575E-05)
 number of electron      72.0000014 magnetization      -0.0062691
 augmentation part       26.9852779 magnetization      -0.0062785

 Free energy of the ion-electron system (eV)
  ---------------------------------------------------
  alpha Z        PSCENC =       236.66789905
  Ewald energy   TEWEN  =     -4863.29910036
  -Hartree energ DENC   =     -2616.51785849
  -exchange      EXHF   =       167.76039997
  -V(xc)+E(xc)   XCENC  =       131.70861918
  PAW double counting   =      8077.54883275    -8878.03925575
  entropy T*S    EENTRO =         0.00000000
  eigenvalues    EBANDS =      -385.86217419
  atomic energy  EATOM  =      8093.15734121
  Solvation  Ediel_sol  =         0.00000000
  ---------------------------------------------------
  free energy    TOTEN  =       -36.87529663 eV

  energy without entropy =      -36.87529663  energy(sigma->0) =      -36.87529663
  exchange ACFDT corr.  =         0.00000000  see jH, gK, PRB 81, 115126


--------------------------------------------------------------------------------------------------------




--------------------------------------- Iteration      1(  18)  ---------------------------------------


    POTLOK:  cpu time      0.0425: real time      0.0565
    SETDIJ:  cpu time      1.1853: real time      1.1885
     EDDAV:  cpu time     46.8475: real time     46.9708
 BZINTS: Fermi energy:    3.263466;   72.000000 electrons
         Band energy:-0.385840E+03;  BLOECHL correction:    0.000000
       DOS:  cpu time      0.0040: real time      0.0041
    --------------------------------------------
      LOOP:  cpu time     48.0793: real time     48.2198

 eigenvalue-minimisations  :  2712
 total energy-change (2. order) :-0.8654265E-05  (-0.5129076E-06)
 number of electron      72.0000014 magnetization      -0.0062691
 augmentation part       26.9852779 magnetization      -0.0062785

 Free energy of the ion-electron system (eV)
  ---------------------------------------------------
  alpha Z        PSCENC =       236.66789905
  Ewald energy   TEWEN  =     -4863.29910036
  -Hartree energ DENC   =     -2616.52664765
  -exchange      EXHF   =       167.76058167
  -V(xc)+E(xc)   XCENC  =       131.70937612
  PAW double counting   =      8078.41545202    -8878.92018106
  entropy T*S    EENTRO =         0.00000000
  eigenvalues    EBANDS =      -385.84002629
  atomic energy  EATOM  =      8093.15734121
  Solvation  Ediel_sol  =         0.00000000
  ---------------------------------------------------
  free energy    TOTEN  =       -36.87530528 eV

  energy without entropy =      -36.87530528  energy(sigma->0) =      -36.87530528
  exchange ACFDT corr.  =         0.00000000  see jH, gK, PRB 81, 115126


--------------------------------------------------------------------------------------------------------




 average (electrostatic) potential at core
  the test charge radii are     1.0314  0.9430  1.0808
  (the norm of the test charge is              1.0000)
       1 -60.1320       2 -60.1320       3 -58.5081       4 -58.5081       5 -51.0357
       6 -51.0351       7 -51.0357       8 -51.0351
 
 
 
 E-fermi :   3.2635     XC(G=0):  -7.9628     alpha+bet : -9.2592

 Fermi energy:         3.2634659636

 spin component 1

 k-point     1 :       0.0000    0.0000    0.0000
  band No.  band energies     occupation 
      1     -14.6560      1.00000
      2     -14.6539      1.00000
      3     -14.6539      1.00000
      4     -14.5655      1.00000
      5     -14.5512      1.00000
      6     -14.5512      1.00000
      7     -14.5010      1.00000
      8     -14.4953      1.00000
      9     -14.4942      1.00000
     10     -14.4829      1.00000
     11     -12.4005      1.00000
     12     -10.7061      1.00000
     13     -10.7060      1.00000
     14     -10.7027      1.00000
     15      -4.7776      1.00000
     16      -3.2538      1.00000
     17      -1.8364      1.00000
     18      -1.6032      1.00000
     19      -1.5687      1.00000
     20      -1.0592      1.00000
     21      -1.0592      1.00000
     22      -0.5445      1.00000
     23      -0.5445      1.00000
     24      -0.3903      1.00000
     25      -0.3902      1.00000
     26      -0.3787      1.00000
     27       0.4969      1.00000
     28       0.5473      1.00000
     29       0.6212      1.00000
     30       0.9876      1.00000
     31       1.1340      1.00000
     32       1.1341      1.00000
     33       1.2084      1.00000
     34       3.1724      1.00000
     35       3.1727      1.00000
     36       3.2579      1.00000
     37       4.6253      0.00000
     38       6.1648      0.00000
     39       6.5860      0.00000
     40       8.3783      0.00000
[...]
     21      -0.5593      1.00000
     22      -0.5592      1.00000
     23      -0.4250      1.00000
     24      -0.4250      1.00000
     25      -0.1178      1.00000
     26      -0.1177      1.00000
     27       0.6005      1.00000
     28       0.6006      1.00000
     29       0.9869      1.00000
     30       0.9870      1.00000
     31       1.6263      1.00000
     32       1.6264      1.00000
     33       2.2730      1.00000
     34       2.2730      1.00000
     35       2.5056      1.00000
     36       2.5057      1.00000
     37       5.7900      0.00000
     38       5.7900      0.00000
     39       7.7296      0.00000
     40       7.7297      0.00000
     41       8.9434      0.00000
     42       8.9434      0.00000
     43       9.3772      0.00000
     44       9.3772      0.00000
     45      10.2648      0.00000
     46      10.2650      0.00000
     47      10.7966      0.00000
     48      10.7966      0.00000

 k-point    16 :      -0.2500    0.5000    0.3333
  band No.  band energies     occupation 
      1     -14.6633      1.00000
      2     -14.6595      1.00000
      3     -14.6271      1.00000
      4     -14.5924      1.00000
      5     -14.5606      1.00000
      6     -14.5534      1.00000
      7     -14.4980      1.00000
      8     -14.4964      1.00000
      9     -14.4896      1.00000
     10     -14.4859      1.00000
     11     -11.6346      1.00000
     12     -11.2165      1.00000
     13     -11.0575      1.00000
     14     -10.8198      1.00000
     15      -4.2864      1.00000
     16      -3.7936      1.00000
     17      -2.2430      1.00000
     18      -2.0263      1.00000
     19      -1.5668      1.00000
     20      -0.8374      1.00000
     21      -0.6624      1.00000
     22      -0.6113      1.00000
     23      -0.4903      1.00000
     24      -0.3498      1.00000
     25      -0.1767      1.00000
     26      -0.1019      1.00000
     27       0.6253      1.00000
     28       0.6601      1.00000
     29       0.7413      1.00000
     30       0.9869      1.00000
     31       1.3581      1.00000
     32       1.5463      1.00000
     33       1.7221      1.00000
     34       2.0689      1.00000
     35       2.3862      1.00000
     36       2.5602      1.00000
     37       6.0954      0.00000
     38       6.2845      0.00000
     39       7.8650      0.00000
     40       8.2534      0.00000
     41       8.5563      0.00000
     42       8.9896      0.00000
     43       9.2098      0.00000
     44       9.7812      0.00000
     45       9.9759      0.00000
     46      10.3973      0.00000
     47      10.5552      0.00000
     48      10.9665      0.00000

 k-point    17 :      -0.2500   -0.2500    0.3333
  band No.  band energies     occupation 
      1     -14.6593      1.00000
      2     -14.6591      1.00000
      3     -14.6414      1.00000
      4     -14.5733      1.00000
      5     -14.5618      1.00000
      6     -14.5539      1.00000
      7     -14.4992      1.00000
      8     -14.4948      1.00000
      9     -14.4929      1.00000
     10     -14.4845      1.00000
     11     -12.0290      1.00000
     12     -10.9619      1.00000
     13     -10.9060      1.00000
     14     -10.7492      1.00000
     15      -4.5159      1.00000
     16      -3.5893      1.00000
     17      -2.2155      1.00000
     18      -1.6645      1.00000
     19      -1.5275      1.00000
     20      -1.0019      1.00000
     21      -0.8558      1.00000
     22      -0.5575      1.00000
     23      -0.5544      1.00000
     24      -0.3922      1.00000
     25      -0.2654      1.00000
     26      -0.0269      1.00000
     27       0.5729      1.00000
     28       0.7371      1.00000
     29       0.7954      1.00000
     30       0.8592      1.00000
     31       1.1447      1.00000
     32       1.4445      1.00000
     33       1.6018      1.00000
     34       1.8074      1.00000
     35       2.5384      1.00000
     36       2.9604      1.00000
     37       5.9333      0.00000
     38       6.5105      0.00000
     39       7.5475      0.00000
     40       7.7974      0.00000
     41       8.7252      0.00000
     42       8.8447      0.00000
     43       9.0765      0.00000
     44       9.7008      0.00000
     45      10.0247      0.00000
     46      10.0735      0.00000
     47      11.2092      0.00000
     48      11.5234      0.00000


--------------------------------------------------------------------------------------------------------


 soft charge-density along one line, spin component           1
         0         1         2         3         4         5         6         7         8         9
 total charge-density along one line
 
 soft charge-density along one line, spin component           2
         0         1         2         3         4         5         6         7         8         9
 total charge-density along one line
 
 pseudopotential strength for first ion, spin component:           1
-12.044   0.002  -0.000   0.002   0.000   0.669  -0.002   0.000
  0.002 -12.040   0.002   0.001  -0.001  -0.002   0.666  -0.002
 -0.000   0.002 -12.040   0.002  -0.000   0.000  -0.002   0.667
  0.002   0.001   0.002 -12.041   0.000  -0.001  -0.001  -0.001
  0.000  -0.001  -0.000   0.000 -12.042  -0.000   0.000  -0.000
  0.669  -0.002   0.000  -0.001  -0.000   4.786   0.000  -0.000
 -0.002   0.666  -0.002  -0.001   0.000   0.000   4.785  -0.000
  0.000  -0.002   0.667  -0.001  -0.000  -0.000  -0.000   4.786
 -0.001  -0.001  -0.001   0.667   0.001   0.000  -0.000  -0.000
 -0.000   0.000  -0.000   0.001   0.667   0.000  -0.001   0.000
  0.000   0.000   0.000   0.000  -0.000  -0.000  -0.001  -0.000
 -0.000  -0.001  -0.001  -0.001   0.000   0.000   0.000   0.000
  0.001  -0.001  -0.001   0.001   0.000  -0.005   0.002   0.003
  0.001  -0.001   0.001  -0.001  -0.000  -0.003   0.003  -0.005
  0.001   0.001  -0.000  -0.001  -0.001  -0.003  -0.003   0.002
 -0.013   0.005   0.007  -0.007  -0.003   0.005  -0.002  -0.003
 -0.007   0.008  -0.012   0.005   0.002   0.003  -0.004   0.005
 -0.007  -0.007   0.005   0.009   0.010   0.003   0.003  -0.002
 pseudopotential strength for first ion, spin component:           2
-12.044   0.002  -0.000   0.002   0.000   0.669  -0.002   0.000
  0.002 -12.040   0.002   0.001  -0.001  -0.002   0.666  -0.002
 -0.000   0.002 -12.040   0.002  -0.000   0.000  -0.002   0.667
  0.002   0.001   0.002 -12.041   0.000  -0.001  -0.001  -0.001
  0.000  -0.001  -0.000   0.000 -12.042  -0.000   0.000  -0.000
  0.669  -0.002   0.000  -0.001  -0.000   4.785   0.000  -0.000
 -0.002   0.666  -0.002  -0.001   0.000   0.000   4.785  -0.000
  0.000  -0.002   0.667  -0.001  -0.000  -0.000  -0.000   4.786
 -0.001  -0.001  -0.001   0.667   0.001   0.000  -0.000  -0.000
 -0.000   0.000  -0.000   0.001   0.667   0.000  -0.001   0.000
  0.000   0.000   0.000   0.000  -0.000  -0.000  -0.001  -0.000
 -0.000  -0.001  -0.001  -0.001   0.000   0.000   0.000   0.000
  0.001  -0.001  -0.001   0.001   0.000  -0.005   0.002   0.003
  0.001  -0.001   0.001  -0.001  -0.000  -0.003   0.003  -0.005
  0.001   0.001  -0.000  -0.001  -0.001  -0.003  -0.003   0.002
 -0.013   0.005   0.007  -0.007  -0.003   0.005  -0.002  -0.003
 -0.007   0.008  -0.012   0.005   0.002   0.003  -0.004   0.005
 -0.007  -0.007   0.005   0.009   0.010   0.003   0.003  -0.002
 total augmentation occupancy for first ion, spin component:           1
  1.994  -0.001  -0.000  -0.000  -0.000   0.000  -0.003  -0.001  -0.001  -0.001  -0.000   0.000   0.017   0.009   0.010   0.002
 -0.001   1.992  -0.001  -0.001  -0.001  -0.003  -0.005  -0.004  -0.002  -0.003  -0.000   0.000  -0.007  -0.010   0.009  -0.001
 -0.000  -0.001   1.993  -0.001   0.000  -0.001  -0.004  -0.002  -0.003   0.000  -0.000   0.000  -0.009   0.016  -0.007  -0.001
 -0.000  -0.001  -0.001   1.992   0.001  -0.001  -0.002  -0.003  -0.004   0.004  -0.000   0.000   0.009  -0.008  -0.011   0.001
 -0.000  -0.001   0.000   0.001   1.992  -0.001  -0.003   0.000   0.004  -0.006   0.000  -0.000   0.005  -0.002  -0.013   0.001
  0.000  -0.003  -0.001  -0.001  -0.001   0.051  -0.010  -0.005  -0.002  -0.006  -0.000  -0.000   0.117   0.061   0.067   0.003
 -0.003  -0.005  -0.004  -0.002  -0.003  -0.010   0.036  -0.012  -0.006  -0.009  -0.000  -0.000  -0.049  -0.074   0.063  -0.001
 -0.001  -0.004  -0.002  -0.003   0.000  -0.005  -0.012   0.046  -0.009   0.000  -0.000  -0.000  -0.066   0.113  -0.045  -0.001
 -0.001  -0.002  -0.003  -0.004   0.004  -0.002  -0.006  -0.009   0.037   0.016  -0.000  -0.000   0.062  -0.053  -0.082   0.001
 -0.001  -0.003   0.000   0.004  -0.006  -0.006  -0.009   0.000   0.016   0.031   0.000   0.000   0.031  -0.013  -0.091   0.001
 -0.000  -0.000  -0.000  -0.000   0.000  -0.000  -0.000  -0.000  -0.000   0.000   1.376   0.039   0.000  -0.000   0.000   0.000
  0.000   0.000   0.000   0.000  -0.000  -0.000  -0.000  -0.000  -0.000   0.000   0.039   0.002  -0.000   0.000  -0.000  -0.000
  0.017  -0.007  -0.009   0.009   0.005   0.117  -0.049  -0.066   0.062   0.031   0.000  -0.000   0.846   0.001   0.000   0.018
  0.009  -0.010   0.016  -0.008  -0.002   0.061  -0.074   0.113  -0.053  -0.013  -0.000   0.000   0.001   0.848   0.001  -0.000
  0.010   0.009  -0.007  -0.011  -0.013   0.067   0.063  -0.045  -0.082  -0.091   0.000  -0.000   0.000   0.001   0.846  -0.000
  0.002  -0.001  -0.001   0.001   0.001   0.003  -0.001  -0.001   0.001   0.001   0.000  -0.000   0.018  -0.000  -0.000   0.000
  0.001  -0.001   0.002  -0.001  -0.000   0.001  -0.002   0.002  -0.001  -0.000  -0.000   0.000  -0.000   0.018  -0.000  -0.000
  0.001   0.001  -0.001  -0.001  -0.002   0.002   0.001  -0.001  -0.002  -0.002   0.000  -0.000  -0.000  -0.000   0.018  -0.000
 total augmentation occupancy for first ion, spin component:           2
  0.000  -0.000  -0.000  -0.000  -0.000   0.000  -0.000  -0.000  -0.000  -0.000  -0.000  -0.000  -0.000  -0.000  -0.000   0.000
 -0.000   0.000  -0.000  -0.000  -0.000  -0.000   0.000  -0.000  -0.000  -0.000  -0.000  -0.000   0.000   0.000  -0.000  -0.000
 -0.000  -0.000   0.000  -0.000   0.000  -0.000  -0.000   0.000  -0.000   0.000  -0.000  -0.000   0.000  -0.000   0.000  -0.000
 -0.000  -0.000  -0.000   0.000   0.000   0.000  -0.000  -0.000   0.000   0.000  -0.000  -0.000  -0.000   0.000   0.000   0.000
 -0.000  -0.000   0.000   0.000   0.000  -0.000  -0.000  -0.000   0.000   0.000   0.000   0.000  -0.000   0.000   0.000   0.000
  0.000  -0.000  -0.000   0.000  -0.000  -0.000   0.000   0.000   0.000   0.000  -0.000  -0.000  -0.000  -0.000  -0.000   0.000
 -0.000   0.000  -0.000  -0.000  -0.000   0.000  -0.000   0.000   0.000   0.000  -0.000  -0.000   0.000   0.000  -0.000  -0.000
 -0.000  -0.000   0.000  -0.000  -0.000   0.000   0.000  -0.000   0.000  -0.000  -0.000  -0.000   0.000  -0.000   0.000   0.000
 -0.000  -0.000  -0.000   0.000   0.000   0.000   0.000   0.000  -0.000  -0.000  -0.000  -0.000  -0.000   0.000   0.000   0.000
 -0.000  -0.000   0.000   0.000   0.000   0.000   0.000  -0.000  -0.000  -0.000   0.000  -0.000  -0.000   0.000   0.000  -0.000
 -0.000  -0.000  -0.000  -0.000   0.000  -0.000  -0.000  -0.000  -0.000   0.000  -0.000   0.000  -0.000  -0.000  -0.000  -0.000
 -0.000  -0.000  -0.000  -0.000   0.000  -0.000  -0.000  -0.000  -0.000  -0.000   0.000   0.000   0.000  -0.000  -0.000  -0.000
 -0.000   0.000   0.000  -0.000  -0.000  -0.000   0.000   0.000  -0.000  -0.000  -0.000   0.000   0.000  -0.000  -0.000   0.000
 -0.000   0.000  -0.000   0.000   0.000  -0.000   0.000  -0.000   0.000   0.000  -0.000  -0.000  -0.000   0.000  -0.000   0.000
 -0.000  -0.000   0.000   0.000   0.000  -0.000  -0.000   0.000   0.000   0.000  -0.000  -0.000  -0.000  -0.000   0.000  -0.000
  0.000  -0.000  -0.000   0.000   0.000   0.000  -0.000   0.000   0.000  -0.000  -0.000  -0.000   0.000   0.000  -0.000   0.000
  0.000  -0.000   0.000  -0.000  -0.000  -0.000  -0.000  -0.000   0.000  -0.000   0.000  -0.000  -0.000   0.000   0.000   0.000
  0.000   0.000  -0.000  -0.000  -0.000   0.000  -0.000   0.000   0.000  -0.000  -0.000  -0.000   0.000   0.000   0.000   0.000


------------------------ aborting loop because EDIFF is reached ----------------------------------------





 total charge

# of ion       s       p       d       tot
------------------------------------------
    1        0.819   0.718  10.038  11.576
    2        0.819   0.718  10.038  11.576
    3        0.343   0.337   9.374  10.053
    4        0.343   0.337   9.374  10.053
    5        1.452   2.450   0.046   3.948
    6        1.452   2.450   0.046   3.948
    7        1.452   2.450   0.046   3.948
    8        1.452   2.450   0.046   3.948
--------------------------------------------------
tot          8.131  11.910  39.008  59.049



 magnetization (x)

# of ion       s       p       d       tot
------------------------------------------
    1       -0.000   0.000   0.000  -0.000
    2       -0.000   0.000   0.000  -0.000
    3        0.000   0.000   0.000   0.000
    4        0.000   0.000   0.000   0.000
    5        0.000   0.000  -0.000   0.000
    6        0.000   0.000  -0.000   0.000
    7        0.000   0.000  -0.000   0.000
    8        0.000   0.000  -0.000   0.000
--------------------------------------------------
tot         -0.000   0.000   0.000   0.000
 
    CHARGE:  cpu time      0.0563: real time      0.0564
    FORLOC:  cpu time      0.0011: real time      0.0011
    FORHF :  cpu time     43.2541: real time     43.3671
    FORNL :  cpu time      0.0787: real time      0.0793
    FORCOR:  cpu time      1.2015: real time      1.2050
    FORHAR:  cpu time      0.0048: real time      0.0051
    MIXING:  cpu time      0.0004: real time      0.0004
    OFIELD:  cpu time      0.0006: real time      0.0010

 VOLUME and BASIS-vectors are now :
 -----------------------------------------------------------------------------
  energy-cutoff  :      680.00
  volume of cell :      174.38
      direct lattice vectors                 reciprocal lattice vectors
     5.108740358  0.000000000 -2.300308688     0.195742968  0.040527070  0.000000000
    -1.035758519  5.002642575 -2.300309163     0.000000000  0.199894353  0.000000000
     0.000000000  0.000000000  6.823138370     0.065991517  0.081054136  0.146560123

  length of vectors
     5.602735770  5.602736000  6.823138370     0.199894354  0.199894353  0.180012563


 FORCES acting on ions
    electron-ion (+dipol)            ewald-force                    non-local-force                 convergence-correction
 -----------------------------------------------------------------------------------------------
   0.616E-02 0.136E-01 -.226E-02   -.241E-04 -.786E-05 0.140E-04   0.101E-18 -.357E-18 0.685E-18   -.138E-04 -.270E-04 -.353E-04
   0.121E-01 0.877E-02 -.229E-02   -.269E-04 -.466E-05 0.104E-04   -.109E-17 0.240E-18 -.458E-18   0.258E-04 0.242E-04 0.444E-04
   0.756E-02 0.375E-02 -.179E-02   -.234E-04 -.412E-05 0.911E-05   0.331E-18 -.495E-18 -.530E-18   -.295E-04 -.949E-05 -.482E-05
   0.216E-02 0.811E-02 -.180E-02   -.211E-04 -.680E-05 0.122E-04   -.663E-18 0.343E-18 0.297E-18   0.122E-04 0.259E-04 0.313E-04
   0.168E+02 -.135E-02 -.758E+01   -.184E+02 0.557E-05 0.829E+01   0.157E+01 -.311E-18 -.709E+00   -.606E-03 -.272E-05 0.270E-03
   0.341E+01 -.165E+02 0.758E+01   -.373E+01 0.180E+02 -.829E+01   0.319E+00 -.154E+01 0.709E+00   -.118E-03 0.586E-03 -.263E-03
   -.341E+01 0.165E+02 -.758E+01   0.373E+01 -.180E+02 0.829E+01   -.319E+00 0.154E+01 -.709E+00   0.124E-03 -.581E-03 0.278E-03
   -.168E+02 -.333E-02 0.758E+01   0.184E+02 0.615E-05 -.829E+01   -.157E+01 -.236E-18 0.709E+00   0.600E-03 0.321E-05 -.282E-03
 -----------------------------------------------------------------------------------------------
   0.197E-01 0.243E-01 -.972E-02   0.178E-13 -.997E-14 -.249E-13   -.444E-15 0.444E-15 0.000E+00   -.430E-05 0.189E-04 0.384E-04
 
 
 POSITION                                       TOTAL-FORCE (eV/Angst)
 -----------------------------------------------------------------------------------
      2.03649      2.50132     -2.30031         0.000000     -0.000000      0.000000
      3.57262      1.25066      1.11126         0.000000      0.000000      0.000000
      0.00000      0.00000      0.00000         0.000000      0.000000      0.000000
      0.50037      3.75198      1.11126         0.000000     -0.000000      0.000000
      1.50804      1.87599     -0.01074         0.233231      0.000000     -0.105017
     -0.01268      3.14558      3.38342         0.047286     -0.228387      0.105017
      3.06741      0.60640      3.40083        -0.047286      0.228387     -0.105017
      3.58319      4.37731     -2.32846        -0.233231     -0.000000      0.105017
 -----------------------------------------------------------------------------------
    total drift:                                0.019706      0.024279     -0.009685


--------------------------------------------------------------------------------------------------------



  FREE ENERGIE OF THE ION-ELECTRON SYSTEM (eV)
  ---------------------------------------------------
  free  energy   TOTEN  =       -36.87530528 eV

  energy  without entropy=      -36.87530528  energy(sigma->0) =      -36.87530528
 


--------------------------------------------------------------------------------------------------------


    POTLOK:  cpu time      1.1947: real time      1.1980


--------------------------------------------------------------------------------------------------------


 writing wavefunctions
     LOOP+:  cpu time    732.6101: real time    734.9148
    4ORBIT:  cpu time      0.0000: real time      0.0000



 total charge

# of ion       s       p       d       tot
------------------------------------------
    1        0.819   0.718  10.038  11.576
    2        0.819   0.718  10.038  11.576
    3        0.343   0.337   9.374  10.053
    4        0.343   0.337   9.374  10.053
    5        1.452   2.450   0.046   3.948
    6        1.452   2.450   0.046   3.948
    7        1.452   2.450   0.046   3.948
    8        1.452   2.450   0.046   3.948
--------------------------------------------------
tot          8.131  11.910  39.008  59.049



 magnetization (x)

# of ion       s       p       d       tot
------------------------------------------
    1       -0.000   0.000   0.000  -0.000
    2       -0.000   0.000   0.000  -0.000
    3        0.000   0.000   0.000   0.000
    4        0.000   0.000   0.000   0.000
    5        0.000   0.000  -0.000   0.000
    6        0.000   0.000  -0.000   0.000
    7        0.000   0.000  -0.000   0.000
    8        0.000   0.000  -0.000   0.000
--------------------------------------------------
tot         -0.000   0.000   0.000   0.000
 
 BZINTS: Fermi energy:    3.263466;   72.000000 electrons
         Band energy:-0.385840E+03;  BLOECHL correction:    0.000000

 total amount of memory used by VASP MPI-rank0    47218. kBytes
=======================================================================

   base      :      30000. kBytes
   nonl-proj :       5559. kBytes
   fftplans  :        995. kBytes
   grid      :       2187. kBytes
   one-center:         31. kBytes
   HF        :         64. kBytes
   nonlr-proj:       1402. kBytes
   wavefun   :       1671. kBytes
   fock_wrk  :       5309. kBytes
 
  
  
 General timing and accounting informations for this job:
 ========================================================
  
                  Total CPU time used (sec):      749.109
                            User time (sec):      746.076
                          System time (sec):        3.033
                         Elapsed time (sec):      752.234
  
                   Maximum memory used (kb):      304788.
                   Average memory used (kb):          N/A
  
                          Minor page faults:        92437
                          Major page faults:            0
                 Voluntary context switches:         8774
