<?xml version="1.0" encoding="ISO-8859-1"?>
<modeling>
 <generator>
  <i name="program" type="string">vasp </i>
  <i name="version" type="string">6.4.2  </i>
  <i name="subversion" type="string">20Jul23 (build Mar 15 2024 16:31:38) complex                          parallel </i>
  <i name="platform" type="string">LinuxIFC </i>
  <i name="date" type="string">2025 03 19 </i>
  <i name="time" type="string">13:43:57 </i>
 </generator>
 <incar>
  <i type="string" name="PREC">Accurate</i>
  <i type="string" name="ALGO">Normal</i>
  <i type="int" name="ISPIN">     2</i>
  <i type="int" name="NELM">   200</i>
  <i name="EDIFF">      0.00001000</i>
  <i type="int" name="NSW">     0</i>
  <i name="ENCUT">    680.00000000</i>
  <i name="ENAUG">   1360.00000000</i>
  <v name="MAGMOM">      0.60000000      0.60000000      0.60000000      0.60000000      0.60000000      0.60000000      0.60000000      0.60000000</v>
  <i type="logical" name="LREAL"> F  </i>
  <i type="int" name="ISMEAR">    -5</i>
  <i name="SIGMA">      0.20000000</i>
  <i type="int" name="LMAXMIX">     4</i>
  <i type="logical" name="LWAVE"> T  </i>
  <i type="logical" name="LCHARG"> T  </i>
  <i type="logical" name="LVTOT"> T  </i>
  <i type="int" name="LORBIT">    11</i>
  <i type="logical" name="LELF"> F  </i>
  <i type="logical" name="LASPH"> T  </i>
  <i type="logical" name="LAECHG"> T  </i>
  <i name="HFSCREEN">      0.20000000</i>
  <i type="logical" name="LHFCALC"> T  </i>
  <i type="string" name="GGA">Pe</i>
  <i type="string" name="PRECFOCK">Fast</i>
  <i type="logical" name="LDAU"> F  </i>
  <i type="logical" name="LMIXTAU"> T  </i>
 </incar>
 <primitive_cell>
  <structure name="primitive_cell" >
   <crystal>
    <varray name="basis" >
     <v>       5.10874036       0.00000000      -2.30030869 </v>
     <v>      -1.03575852       5.00264257      -2.30030916 </v>
     <v>       0.00000000       0.00000000       6.82313837 </v>
    </varray>
    <i name="volume">    174.38032574 </i>
    <varray name="rec_basis" >
     <v>       0.19574297       0.04052707       0.00000000 </v>
     <v>       0.00000000       0.19989435       0.00000000 </v>
     <v>       0.06599152       0.08105414       0.14656012 </v>
    </varray>
   </crystal>
   <varray name="positions" >
    <v>       0.50000000       0.50000000       1.00000000 </v>
    <v>       0.75000000       0.25000000       0.50000000 </v>
    <v>       0.00000000       0.00000000       0.00000000 </v>
    <v>       0.25000000       0.75000000       0.50000000 </v>
    <v>       0.37121578       0.37500000       0.25000000 </v>
    <v>       0.12500000       0.62878422       0.75000000 </v>
    <v>       0.62500000       0.12121578       0.75000000 </v>
    <v>       0.87878422       0.87500000       0.25000000 </v>
   </varray>
  </structure>
  <varray name="primitive_index" >
   <v type="int" >        1 </v>
   <v type="int" >        2 </v>
   <v type="int" >        3 </v>
   <v type="int" >        4 </v>
   <v type="int" >        5 </v>
   <v type="int" >        6 </v>
   <v type="int" >        7 </v>
   <v type="int" >        8 </v>
  </varray>
 </primitive_cell>
 <kpoints>
  <generation param="Gamma">
   <v type="int" name="divisions">       4        4        3 </v>
   <v name="usershift">      0.00000000       0.00000000       0.00000000 </v>
   <v name="genvec1">      0.25000000       0.00000000       0.00000000 </v>
   <v name="genvec2">      0.00000000       0.25000000       0.00000000 </v>
   <v name="genvec3">     -0.00000000       0.00000000       0.33333333 </v>
   <v name="shift">      0.00000000       0.00000000       0.00000000 </v>
  </generation>
  <varray name="kpointlist" >
   <v>       0.00000000       0.00000000       0.00000000 </v>
   <v>       0.25000000      -0.00000000       0.00000000 </v>
   <v>       0.50000000      -0.00000000       0.00000000 </v>
   <v>       0.25000000       0.25000000       0.00000000 </v>
   <v>       0.50000000       0.25000000       0.00000000 </v>
   <v>      -0.25000000       0.25000000       0.00000000 </v>
   <v>       0.50000000       0.50000000       0.00000000 </v>
   <v>       0.00000000      -0.00000000       0.33333333 </v>
   <v>       0.25000000       0.00000000       0.33333333 </v>
   <v>       0.50000000      -0.00000000       0.33333333 </v>
   <v>      -0.25000000      -0.00000000       0.33333333 </v>
   <v>       0.25000000       0.25000000       0.33333333 </v>
   <v>       0.50000000       0.25000000       0.33333333 </v>
   <v>      -0.25000000       0.25000000       0.33333333 </v>
   <v>       0.50000000       0.50000000       0.33333333 </v>
   <v>      -0.25000000       0.50000000       0.33333333 </v>
   <v>      -0.25000000      -0.25000000       0.33333333 </v>
  </varray>
  <varray name="weights" >
   <v>       0.02083333 </v>
   <v>       0.08333333 </v>
   <v>       0.04166667 </v>
   <v>       0.04166667 </v>
   <v>       0.08333333 </v>
   <v>       0.04166667 </v>
   <v>       0.02083333 </v>
   <v>       0.04166667 </v>
   <v>       0.08333333 </v>
   <v>       0.08333333 </v>
   <v>       0.08333333 </v>
   <v>       0.04166667 </v>
   <v>       0.08333333 </v>
   <v>       0.08333333 </v>
   <v>       0.04166667 </v>
   <v>       0.08333333 </v>
   <v>       0.04166667 </v>
  </varray>
  <varray name="tetrahedronlist"  type="int" >
   <v type="int" >        4        9       10       14       14 </v>
   <v type="int" >        4       10       14       14       16 </v>
   <v type="int" >        4       10       13       14       16 </v>
   <v type="int" >        4        9       10       11       14 </v>
   <v type="int" >        4       10       10       11       14 </v>
   <v type="int" >        4       10       10       13       14 </v>
   <v type="int" >        4       10       11       13       16 </v>
   <v type="int" >        4       11       13       16       17 </v>
   <v type="int" >        4       11       12       13       17 </v>
   <v type="int" >        4       10       10       11       13 </v>
   <v type="int" >        4        9       10       11       13 </v>
   <v type="int" >        4        9       11       12       13 </v>
   <v type="int" >        4        8       11       12       17 </v>
   <v type="int" >        4        8        9       11       12 </v>
   <v type="int" >        4        8        8        9       12 </v>
   <v type="int" >        4        8        9        9       11 </v>
   <v type="int" >        4        9        9       11       14 </v>
   <v type="int" >        2        9        9       14       14 </v>
   <v type="int" >        2        8        8        9        9 </v>
   <v type="int" >        4        5       13       14       16 </v>
   <v type="int" >        4        5       13       15       16 </v>
   <v type="int" >        4        5        7       13       15 </v>
   <v type="int" >        4        5        6       13       14 </v>
   <v type="int" >        4        5        5        6       13 </v>
   <v type="int" >        4        5        5        7       13 </v>
   <v type="int" >        4        7       12       13       15 </v>
   <v type="int" >        4        5        7       12       13 </v>
   <v type="int" >        4        4        5        7       12 </v>
   <v type="int" >        4        5        9       12       13 </v>
   <v type="int" >        4        5        9       10       13 </v>
   <v type="int" >        4        3        5        9       10 </v>
   <v type="int" >        4        4        5        9       12 </v>
   <v type="int" >        4        2        4        5        9 </v>
   <v type="int" >        4        2        3        5        9 </v>
   <v type="int" >        4        3        9       10       14 </v>
   <v type="int" >        4        3       10       14       16 </v>
   <v type="int" >        4        3        5       14       16 </v>
   <v type="int" >        4        2        3        9       14 </v>
   <v type="int" >        4        2        3        6       14 </v>
   <v type="int" >        4        3        5        6       14 </v>
   <v type="int" >        4        6       10       11       14 </v>
   <v type="int" >        4        6       10       13       14 </v>
   <v type="int" >        4        5        6       10       13 </v>
   <v type="int" >        4        2        6       10       11 </v>
   <v type="int" >        4        2        3        6       10 </v>
   <v type="int" >        4        3        5        6       10 </v>
   <v type="int" >        4        4        8        9       12 </v>
   <v type="int" >        4        2        4        8        9 </v>
   <v type="int" >        4        1        2        4        8 </v>
   <v type="int" >        4        2        8        9       11 </v>
   <v type="int" >        4        2        9       11       14 </v>
   <v type="int" >        4        2        6       11       14 </v>
   <v type="int" >        4        1        2        8       11 </v>
   <v type="int" >        4        1        2        2       11 </v>
   <v type="int" >        4        2        2        6       11 </v>
   <v type="int" >        4        4        5        7       15 </v>
   <v type="int" >        4        4        5       15       16 </v>
   <v type="int" >        4        4       15       16       17 </v>
   <v type="int" >        4        2        4        5       16 </v>
   <v type="int" >        4        2        3        5       16 </v>
   <v type="int" >        4        2        3       10       16 </v>
   <v type="int" >        4        2        4       16       17 </v>
   <v type="int" >        4        2       11       16       17 </v>
   <v type="int" >        4        2       10       11       16 </v>
   <v type="int" >        4       12       13       15       17 </v>
   <v type="int" >        4       13       15       16       17 </v>
   <v type="int" >        4       15       15       16       17 </v>
   <v type="int" >        4       13       15       16       16 </v>
   <v type="int" >        4       13       14       16       16 </v>
   <v type="int" >        2       14       14       16       16 </v>
   <v type="int" >        2       15       15       16       16 </v>
   <v type="int" >        4        1        8       11       17 </v>
   <v type="int" >        4        1        2       11       17 </v>
   <v type="int" >        4        1        2        4       17 </v>
  </varray>
  <i name="volumeweight">      0.00347222 </i>
 </kpoints>
 <parameters>
  <separator name="general" >
   <i type="string" name="SYSTEM">unknown system</i>
   <i type="logical" name="LCOMPAT"> F  </i>
  </separator>
  <separator name="electronic" >
   <i type="string" name="PREC">accura</i>
   <i name="ENMAX">    680.00000000</i>
   <i name="ENAUG">   1360.00000000</i>
   <i name="EDIFF">      0.00001000</i>
   <i type="int" name="IALGO">    38</i>
   <i type="int" name="IWAVPR">    10</i>
   <i type="int" name="NBANDS">    48</i>
   <i type="int" name="NBANDSLOW">    -1</i>
   <i type="int" name="NBANDSHIGH">    -1</i>
   <i name="NELECT">     72.00000000</i>
   <i type="int" name="TURBO">     0</i>
   <i type="int" name="IRESTART">     0</i>
   <i type="int" name="NREBOOT">     0</i>
   <i type="int" name="NMIN">     0</i>
   <i name="EREF">      0.00000000</i>
   <separator name="electronic smearing" >
    <i type="int" name="ISMEAR">    -5</i>
    <i name="SIGMA">      0.20000000</i>
    <i name="KSPACING">      0.50000000</i>
    <i type="logical" name="KGAMMA"> T  </i>
    <i type="logical" name="KBLOWUP"> F  </i>
   </separator>
   <separator name="electronic projectors" >
    <i type="logical" name="LREAL"> F  </i>
    <v name="ROPT">      0.00000000      0.00000000      0.00000000</v>
    <i type="int" name="LMAXPAW">  -100</i>
    <i type="int" name="LMAXMIX">     4</i>
    <i type="logical" name="NLSPLINE"> F  </i>
   </separator>
   <separator name="electronic startup" >
    <i type="int" name="ISTART">     0</i>
    <i type="int" name="ICHARG">     2</i>
    <i type="int" name="INIWAV">     1</i>
   </separator>
   <separator name="electronic spin" >
    <i type="int" name="ISPIN">     2</i>
    <i type="logical" name="LNONCOLLINEAR"> F  </i>
    <v name="MAGMOM">      0.60000000      0.60000000      0.60000000      0.60000000      0.60000000      0.60000000      0.60000000      0.60000000</v>
    <i name="NUPDOWN">     -1.00000000</i>
    <i type="logical" name="LSORBIT"> F  </i>
    <v name="SAXIS">      0.00000000      0.00000000      1.00000000</v>
    <i type="logical" name="LSPIRAL"> F  </i>
    <v name="QSPIRAL">      0.00000000      0.00000000      0.00000000</v>
    <i type="logical" name="LZEROZ"> F  </i>
   </separator>
   <separator name="electronic exchange-correlation" >
    <i type="logical" name="LASPH"> T  </i>
    <i type="logical" name="LMETAGGA"> F  </i>
   </separator>
   <separator name="electronic convergence" >
    <i type="int" name="NELM">   200</i>
    <i type="int" name="NELMDL">    -5</i>
    <i type="int" name="NELMIN">     2</i>
    <i name="ENINI">    680.00000000</i>
    <separator name="electronic convergence detail" >
     <i type="logical" name="LDIAG"> T  </i>
     <i type="logical" name="LSUBROT"> F  </i>
     <i name="WEIMIN">      0.00000000</i>
     <i name="EBREAK">      0.00000005</i>
     <i name="DEPER">      0.30000000</i>
     <i type="int" name="NRMM">     4</i>
     <i name="TIME">      0.40000000</i>
    </separator>
   </separator>
   <separator name="electronic mixer" >
    <i name="AMIX">      0.40000000</i>
    <i name="BMIX">      1.00000000</i>
    <i name="AMIN">      0.10000000</i>
    <i name="AMIX_MAG">      1.60000000</i>
    <i name="BMIX_MAG">      1.00000000</i>
    <separator name="electronic mixer details" >
     <i type="int" name="IMIX">     1</i>
     <i type="logical" name="MIXFIRST"> F  </i>
     <i type="int" name="MAXMIX">   -45</i>
     <i name="WC">    100.00000000</i>
     <i type="int" name="INIMIX">     1</i>
     <i type="int" name="MIXPRE">     1</i>
     <i type="int" name="MREMOVE">     5</i>
    </separator>
   </separator>
   <separator name="electronic dipolcorrection" >
    <i type="logical" name="LDIPOL"> F  </i>
    <i type="logical" name="LMONO"> F  </i>
    <i type="int" name="IDIPOL">     0</i>
    <i name="EPSILON">      1.00000000</i>
    <v name="DIPOL">   -100.00000000   -100.00000000   -100.00000000</v>
    <i name="EFIELD">      0.00000000</i>
   </separator>
  </separator>
  <separator name="grids" >
   <i type="int" name="NGX">    48</i>
   <i type="int" name="NGY">    48</i>
   <i type="int" name="NGZ">    60</i>
   <i type="int" name="NGXF">    96</i>
   <i type="int" name="NGYF">    96</i>
   <i type="int" name="NGZF">   120</i>
   <i type="logical" name="ADDGRID"> F  </i>
  </separator>
  <separator name="ionic" >
   <i type="int" name="NSW">     0</i>
   <i type="int" name="IBRION">    -1</i>
   <i type="int" name="MDALGO">     0</i>
   <i type="int" name="ISIF">     0</i>
   <i name="PSTRESS">      0.00000000</i>
   <i name="EDIFFG">      0.00010000</i>
   <i type="int" name="NFREE">     0</i>
   <i name="POTIM">      0.50000000</i>
   <i name="SMASS">     -3.00000000</i>
   <i name="SCALEE">      1.00000000</i>
  </separator>
  <separator name="ionic md" >
   <i name="TEBEG">      0.00010000</i>
   <i name="TEEND">      0.00010000</i>
   <i type="int" name="NBLOCK">     1</i>
   <i type="int" name="KBLOCK">     1</i>
   <i type="int" name="NPACO">   256</i>
   <i name="APACO">     10.00000000</i>
  </separator>
  <separator name="symmetry" >
   <i type="int" name="ISYM">     3</i>
   <i name="SYMPREC">      0.00001000</i>
  </separator>
  <separator name="dos" >
   <i type="int" name="LORBIT">    11</i>
   <v name="RWIGS">     -1.00000000     -1.00000000     -1.00000000</v>
   <i type="int" name="NEDOS">   301</i>
   <i name="EMIN">     10.00000000</i>
   <i name="EMAX">    -10.00000000</i>
   <i name="EFERMI">      0.00000000</i>
  </separator>
  <separator name="writing" >
   <i type="int" name="NWRITE">     2</i>
   <i type="logical" name="LWAVE"> T  </i>
   <i type="logical" name="LDOWNSAMPLE"> F  </i>
   <i type="logical" name="LCHARG"> T  </i>
   <i type="logical" name="LPARD"> F  </i>
   <i type="logical" name="LVTOT"> T  </i>
   <i type="logical" name="LVHAR"> F  </i>
   <i type="logical" name="LELF"> F  </i>
   <i type="logical" name="LOPTICS"> F  </i>
   <v name="STM">      0.00000000      0.00000000      0.00000000      0.00000000      0.00000000      0.00000000      0.00000000</v>
  </separator>
  <separator name="performance" >
   <i type="int" name="NPAR">    12</i>
   <i type="int" name="NSIM">     4</i>
   <i type="int" name="NBLK">    -1</i>
   <i type="logical" name="LPLANE"> T  </i>
   <i type="logical" name="LSCALAPACK"> T  </i>
   <i type="logical" name="LSCAAWARE"> F  </i>
   <i type="logical" name="LSCALU"> F  </i>
   <i type="logical" name="LASYNC"> F  </i>
   <i type="logical" name="LORBITALREAL"> F  </i>
  </separator>
  <separator name="miscellaneous" >
   <i type="int" name="IDIOT">     3</i>
   <i type="int" name="PHON_NSTRUCT">    -1</i>
   <i type="logical" name="LMUSIC"> F  </i>
   <v name="POMASS">     69.72300000     63.54600000     78.96000000</v>
   <v name="DARWINR">      0.00000000      0.00000000      0.00000000</v>
   <v name="DARWINV">      1.00000000      1.00000000      1.00000000</v>
   <i type="logical" name="LCORR"> T  </i>
  </separator>
  <i type="logical" name="GGA_COMPAT"> T  </i>
  <i type="logical" name="LBERRY"> F  </i>
  <i type="int" name="ICORELEVEL">     0</i>
  <i type="logical" name="LDAU"> F  </i>
  <i type="int" name="I_CONSTRAINED_M">     0</i>
  <separator name="electronic exchange-correlation" >
   <i type="string" name="GGA">PE</i>
   <i type="int" name="VOSKOWN">     0</i>
   <i type="logical" name="LHFCALC"> T  </i>
   <i type="string" name="PRECFOCK">fast</i>
   <i type="logical" name="LSYMGRAD"> F  </i>
   <i type="logical" name="LHFONE"> F  </i>
   <i type="logical" name="LRHFCALC"> F  </i>
   <i type="logical" name="LTHOMAS"> F  </i>
   <i type="logical" name="LMODELHF"> F  </i>
   <i type="logical" name="LFOCKACE"> T  </i>
   <i name="ENCUT4O">     -1.00000000</i>
   <i type="int" name="EXXOEP">     0</i>
   <i type="int" name="FOURORBIT">     0</i>
   <i name="AEXX">      0.25000000</i>
   <i name="HFALPHA">     -1.00000000</i>
   <i name="MCALPHA">      0.00000000</i>
   <i name="ALDAX">      0.75000000</i>
   <i name="AGGAX">      0.75000000</i>
   <i name="ALDAC">      1.00000000</i>
   <i name="AGGAC">      1.00000000</i>
   <i type="int" name="NKREDX">     1</i>
   <i type="int" name="NKREDY">     1</i>
   <i type="int" name="NKREDZ">     1</i>
   <i type="logical" name="SHIFTRED"> F  </i>
   <i type="logical" name="ODDONLY"> F  </i>
   <i type="logical" name="EVENONLY"> F  </i>
   <i type="int" name="LMAXFOCK">     4</i>
   <i type="int" name="NMAXFOCKAE">     1</i>
   <i type="logical" name="LFOCKAEDFT"> F  </i>
   <i name="HFSCREEN">      0.20000000</i>
   <i name="HFSCREENC">      0.20000000</i>
   <i type="int" name="NBANDSGWLOW">     1</i>
  </separator>
  <separator name="vdW DFT" >
   <i type="logical" name="LUSE_VDW"> F  </i>
   <i type="int" name="IVDW_NL">     1</i>
   <i type="logical" name="LSPIN_VDW"> F  </i>
   <i name="Zab_VDW">     -0.84910000</i>
   <i name="PARAM1">      0.12340000</i>
   <i name="PARAM2">      1.00000000</i>
   <i name="PARAM3">      0.00000000</i>
  </separator>
  <separator name="model GW" >
   <i type="int" name="MODEL_GW">     0</i>
   <i name="MODEL_EPS0">     13.07852443</i>
   <i name="MODEL_ALPHA">      1.00000000</i>
  </separator>
  <separator name="linear response parameters" >
   <i type="logical" name="LEPSILON"> F  </i>
   <i type="logical" name="LRPA"> F  </i>
   <i type="logical" name="LNABLA"> F  </i>
   <i type="logical" name="LVEL"> F  </i>
   <i name="CSHIFT">      0.10000000</i>
   <i name="OMEGAMAX">     -1.00000000</i>
   <i name="DEG_THRESHOLD">      0.00200000</i>
   <i name="RTIME">     -0.10000000</i>
   <i name="WPLASMAI">      0.00000000</i>
   <v name="DFIELD">      0.00000000      0.00000000      0.00000000</v>
   <v name="WPLASMA">      0.00000000      0.00000000      0.00000000      0.00000000      0.00000000      0.00000000      0.00000000      0.00000000      0.00000000</v>
  </separator>
  <separator name="orbital magnetization" >
   <i type="logical" name="NUCIND"> F  </i>
   <v name="MAGPOS">      0.00000000      0.00000000      0.00000000</v>
   <i type="logical" name="LNICSALL"> T  </i>
   <i type="logical" name="ORBITALMAG"> F  </i>
   <i type="logical" name="LMAGBLOCH"> F  </i>
   <i type="logical" name="LCHIMAG"> F  </i>
   <i type="logical" name="LGAUGE"> T  </i>
   <i type="int" name="MAGATOM">     0</i>
   <v name="MAGDIPOL">      0.00000000      0.00000000      0.00000000</v>
   <v name="AVECCONST">      0.00000000      0.00000000      0.00000000</v>
  </separator>
  <separator name="response functions" >
   <i type="logical" name="LALL_IN_ONE"> F  </i>
   <i type="int" name="IALL_IN_ONE">    -1</i>
   <i type="int" name="NBANDS_WAVE">    -1</i>
   <i type="logical" name="LFINITE_TEMPERATURE"> F  </i>
   <i type="logical" name="LADDER"> F  </i>
   <i type="logical" name="LRPAFORCE"> F  </i>
   <i type="logical" name="LFXC"> F  </i>
   <i type="logical" name="LHARTREE"> T  </i>
   <i type="int" name="IBSE">     0</i>
   <v type="int" name="KPOINT">    -1     0     0     0</v>
   <i type="logical" name="LTCTC"> F  </i>
   <i type="logical" name="LTCTE"> F  </i>
   <i type="logical" name="LTETE"> F  </i>
   <i type="logical" name="LTRIPLET"> F  </i>
   <i type="logical" name="LFXCEPS"> F  </i>
   <i type="logical" name="LFXHEG"> F  </i>
   <i type="int" name="NATURALO">     2</i>
   <i type="logical" name="LHOLEGF"> F  </i>
   <i type="logical" name="L2ORDER"> F  </i>
   <i type="logical" name="LDMP1"> F  </i>
   <i type="logical" name="LMP2LT"> F  </i>
   <i type="logical" name="LSMP2LT"> F  </i>
   <i type="logical" name="LGWLF"> F  </i>
   <i name="ENCUTGW">     -1.60000002</i>
   <i name="ENCUTGWSOFT">     -1.60000002</i>
   <i name="ENCUTLF">     -1.00000000</i>
   <i type="logical" name="LESF_SPLINES"> F  </i>
   <i type="int" name="LMAXMP2">    -1</i>
   <i name="SCISSOR">      0.00000000</i>
   <i type="int" name="NOMEGA">     0</i>
   <i type="int" name="NOMEGAR">     0</i>
   <i type="int" name="NBANDSGW">    -1</i>
   <i type="int" name="NBANDSO">    -1</i>
   <i type="int" name="NBANDSV">    -1</i>
   <i type="int" name="NELMGW">     1</i>
   <i type="int" name="NELMHF">     1</i>
   <i type="int" name="DIM">     3</i>
   <i type="int" name="IESPILON">     4</i>
   <i type="int" name="ANTIRES">     0</i>
   <i name="OMEGAMAX">    -30.00000000</i>
   <i name="OMEGAMIN">    -30.00000000</i>
   <i name="OMEGATL">   -200.00000000</i>
   <i type="int" name="OMEGAGRID">     0</i>
   <i name="CSHIFT">     -0.10000000</i>
   <i type="logical" name="LSELFENERGY"> F  </i>
   <i type="logical" name="LSPECTRAL"> F  </i>
   <i type="logical" name="LSPECTRALGW"> F  </i>
   <i type="logical" name="LSINGLES"> F  </i>
   <i type="logical" name="LFERMIGW"> F  </i>
   <i type="logical" name="ODDONLYGW"> F  </i>
   <i type="logical" name="EVENONLYGW"> F  </i>
   <i type="int" name="NKREDLFX">     1</i>
   <i type="int" name="NKREDLFY">     1</i>
   <i type="int" name="NKREDLFZ">     1</i>
   <i type="int" name="MAXMEM">  2800</i>
   <i type="int" name="TELESCOPE">     0</i>
   <i type="int" name="NTAUPAR">    -1</i>
   <i type="int" name="NOMEGAPAR">    -1</i>
   <i name="DAMP_NEWTON">      0.80000001</i>
   <i name="LAMBDA">      1.00000000</i>
  </separator>
  <separator name="External order field" >
   <i name="OFIELD_KAPPA">      0.00000000</i>
   <v name="OFIELD_K">      0.00000000      0.00000000      0.00000000</v>
   <i name="OFIELD_Q6_NEAR">      0.00000000</i>
   <i name="OFIELD_Q6_FAR">      0.00000000</i>
   <i name="OFIELD_A">      0.00000000</i>
  </separator>
  <separator name="optional k-points parameters" >
   <i type="int" name="KPOINTS_OPT_MODE">     1</i>
   <i type="logical" name="LKPOINTS_OPT"> F  </i>
  </separator>
 </parameters>
 <atominfo>
  <atoms>       8 </atoms>
  <types>       3 </types>
  <array name="atoms" >
   <dimension dim="1">ion</dimension>
   <field type="string">element</field>
   <field type="int">atomtype</field>
   <set>
    <rc><c>Ga</c><c>   1</c></rc>
    <rc><c>Ga</c><c>   1</c></rc>
    <rc><c>Cu</c><c>   2</c></rc>
    <rc><c>Cu</c><c>   2</c></rc>
    <rc><c>Se</c><c>   3</c></rc>
    <rc><c>Se</c><c>   3</c></rc>
    <rc><c>Se</c><c>   3</c></rc>
    <rc><c>Se</c><c>   3</c></rc>
   </set>
  </array>
  <array name="atomtypes" >
   <dimension dim="1">type</dimension>
   <field type="int">atomspertype</field>
   <field type="string">element</field>
   <field>mass</field>
   <field>valence</field>
   <field type="string">pseudopotential</field>
   <set>
    <rc><c>   2</c><c>Ga</c><c>     69.72300000</c><c>     13.00000000</c><c>  PAW_PBE Ga_d 06Jul2010                </c></rc>
    <rc><c>   2</c><c>Cu</c><c>     63.54600000</c><c>     11.00000000</c><c>  PAW_PBE Cu 22Jun2005                  </c></rc>
    <rc><c>   4</c><c>Se</c><c>     78.96000000</c><c>      6.00000000</c><c>  PAW_PBE Se 06Sep2000                  </c></rc>
   </set>
  </array>
 </atominfo>
 <structure name="initialpos" >
  <crystal>
   <varray name="basis" >
    <v>       5.10874036       0.00000000      -2.30030869 </v>
    <v>      -1.03575852       5.00264257      -2.30030916 </v>
    <v>       0.00000000       0.00000000       6.82313837 </v>
   </varray>
   <i name="volume">    174.38032574 </i>
   <varray name="rec_basis" >
    <v>       0.19574297       0.04052707       0.00000000 </v>
    <v>       0.00000000       0.19989435       0.00000000 </v>
    <v>       0.06599152       0.08105414       0.14656012 </v>
   </varray>
  </crystal>
  <varray name="positions" >
   <v>       0.50000000       0.50000000       0.00000000 </v>
   <v>       0.75000000       0.25000000       0.50000000 </v>
   <v>       0.00000000       0.00000000       0.00000000 </v>
   <v>       0.25000000       0.75000000       0.50000000 </v>
   <v>       0.37121578       0.37500000       0.25000000 </v>
   <v>       0.12500000       0.62878422       0.75000000 </v>
   <v>       0.62500000       0.12121578       0.75000000 </v>
   <v>       0.87878422       0.87500000       0.25000000 </v>
  </varray>
 </structure>
 <calculation>
  <scstep>
   <time name="dav">    0.71    0.72</time>
   <time name="total">    1.26    1.30</time>
   <energy>
    <i name="alphaZ">    236.66789905 </i>
    <i name="ewald">  -4863.29910036 </i>
    <i name="hartreedc">  -2637.76833053 </i>
    <i name="XCdc">    177.07437661 </i>
    <i name="pawpsdc">   6503.67618105 </i>
    <i name="pawaedc"> -11078.28736089 </i>
    <i name="eentropy">      0.00000000 </i>
    <i name="bandstr">    312.31173301 </i>
    <i name="atom">   8093.15734121 </i>
    <i name="e_fr_energy">  -3256.46726085 </i>
    <i name="e_wo_entrp">  -3256.46726085 </i>
    <i name="e_0_energy">  -3256.46726085 </i>
   </energy>
  </scstep>
  <scstep>
   <time name="dav">    0.63    0.63</time>
   <time name="total">    0.64    0.64</time>
   <energy>
    <i name="e_fr_energy">  -3880.71493031 </i>
    <i name="e_wo_entrp">  -3880.71493031 </i>
    <i name="e_0_energy">  -3880.71493031 </i>
   </energy>
  </scstep>
  <scstep>
   <time name="dav">    0.75    0.77</time>
   <time name="total">    0.76    0.77</time>
   <energy>
    <i name="e_fr_energy">  -3985.17935456 </i>
    <i name="e_wo_entrp">  -3985.17935456 </i>
    <i name="e_0_energy">  -3985.17935456 </i>
   </energy>
  </scstep>
  <scstep>
   <time name="dav">    0.69    0.71</time>
   <time name="total">    0.70    0.72</time>
   <energy>
    <i name="e_fr_energy">  -3990.96505535 </i>
    <i name="e_wo_entrp">  -3990.96505535 </i>
    <i name="e_0_energy">  -3990.96505535 </i>
   </energy>
  </scstep>
  <scstep>
   <time name="dav">   47.38   47.50</time>
   <time name="total">   48.65   48.81</time>
   <energy>
    <i name="e_fr_energy">    -36.77128325 </i>
    <i name="e_wo_entrp">    -36.77128325 </i>
    <i name="e_0_energy">    -36.77128325 </i>
   </energy>
  </scstep>
  <scstep>
   <time name="dav">   47.45   47.57</time>
   <time name="total">   48.73   48.87</time>
   <energy>
    <i name="e_fr_energy">    -36.75113634 </i>
    <i name="e_wo_entrp">    -36.75113634 </i>
    <i name="e_0_energy">    -36.75113634 </i>
   </energy>
  </scstep>
  <scstep>
   <time name="dav">   47.52   47.65</time>
   <time name="total">   48.77   48.92</time>
   <energy>
    <i name="e_fr_energy">    -36.79059918 </i>
    <i name="e_wo_entrp">    -36.79059918 </i>
    <i name="e_0_energy">    -36.79059918 </i>
   </energy>
  </scstep>
  <scstep>
   <time name="dav">   47.52   47.65</time>
   <time name="total">   48.78   48.92</time>
   <energy>
    <i name="e_fr_energy">    -36.85553606 </i>
    <i name="e_wo_entrp">    -36.85553606 </i>
    <i name="e_0_energy">    -36.85553606 </i>
   </energy>
  </scstep>
  <scstep>
   <time name="dav">   47.11   47.24</time>
   <time name="total">   48.39   48.54</time>
   <energy>
    <i name="e_fr_energy">    -36.86710957 </i>
    <i name="e_wo_entrp">    -36.86710957 </i>
    <i name="e_0_energy">    -36.86710957 </i>
   </energy>
  </scstep>
  <scstep>
   <time name="dav">   47.62   47.79</time>
   <time name="total">   48.87   49.05</time>
   <energy>
    <i name="e_fr_energy">    -36.87127153 </i>
    <i name="e_wo_entrp">    -36.87127153 </i>
    <i name="e_0_energy">    -36.87127153 </i>
   </energy>
  </scstep>
  <scstep>
   <time name="dav">   47.83   47.95</time>
   <time name="total">   49.08   49.22</time>
   <energy>
    <i name="e_fr_energy">    -36.87357503 </i>
    <i name="e_wo_entrp">    -36.87357503 </i>
    <i name="e_0_energy">    -36.87357503 </i>
   </energy>
  </scstep>
  <scstep>
   <time name="dav">   47.24   47.37</time>
   <time name="total">   48.51   48.65</time>
   <energy>
    <i name="e_fr_energy">    -36.87455319 </i>
    <i name="e_wo_entrp">    -36.87455319 </i>
    <i name="e_0_energy">    -36.87455319 </i>
   </energy>
  </scstep>
  <scstep>
   <time name="dav">   47.59   47.72</time>
   <time name="total">   48.87   49.02</time>
   <energy>
    <i name="e_fr_energy">    -36.87497089 </i>
    <i name="e_wo_entrp">    -36.87497089 </i>
    <i name="e_0_energy">    -36.87497089 </i>
   </energy>
  </scstep>
  <scstep>
   <time name="dav">   47.49   47.62</time>
   <time name="total">   48.75   48.89</time>
   <energy>
    <i name="e_fr_energy">    -36.87515436 </i>
    <i name="e_wo_entrp">    -36.87515436 </i>
    <i name="e_0_energy">    -36.87515436 </i>
   </energy>
  </scstep>
  <scstep>
   <time name="dav">   47.12   47.25</time>
   <time name="total">   48.39   48.53</time>
   <energy>
    <i name="e_fr_energy">    -36.87523897 </i>
    <i name="e_wo_entrp">    -36.87523897 </i>
    <i name="e_0_energy">    -36.87523897 </i>
   </energy>
  </scstep>
  <scstep>
   <time name="dav">   47.25   47.37</time>
   <time name="total">   48.49   48.63</time>
   <energy>
    <i name="e_fr_energy">    -36.87527830 </i>
    <i name="e_wo_entrp">    -36.87527830 </i>
    <i name="e_0_energy">    -36.87527830 </i>
   </energy>
  </scstep>
  <scstep>
   <time name="dav">   47.31   47.44</time>
   <time name="total">   48.58   48.73</time>
   <energy>
    <i name="e_fr_energy">    -36.87529663 </i>
    <i name="e_wo_entrp">    -36.87529663 </i>
    <i name="e_0_energy">    -36.87529663 </i>
   </energy>
  </scstep>
  <scstep>
   <time name="dav">   46.85   46.97</time>
   <time name="total">   48.08   48.22</time>
   <energy>
    <i name="alphaZ">    236.66789905 </i>
    <i name="ewald">  -4863.29910036 </i>
    <i name="hartreedc">  -2616.52664765 </i>
    <i name="XCdc">    131.70937612 </i>
    <i name="pawpsdc">   8078.41545202 </i>
    <i name="pawaedc">  -8878.92018106 </i>
    <i name="eentropy">      0.00000000 </i>
    <i name="bandstr">   -385.84002629 </i>
    <i name="atom">   8093.15734121 </i>
    <i name="e_fr_energy">    -36.87530528 </i>
    <i name="e_wo_entrp">    -36.87530528 </i>
    <i name="e_0_energy">    -36.87530528 </i>
   </energy>
  </scstep>
  <structure>
   <crystal>
    <varray name="basis" >
     <v>       5.10874036       0.00000000      -2.30030869 </v>
     <v>      -1.03575852       5.00264257      -2.30030916 </v>
     <v>       0.00000000       0.00000000       6.82313837 </v>
    </varray>
    <i name="volume">    174.38032574 </i>
    <varray name="rec_basis" >
     <v>       0.19574297       0.04052707       0.00000000 </v>
     <v>       0.00000000       0.19989435       0.00000000 </v>
     <v>       0.06599152       0.08105414       0.14656012 </v>
    </varray>
   </crystal>
   <varray name="positions" >
    <v>       0.50000000       0.50000000       0.00000000 </v>
    <v>       0.75000000       0.25000000       0.50000000 </v>
    <v>       0.00000000       0.00000000       0.00000000 </v>
    <v>       0.25000000       0.75000000       0.50000000 </v>
    <v>       0.37121578       0.37500000       0.25000000 </v>
    <v>       0.12500000       0.62878422       0.75000000 </v>
    <v>       0.62500000       0.12121578       0.75000000 </v>
    <v>       0.87878422       0.87500000       0.25000000 </v>
   </varray>
  </structure>
  <varray name="forces" >
   <v>       0.00000000      -0.00000000       0.00000000 </v>
   <v>       0.00000000       0.00000000       0.00000000 </v>
   <v>       0.00000000       0.00000000       0.00000000 </v>
   <v>       0.00000000      -0.00000000       0.00000000 </v>
   <v>       0.23323100       0.00000000      -0.10501675 </v>
   <v>       0.04728582      -0.22838728       0.10501677 </v>
   <v>      -0.04728582       0.22838728      -0.10501677 </v>
   <v>      -0.23323100      -0.00000000       0.10501675 </v>
  </varray>
  <energy>
   <i name="e_fr_energy">    -36.87530528 </i>
   <i name="e_wo_entrp">    -36.87530528 </i>
   <i name="e_0_energy">    -36.87530528 </i>
  </energy>
  <time name="totalsc">  732.61  734.91</time>
  <eigenvalues>
   <array>
    <dimension dim="1">band</dimension>
    <dimension dim="2">kpoint</dimension>
    <dimension dim="3">spin</dimension>
    <field>eigene</field>
    <field>occ</field>
    <set>
     <set comment="spin 1">
      <set comment="kpoint 1">
       <r>  -14.6560    1.0000 </r>
       <r>  -14.6539    1.0000 </r>
       <r>  -14.6539    1.0000 </r>
       <r>  -14.5655    1.0000 </r>
       <r>  -14.5512    1.0000 </r>
       <r>  -14.5512    1.0000 </r>
       <r>  -14.5010    1.0000 </r>
       <r>  -14.4953    1.0000 </r>
       <r>  -14.4942    1.0000 </r>
       <r>  -14.4829    1.0000 </r>
       <r>  -12.4005    1.0000 </r>
       <r>  -10.7061    1.0000 </r>
       <r>  -10.7060    1.0000 </r>
       <r>  -10.7027    1.0000 </r>
       <r>   -4.7776    1.0000 </r>
       <r>   -3.2538    1.0000 </r>
       <r>   -1.8364    1.0000 </r>
       <r>   -1.6032    1.0000 </r>
       <r>   -1.5687    1.0000 </r>
       <r>   -1.0592    1.0000 </r>
       <r>   -1.0592    1.0000 </r>
       <r>   -0.5445    1.0000 </r>
       <r>   -0.5445    1.0000 </r>
       <r>   -0.3903    1.0000 </r>
       <r>   -0.3902    1.0000 </r>
       <r>   -0.3787    1.0000 </r>
       <r>    0.4969    1.0000 </r>
       <r>    0.5473    1.0000 </r>
       <r>    0.6212    1.0000 </r>
       <r>    0.9876    1.0000 </r>
       <r>    1.1340    1.0000 </r>
       <r>    1.1341    1.0000 </r>
       <r>    1.2084    1.0000 </r>
       <r>    3.1724    1.0000 </r>
       <r>    3.1727    1.0000 </r>
       <r>    3.2579    1.0000 </r>
       <r>    4.6253    0.0000 </r>
       <r>    6.1648    0.0000 </r>
       <r>    6.5860    0.0000 </r>
       <r>    8.3783    0.0000 </r>
       <r>    8.3784    0.0000 </r>
       <r>    8.7781    0.0000 </r>
       <r>    9.1967    0.0000 </r>
       <r>    9.1967    0.0000 </r>
       <r>    9.4492    0.0000 </r>
       <r>    9.8073    0.0000 </r>
       <r>   11.0982    0.0000 </r>
       <r>   11.1260    0.0000 </r>
      </set>
      <set comment="kpoint 2">
       <r>  -14.6589    1.0000 </r>
       <r>  -14.6553    1.0000 </r>
       <r>  -14.6468    1.0000 </r>
       <r>  -14.5710    1.0000 </r>
       <r>  -14.5590    1.0000 </r>
       <r>  -14.5493    1.0000 </r>
       <r>  -14.5007    1.0000 </r>
       <r>  -14.4957    1.0000 </r>
       <r>  -14.4923    1.0000 </r>
       <r>  -14.4833    1.0000 </r>
       <r>  -12.1695    1.0000 </r>
       <r>  -10.9144    1.0000 </r>
       <r>  -10.7946    1.0000 </r>
       <r>  -10.7508    1.0000 </r>
       <r>   -4.5433    1.0000 </r>
       <r>   -3.3679    1.0000 </r>
       <r>   -1.9824    1.0000 </r>
       <r>   -1.7287    1.0000 </r>
       <r>   -1.3408    1.0000 </r>
       <r>   -0.9514    1.0000 </r>
       <r>   -0.9210    1.0000 </r>
       <r>   -0.7746    1.0000 </r>
       <r>   -0.5889    1.0000 </r>
       <r>   -0.4221    1.0000 </r>
       <r>   -0.3517    1.0000 </r>
       <r>   -0.1003    1.0000 </r>
       <r>    0.5685    1.0000 </r>
       <r>    0.6721    1.0000 </r>
       <r>    0.7317    1.0000 </r>
       <r>    0.8442    1.0000 </r>
       <r>    1.0464    1.0000 </r>
       <r>    1.3344    1.0000 </r>
       <r>    1.4348    1.0000 </r>
       <r>    2.0149    1.0000 </r>
       <r>    2.6019    1.0000 </r>
       <r>    2.9826    1.0000 </r>
       <r>    5.9138    0.0000 </r>
       <r>    6.8686    0.0000 </r>
       <r>    7.1674    0.0000 </r>
       <r>    7.7319    0.0000 </r>
       <r>    7.9027    0.0000 </r>
       <r>    8.7403    0.0000 </r>
       <r>    9.3005    0.0000 </r>
       <r>    9.4683    0.0000 </r>
       <r>    9.6968    0.0000 </r>
       <r>   10.3169    0.0000 </r>
       <r>   10.7212    0.0000 </r>
       <r>   11.5733    0.0000 </r>
      </set>
      <set comment="kpoint 3">
       <r>  -14.6614    1.0000 </r>
       <r>  -14.6575    1.0000 </r>
       <r>  -14.6364    1.0000 </r>
       <r>  -14.5831    1.0000 </r>
       <r>  -14.5623    1.0000 </r>
       <r>  -14.5477    1.0000 </r>
       <r>  -14.4995    1.0000 </r>
       <r>  -14.4976    1.0000 </r>
       <r>  -14.4890    1.0000 </r>
       <r>  -14.4845    1.0000 </r>
       <r>  -11.7287    1.0000 </r>
       <r>  -11.3592    1.0000 </r>
       <r>  -10.8651    1.0000 </r>
       <r>  -10.7971    1.0000 </r>
       <r>   -4.2609    1.0000 </r>
       <r>   -3.3704    1.0000 </r>
       <r>   -2.0156    1.0000 </r>
       <r>   -1.6063    1.0000 </r>
       <r>   -1.5377    1.0000 </r>
       <r>   -1.2378    1.0000 </r>
       <r>   -0.8572    1.0000 </r>
       <r>   -0.6284    1.0000 </r>
       <r>   -0.5896    1.0000 </r>
       <r>   -0.5448    1.0000 </r>
       <r>   -0.1743    1.0000 </r>
       <r>   -0.1009    1.0000 </r>
       <r>    0.6128    1.0000 </r>
       <r>    0.7029    1.0000 </r>
       <r>    0.7571    1.0000 </r>
       <r>    0.9351    1.0000 </r>
       <r>    1.1072    1.0000 </r>
       <r>    1.4876    1.0000 </r>
       <r>    1.6377    1.0000 </r>
       <r>    1.8037    1.0000 </r>
       <r>    1.8664    1.0000 </r>
       <r>    2.5854    1.0000 </r>
       <r>    6.5583    0.0000 </r>
       <r>    6.9641    0.0000 </r>
       <r>    7.5565    0.0000 </r>
       <r>    8.5933    0.0000 </r>
       <r>    8.6338    0.0000 </r>
       <r>    8.8705    0.0000 </r>
       <r>    9.2975    0.0000 </r>
       <r>    9.9265    0.0000 </r>
       <r>   10.0249    0.0000 </r>
       <r>   10.0491    0.0000 </r>
       <r>   10.7602    0.0000 </r>
       <r>   10.9712    0.0000 </r>
      </set>
      <set comment="kpoint 4">
       <r>  -14.6603    1.0000 </r>
       <r>  -14.6584    1.0000 </r>
       <r>  -14.6357    1.0000 </r>
       <r>  -14.5848    1.0000 </r>
       <r>  -14.5572    1.0000 </r>
       <r>  -14.5518    1.0000 </r>
       <r>  -14.4998    1.0000 </r>
       <r>  -14.4964    1.0000 </r>
       <r>  -14.4900    1.0000 </r>
       <r>  -14.4841    1.0000 </r>
       <r>  -11.8847    1.0000 </r>
       <r>  -11.0547    1.0000 </r>
       <r>  -10.9186    1.0000 </r>
       <r>  -10.8570    1.0000 </r>
       <r>   -4.3477    1.0000 </r>
       <r>   -3.6190    1.0000 </r>
       <r>   -2.2738    1.0000 </r>
       <r>   -1.6851    1.0000 </r>
       <r>   -1.1165    1.0000 </r>
       <r>   -1.1020    1.0000 </r>
       <r>   -0.9152    1.0000 </r>
       <r>   -0.5815    1.0000 </r>
       <r>   -0.5265    1.0000 </r>
       <r>   -0.3879    1.0000 </r>
       <r>   -0.2640    1.0000 </r>
       <r>   -0.1269    1.0000 </r>
       <r>    0.5766    1.0000 </r>
       <r>    0.7032    1.0000 </r>
       <r>    0.8661    1.0000 </r>
       <r>    0.8808    1.0000 </r>
       <r>    1.1388    1.0000 </r>
       <r>    1.3618    1.0000 </r>
       <r>    1.5807    1.0000 </r>
       <r>    1.8819    1.0000 </r>
       <r>    2.7473    1.0000 </r>
       <r>    2.7572    1.0000 </r>
       <r>    5.6843    0.0000 </r>
       <r>    6.4121    0.0000 </r>
       <r>    7.2156    0.0000 </r>
       <r>    7.4297    0.0000 </r>
       <r>    8.5116    0.0000 </r>
       <r>    9.0606    0.0000 </r>
       <r>    9.6196    0.0000 </r>
       <r>    9.8336    0.0000 </r>
       <r>   10.1182    0.0000 </r>
       <r>   10.4066    0.0000 </r>
       <r>   11.1471    0.0000 </r>
       <r>   11.3694    0.0000 </r>
      </set>
      <set comment="kpoint 5">
       <r>  -14.6627    1.0000 </r>
       <r>  -14.6593    1.0000 </r>
       <r>  -14.6276    1.0000 </r>
       <r>  -14.5909    1.0000 </r>
       <r>  -14.5609    1.0000 </r>
       <r>  -14.5530    1.0000 </r>
       <r>  -14.4976    1.0000 </r>
       <r>  -14.4961    1.0000 </r>
       <r>  -14.4893    1.0000 </r>
       <r>  -14.4856    1.0000 </r>
       <r>  -11.6256    1.0000 </r>
       <r>  -11.2580    1.0000 </r>
       <r>  -11.0105    1.0000 </r>
       <r>  -10.8325    1.0000 </r>
       <r>   -4.2997    1.0000 </r>
       <r>   -3.7588    1.0000 </r>
       <r>   -2.3405    1.0000 </r>
       <r>   -2.0397    1.0000 </r>
       <r>   -1.4190    1.0000 </r>
       <r>   -0.8828    1.0000 </r>
       <r>   -0.6632    1.0000 </r>
       <r>   -0.6337    1.0000 </r>
       <r>   -0.4681    1.0000 </r>
       <r>   -0.3649    1.0000 </r>
       <r>   -0.1752    1.0000 </r>
       <r>   -0.0994    1.0000 </r>
       <r>    0.6033    1.0000 </r>
       <r>    0.6672    1.0000 </r>
       <r>    0.7612    1.0000 </r>
       <r>    0.9630    1.0000 </r>
       <r>    1.4326    1.0000 </r>
       <r>    1.5453    1.0000 </r>
       <r>    1.7934    1.0000 </r>
       <r>    2.0200    1.0000 </r>
       <r>    2.3489    1.0000 </r>
       <r>    2.5063    1.0000 </r>
       <r>    6.0471    0.0000 </r>
       <r>    6.4039    0.0000 </r>
       <r>    7.7259    0.0000 </r>
       <r>    8.3024    0.0000 </r>
       <r>    8.6889    0.0000 </r>
       <r>    8.8845    0.0000 </r>
       <r>    9.1714    0.0000 </r>
       <r>    9.5602    0.0000 </r>
       <r>   10.0548    0.0000 </r>
       <r>   10.5654    0.0000 </r>
       <r>   10.8956    0.0000 </r>
       <r>   11.0652    0.0000 </r>
      </set>
      <set comment="kpoint 6">
       <r>  -14.6590    1.0000 </r>
       <r>  -14.6588    1.0000 </r>
       <r>  -14.6415    1.0000 </r>
       <r>  -14.5713    1.0000 </r>
       <r>  -14.5623    1.0000 </r>
       <r>  -14.5539    1.0000 </r>
       <r>  -14.4987    1.0000 </r>
       <r>  -14.4942    1.0000 </r>
       <r>  -14.4930    1.0000 </r>
       <r>  -14.4842    1.0000 </r>
       <r>  -12.0472    1.0000 </r>
       <r>  -10.9535    1.0000 </r>
       <r>  -10.9035    1.0000 </r>
       <r>  -10.7292    1.0000 </r>
       <r>   -4.5378    1.0000 </r>
       <r>   -3.5892    1.0000 </r>
       <r>   -2.1810    1.0000 </r>
       <r>   -1.6664    1.0000 </r>
       <r>   -1.6179    1.0000 </r>
       <r>   -1.0093    1.0000 </r>
       <r>   -0.7621    1.0000 </r>
       <r>   -0.6081    1.0000 </r>
       <r>   -0.5545    1.0000 </r>
       <r>   -0.3881    1.0000 </r>
       <r>   -0.2649    1.0000 </r>
       <r>   -0.0100    1.0000 </r>
       <r>    0.5790    1.0000 </r>
       <r>    0.7209    1.0000 </r>
       <r>    0.7796    1.0000 </r>
       <r>    0.8736    1.0000 </r>
       <r>    1.1370    1.0000 </r>
       <r>    1.5657    1.0000 </r>
       <r>    1.6168    1.0000 </r>
       <r>    1.6904    1.0000 </r>
       <r>    2.4843    1.0000 </r>
       <r>    2.9891    1.0000 </r>
       <r>    6.0169    0.0000 </r>
       <r>    6.5239    0.0000 </r>
       <r>    7.6321    0.0000 </r>
       <r>    8.0226    0.0000 </r>
       <r>    8.6589    0.0000 </r>
       <r>    8.8077    0.0000 </r>
       <r>    8.8723    0.0000 </r>
       <r>    9.5488    0.0000 </r>
       <r>    9.9988    0.0000 </r>
       <r>   10.0151    0.0000 </r>
       <r>   11.2575    0.0000 </r>
       <r>   11.5570    0.0000 </r>
      </set>
      <set comment="kpoint 7">
       <r>  -14.6623    1.0000 </r>
       <r>  -14.6623    1.0000 </r>
       <r>  -14.6087    1.0000 </r>
       <r>  -14.6087    1.0000 </r>
       <r>  -14.5591    1.0000 </r>
       <r>  -14.5591    1.0000 </r>
       <r>  -14.4953    1.0000 </r>
       <r>  -14.4952    1.0000 </r>
       <r>  -14.4882    1.0000 </r>
       <r>  -14.4882    1.0000 </r>
       <r>  -11.3565    1.0000 </r>
       <r>  -11.3561    1.0000 </r>
       <r>  -10.9952    1.0000 </r>
       <r>  -10.9948    1.0000 </r>
       <r>   -4.2206    1.0000 </r>
       <r>   -4.2206    1.0000 </r>
       <r>   -2.3652    1.0000 </r>
       <r>   -2.3652    1.0000 </r>
       <r>   -1.1427    1.0000 </r>
       <r>   -1.1427    1.0000 </r>
       <r>   -0.5437    1.0000 </r>
       <r>   -0.5437    1.0000 </r>
       <r>   -0.3495    1.0000 </r>
       <r>   -0.3494    1.0000 </r>
       <r>   -0.1939    1.0000 </r>
       <r>   -0.1937    1.0000 </r>
       <r>    0.6393    1.0000 </r>
       <r>    0.6395    1.0000 </r>
       <r>    0.9202    1.0000 </r>
       <r>    0.9202    1.0000 </r>
       <r>    1.6760    1.0000 </r>
       <r>    1.6762    1.0000 </r>
       <r>    2.2823    1.0000 </r>
       <r>    2.2828    1.0000 </r>
       <r>    2.6640    1.0000 </r>
       <r>    2.6646    1.0000 </r>
       <r>    5.4989    0.0000 </r>
       <r>    5.4996    0.0000 </r>
       <r>    7.9000    0.0000 </r>
       <r>    7.9000    0.0000 </r>
       <r>    9.1457    0.0000 </r>
       <r>    9.1458    0.0000 </r>
       <r>    9.4607    0.0000 </r>
       <r>    9.4608    0.0000 </r>
       <r>   10.3321    0.0000 </r>
       <r>   10.3322    0.0000 </r>
       <r>   10.9096    0.0000 </r>
       <r>   10.9106    0.0000 </r>
      </set>
      <set comment="kpoint 8">
       <r>  -14.6575    1.0000 </r>
       <r>  -14.6574    1.0000 </r>
       <r>  -14.6373    1.0000 </r>
       <r>  -14.5929    1.0000 </r>
       <r>  -14.5459    1.0000 </r>
       <r>  -14.5459    1.0000 </r>
       <r>  -14.5035    1.0000 </r>
       <r>  -14.4997    1.0000 </r>
       <r>  -14.4883    1.0000 </r>
       <r>  -14.4826    1.0000 </r>
       <r>  -12.0497    1.0000 </r>
       <r>  -11.2235    1.0000 </r>
       <r>  -10.7225    1.0000 </r>
       <r>  -10.7225    1.0000 </r>
       <r>   -4.3486    1.0000 </r>
       <r>   -3.7446    1.0000 </r>
       <r>   -1.8503    1.0000 </r>
       <r>   -1.1599    1.0000 </r>
       <r>   -0.8970    1.0000 </r>
       <r>   -0.8550    1.0000 </r>
       <r>   -0.8550    1.0000 </r>
       <r>   -0.5721    1.0000 </r>
       <r>   -0.5721    1.0000 </r>
       <r>   -0.4856    1.0000 </r>
       <r>   -0.3355    1.0000 </r>
       <r>   -0.3355    1.0000 </r>
       <r>    0.4364    1.0000 </r>
       <r>    0.5827    1.0000 </r>
       <r>    0.6814    1.0000 </r>
       <r>    0.7908    1.0000 </r>
       <r>    1.3369    1.0000 </r>
       <r>    1.5782    1.0000 </r>
       <r>    1.5783    1.0000 </r>
       <r>    1.9716    1.0000 </r>
       <r>    2.4742    1.0000 </r>
       <r>    2.4743    1.0000 </r>
       <r>    6.1178    0.0000 </r>
       <r>    6.2449    0.0000 </r>
       <r>    6.6006    0.0000 </r>
       <r>    6.6006    0.0000 </r>
       <r>    6.8328    0.0000 </r>
       <r>    7.4670    0.0000 </r>
       <r>    8.3351    0.0000 </r>
       <r>    8.7209    0.0000 </r>
       <r>   10.3159    0.0000 </r>
       <r>   10.3160    0.0000 </r>
       <r>   12.4112    0.0000 </r>
       <r>   12.7721    0.0000 </r>
      </set>
      <set comment="kpoint 9">
       <r>  -14.6618    1.0000 </r>
       <r>  -14.6573    1.0000 </r>
       <r>  -14.6231    1.0000 </r>
       <r>  -14.6060    1.0000 </r>
       <r>  -14.5508    1.0000 </r>
       <r>  -14.5451    1.0000 </r>
       <r>  -14.5014    1.0000 </r>
       <r>  -14.5004    1.0000 </r>
       <r>  -14.4861    1.0000 </r>
       <r>  -14.4845    1.0000 </r>
       <r>  -11.6517    1.0000 </r>
       <r>  -11.4582    1.0000 </r>
       <r>  -10.9748    1.0000 </r>
       <r>  -10.7158    1.0000 </r>
       <r>   -4.0578    1.0000 </r>
       <r>   -3.7431    1.0000 </r>
       <r>   -1.7533    1.0000 </r>
       <r>   -1.5718    1.0000 </r>
       <r>   -1.3178    1.0000 </r>
       <r>   -0.8198    1.0000 </r>
       <r>   -0.7459    1.0000 </r>
       <r>   -0.6722    1.0000 </r>
       <r>   -0.4843    1.0000 </r>
       <r>   -0.4589    1.0000 </r>
       <r>   -0.3429    1.0000 </r>
       <r>   -0.1267    1.0000 </r>
       <r>    0.5809    1.0000 </r>
       <r>    0.6533    1.0000 </r>
       <r>    0.7095    1.0000 </r>
       <r>    0.8391    1.0000 </r>
       <r>    1.1549    1.0000 </r>
       <r>    1.4623    1.0000 </r>
       <r>    1.5289    1.0000 </r>
       <r>    1.8506    1.0000 </r>
       <r>    2.1696    1.0000 </r>
       <r>    2.5001    1.0000 </r>
       <r>    6.1384    0.0000 </r>
       <r>    6.5377    0.0000 </r>
       <r>    6.6091    0.0000 </r>
       <r>    7.0998    0.0000 </r>
       <r>    7.9944    0.0000 </r>
       <r>    8.1462    0.0000 </r>
       <r>    8.8717    0.0000 </r>
       <r>    9.1875    0.0000 </r>
       <r>   10.0567    0.0000 </r>
       <r>   10.2888    0.0000 </r>
       <r>   10.8532    0.0000 </r>
       <r>   11.6995    0.0000 </r>
      </set>
      <set comment="kpoint 10">
       <r>  -14.6635    1.0000 </r>
       <r>  -14.6557    1.0000 </r>
       <r>  -14.6349    1.0000 </r>
       <r>  -14.5860    1.0000 </r>
       <r>  -14.5610    1.0000 </r>
       <r>  -14.5473    1.0000 </r>
       <r>  -14.4995    1.0000 </r>
       <r>  -14.4975    1.0000 </r>
       <r>  -14.4890    1.0000 </r>
       <r>  -14.4845    1.0000 </r>
       <r>  -11.7522    1.0000 </r>
       <r>  -11.2608    1.0000 </r>
       <r>  -11.0264    1.0000 </r>
       <r>  -10.7114    1.0000 </r>
       <r>   -4.2376    1.0000 </r>
       <r>   -3.4122    1.0000 </r>
       <r>   -1.9754    1.0000 </r>
       <r>   -1.6139    1.0000 </r>
       <r>   -1.5057    1.0000 </r>
       <r>   -1.1436    1.0000 </r>
       <r>   -1.0448    1.0000 </r>
       <r>   -0.7173    1.0000 </r>
       <r>   -0.6084    1.0000 </r>
       <r>   -0.3988    1.0000 </r>
       <r>   -0.1916    1.0000 </r>
       <r>   -0.0568    1.0000 </r>
       <r>    0.6252    1.0000 </r>
       <r>    0.6845    1.0000 </r>
       <r>    0.7816    1.0000 </r>
       <r>    0.9800    1.0000 </r>
       <r>    1.0765    1.0000 </r>
       <r>    1.2013    1.0000 </r>
       <r>    1.5255    1.0000 </r>
       <r>    1.9044    1.0000 </r>
       <r>    2.1881    1.0000 </r>
       <r>    2.5958    1.0000 </r>
       <r>    6.4267    0.0000 </r>
       <r>    6.9497    0.0000 </r>
       <r>    7.1708    0.0000 </r>
       <r>    8.3534    0.0000 </r>
       <r>    8.9332    0.0000 </r>
       <r>    9.2203    0.0000 </r>
       <r>    9.6319    0.0000 </r>
       <r>    9.9212    0.0000 </r>
       <r>   10.0776    0.0000 </r>
       <r>   10.5137    0.0000 </r>
       <r>   10.8617    0.0000 </r>
       <r>   10.9193    0.0000 </r>
      </set>
      <set comment="kpoint 11">
       <r>  -14.6585    1.0000 </r>
       <r>  -14.6566    1.0000 </r>
       <r>  -14.6436    1.0000 </r>
       <r>  -14.5781    1.0000 </r>
       <r>  -14.5562    1.0000 </r>
       <r>  -14.5483    1.0000 </r>
       <r>  -14.5014    1.0000 </r>
       <r>  -14.4967    1.0000 </r>
       <r>  -14.4909    1.0000 </r>
       <r>  -14.4831    1.0000 </r>
       <r>  -12.0881    1.0000 </r>
       <r>  -10.9834    1.0000 </r>
       <r>  -10.8523    1.0000 </r>
       <r>  -10.7525    1.0000 </r>
       <r>   -4.4429    1.0000 </r>
       <r>   -3.4412    1.0000 </r>
       <r>   -1.9340    1.0000 </r>
       <r>   -1.7206    1.0000 </r>
       <r>   -1.2362    1.0000 </r>
       <r>   -0.9558    1.0000 </r>
       <r>   -0.8673    1.0000 </r>
       <r>   -0.7644    1.0000 </r>
       <r>   -0.5536    1.0000 </r>
       <r>   -0.4512    1.0000 </r>
       <r>   -0.3013    1.0000 </r>
       <r>   -0.1494    1.0000 </r>
       <r>    0.5866    1.0000 </r>
       <r>    0.6609    1.0000 </r>
       <r>    0.7721    1.0000 </r>
       <r>    0.8086    1.0000 </r>
       <r>    1.1319    1.0000 </r>
       <r>    1.2744    1.0000 </r>
       <r>    1.4712    1.0000 </r>
       <r>    1.8917    1.0000 </r>
       <r>    2.4217    1.0000 </r>
       <r>    3.0382    1.0000 </r>
       <r>    5.9775    0.0000 </r>
       <r>    6.6460    0.0000 </r>
       <r>    7.2966    0.0000 </r>
       <r>    7.5039    0.0000 </r>
       <r>    7.6462    0.0000 </r>
       <r>    8.5324    0.0000 </r>
       <r>    9.2745    0.0000 </r>
       <r>    9.4526    0.0000 </r>
       <r>    9.8255    0.0000 </r>
       <r>   10.0975    0.0000 </r>
       <r>   11.0893    0.0000 </r>
       <r>   11.4373    0.0000 </r>
      </set>
      <set comment="kpoint 12">
       <r>  -14.6611    1.0000 </r>
       <r>  -14.6600    1.0000 </r>
       <r>  -14.6220    1.0000 </r>
       <r>  -14.6032    1.0000 </r>
       <r>  -14.5527    1.0000 </r>
       <r>  -14.5508    1.0000 </r>
       <r>  -14.4998    1.0000 </r>
       <r>  -14.4985    1.0000 </r>
       <r>  -14.4871    1.0000 </r>
       <r>  -14.4850    1.0000 </r>
       <r>  -11.6261    1.0000 </r>
       <r>  -11.3139    1.0000 </r>
       <r>  -10.9287    1.0000 </r>
       <r>  -10.9160    1.0000 </r>
       <r>   -4.0680    1.0000 </r>
       <r>   -3.7828    1.0000 </r>
       <r>   -2.1560    1.0000 </r>
       <r>   -1.9071    1.0000 </r>
       <r>   -1.0249    1.0000 </r>
       <r>   -0.8906    1.0000 </r>
       <r>   -0.7152    1.0000 </r>
       <r>   -0.6293    1.0000 </r>
       <r>   -0.5873    1.0000 </r>
       <r>   -0.4494    1.0000 </r>
       <r>   -0.2498    1.0000 </r>
       <r>   -0.2111    1.0000 </r>
       <r>    0.6421    1.0000 </r>
       <r>    0.6457    1.0000 </r>
       <r>    0.8190    1.0000 </r>
       <r>    0.8449    1.0000 </r>
       <r>    1.1827    1.0000 </r>
       <r>    1.3629    1.0000 </r>
       <r>    1.8883    1.0000 </r>
       <r>    1.9730    1.0000 </r>
       <r>    2.3702    1.0000 </r>
       <r>    2.4654    1.0000 </r>
       <r>    5.9961    0.0000 </r>
       <r>    6.3564    0.0000 </r>
       <r>    7.1994    0.0000 </r>
       <r>    7.4306    0.0000 </r>
       <r>    8.2293    0.0000 </r>
       <r>    8.4359    0.0000 </r>
       <r>    9.4890    0.0000 </r>
       <r>    9.5579    0.0000 </r>
       <r>   10.2339    0.0000 </r>
       <r>   10.6608    0.0000 </r>
       <r>   10.7858    0.0000 </r>
       <r>   11.0839    0.0000 </r>
      </set>
      <set comment="kpoint 13">
       <r>  -14.6623    1.0000 </r>
       <r>  -14.6595    1.0000 </r>
       <r>  -14.6283    1.0000 </r>
       <r>  -14.5897    1.0000 </r>
       <r>  -14.5616    1.0000 </r>
       <r>  -14.5530    1.0000 </r>
       <r>  -14.4976    1.0000 </r>
       <r>  -14.4962    1.0000 </r>
       <r>  -14.4893    1.0000 </r>
       <r>  -14.4856    1.0000 </r>
       <r>  -11.6159    1.0000 </r>
       <r>  -11.2912    1.0000 </r>
       <r>  -10.9684    1.0000 </r>
       <r>  -10.8508    1.0000 </r>
       <r>   -4.3121    1.0000 </r>
       <r>   -3.7254    1.0000 </r>
       <r>   -2.4094    1.0000 </r>
       <r>   -2.0731    1.0000 </r>
       <r>   -1.2286    1.0000 </r>
       <r>   -0.9839    1.0000 </r>
       <r>   -0.6680    1.0000 </r>
       <r>   -0.6489    1.0000 </r>
       <r>   -0.4361    1.0000 </r>
       <r>   -0.3937    1.0000 </r>
       <r>   -0.1668    1.0000 </r>
       <r>   -0.1045    1.0000 </r>
       <r>    0.5836    1.0000 </r>
       <r>    0.6695    1.0000 </r>
       <r>    0.7813    1.0000 </r>
       <r>    0.9580    1.0000 </r>
       <r>    1.4894    1.0000 </r>
       <r>    1.5403    1.0000 </r>
       <r>    1.8749    1.0000 </r>
       <r>    1.9834    1.0000 </r>
       <r>    2.3350    1.0000 </r>
       <r>    2.4100    1.0000 </r>
       <r>    6.0290    0.0000 </r>
       <r>    6.4880    0.0000 </r>
       <r>    7.6441    0.0000 </r>
       <r>    8.3465    0.0000 </r>
       <r>    8.6624    0.0000 </r>
       <r>    8.9286    0.0000 </r>
       <r>    9.0585    0.0000 </r>
       <r>    9.4188    0.0000 </r>
       <r>   10.3035    0.0000 </r>
       <r>   10.7008    0.0000 </r>
       <r>   10.9156    0.0000 </r>
       <r>   11.1977    0.0000 </r>
      </set>
      <set comment="kpoint 14">
       <r>  -14.6609    1.0000 </r>
       <r>  -14.6591    1.0000 </r>
       <r>  -14.6298    1.0000 </r>
       <r>  -14.5935    1.0000 </r>
       <r>  -14.5548    1.0000 </r>
       <r>  -14.5510    1.0000 </r>
       <r>  -14.5000    1.0000 </r>
       <r>  -14.4975    1.0000 </r>
       <r>  -14.4885    1.0000 </r>
       <r>  -14.4844    1.0000 </r>
       <r>  -11.7668    1.0000 </r>
       <r>  -11.1681    1.0000 </r>
       <r>  -10.9253    1.0000 </r>
       <r>  -10.8952    1.0000 </r>
       <r>   -4.2164    1.0000 </r>
       <r>   -3.6805    1.0000 </r>
       <r>   -2.2363    1.0000 </r>
       <r>   -1.7731    1.0000 </r>
       <r>   -1.1180    1.0000 </r>
       <r>   -0.9589    1.0000 </r>
       <r>   -0.7955    1.0000 </r>
       <r>   -0.6041    1.0000 </r>
       <r>   -0.5698    1.0000 </r>
       <r>   -0.4050    1.0000 </r>
       <r>   -0.2595    1.0000 </r>
       <r>   -0.1768    1.0000 </r>
       <r>    0.6076    1.0000 </r>
       <r>    0.6598    1.0000 </r>
       <r>    0.8705    1.0000 </r>
       <r>    0.8804    1.0000 </r>
       <r>    1.1230    1.0000 </r>
       <r>    1.3932    1.0000 </r>
       <r>    1.6853    1.0000 </r>
       <r>    1.8812    1.0000 </r>
       <r>    2.5733    1.0000 </r>
       <r>    2.6882    1.0000 </r>
       <r>    5.7703    0.0000 </r>
       <r>    6.3839    0.0000 </r>
       <r>    7.1393    0.0000 </r>
       <r>    7.4660    0.0000 </r>
       <r>    8.3397    0.0000 </r>
       <r>    8.7537    0.0000 </r>
       <r>    9.7021    0.0000 </r>
       <r>    9.7382    0.0000 </r>
       <r>   10.0035    0.0000 </r>
       <r>   10.5889    0.0000 </r>
       <r>   10.8702    0.0000 </r>
       <r>   11.3818    0.0000 </r>
      </set>
      <set comment="kpoint 15">
       <r>  -14.6623    1.0000 </r>
       <r>  -14.6623    1.0000 </r>
       <r>  -14.6086    1.0000 </r>
       <r>  -14.6086    1.0000 </r>
       <r>  -14.5592    1.0000 </r>
       <r>  -14.5592    1.0000 </r>
       <r>  -14.4952    1.0000 </r>
       <r>  -14.4952    1.0000 </r>
       <r>  -14.4883    1.0000 </r>
       <r>  -14.4883    1.0000 </r>
       <r>  -11.3555    1.0000 </r>
       <r>  -11.3553    1.0000 </r>
       <r>  -10.9963    1.0000 </r>
       <r>  -10.9960    1.0000 </r>
       <r>   -4.1892    1.0000 </r>
       <r>   -4.1892    1.0000 </r>
       <r>   -2.5168    1.0000 </r>
       <r>   -2.5167    1.0000 </r>
       <r>   -0.9305    1.0000 </r>
       <r>   -0.9305    1.0000 </r>
       <r>   -0.5589    1.0000 </r>
       <r>   -0.5588    1.0000 </r>
       <r>   -0.4247    1.0000 </r>
       <r>   -0.4247    1.0000 </r>
       <r>   -0.1174    1.0000 </r>
       <r>   -0.1174    1.0000 </r>
       <r>    0.6008    1.0000 </r>
       <r>    0.6009    1.0000 </r>
       <r>    0.9872    1.0000 </r>
       <r>    0.9873    1.0000 </r>
       <r>    1.6268    1.0000 </r>
       <r>    1.6268    1.0000 </r>
       <r>    2.2734    1.0000 </r>
       <r>    2.2734    1.0000 </r>
       <r>    2.5060    1.0000 </r>
       <r>    2.5061    1.0000 </r>
       <r>    5.7905    0.0000 </r>
       <r>    5.7905    0.0000 </r>
       <r>    7.7302    0.0000 </r>
       <r>    7.7303    0.0000 </r>
       <r>    8.9440    0.0000 </r>
       <r>    8.9441    0.0000 </r>
       <r>    9.3779    0.0000 </r>
       <r>    9.3779    0.0000 </r>
       <r>   10.2655    0.0000 </r>
       <r>   10.2657    0.0000 </r>
       <r>   10.7972    0.0000 </r>
       <r>   10.7973    0.0000 </r>
      </set>
      <set comment="kpoint 16">
       <r>  -14.6630    1.0000 </r>
       <r>  -14.6592    1.0000 </r>
       <r>  -14.6268    1.0000 </r>
       <r>  -14.5921    1.0000 </r>
       <r>  -14.5603    1.0000 </r>
       <r>  -14.5530    1.0000 </r>
       <r>  -14.4977    1.0000 </r>
       <r>  -14.4961    1.0000 </r>
       <r>  -14.4893    1.0000 </r>
       <r>  -14.4856    1.0000 </r>
       <r>  -11.6342    1.0000 </r>
       <r>  -11.2161    1.0000 </r>
       <r>  -11.0571    1.0000 </r>
       <r>  -10.8194    1.0000 </r>
       <r>   -4.2859    1.0000 </r>
       <r>   -3.7931    1.0000 </r>
       <r>   -2.2425    1.0000 </r>
       <r>   -2.0258    1.0000 </r>
       <r>   -1.5663    1.0000 </r>
       <r>   -0.8371    1.0000 </r>
       <r>   -0.6621    1.0000 </r>
       <r>   -0.6109    1.0000 </r>
       <r>   -0.4899    1.0000 </r>
       <r>   -0.3494    1.0000 </r>
       <r>   -0.1763    1.0000 </r>
       <r>   -0.1015    1.0000 </r>
       <r>    0.6256    1.0000 </r>
       <r>    0.6604    1.0000 </r>
       <r>    0.7416    1.0000 </r>
       <r>    0.9872    1.0000 </r>
       <r>    1.3585    1.0000 </r>
       <r>    1.5467    1.0000 </r>
       <r>    1.7225    1.0000 </r>
       <r>    2.0692    1.0000 </r>
       <r>    2.3866    1.0000 </r>
       <r>    2.5606    1.0000 </r>
       <r>    6.0959    0.0000 </r>
       <r>    6.2850    0.0000 </r>
       <r>    7.8658    0.0000 </r>
       <r>    8.2542    0.0000 </r>
       <r>    8.5569    0.0000 </r>
       <r>    8.9903    0.0000 </r>
       <r>    9.2106    0.0000 </r>
       <r>    9.7818    0.0000 </r>
       <r>    9.9766    0.0000 </r>
       <r>   10.3981    0.0000 </r>
       <r>   10.5560    0.0000 </r>
       <r>   10.9672    0.0000 </r>
      </set>
      <set comment="kpoint 17">
       <r>  -14.6590    1.0000 </r>
       <r>  -14.6588    1.0000 </r>
       <r>  -14.6410    1.0000 </r>
       <r>  -14.5730    1.0000 </r>
       <r>  -14.5615    1.0000 </r>
       <r>  -14.5536    1.0000 </r>
       <r>  -14.4989    1.0000 </r>
       <r>  -14.4945    1.0000 </r>
       <r>  -14.4926    1.0000 </r>
       <r>  -14.4842    1.0000 </r>
       <r>  -12.0286    1.0000 </r>
       <r>  -10.9616    1.0000 </r>
       <r>  -10.9056    1.0000 </r>
       <r>  -10.7488    1.0000 </r>
       <r>   -4.5155    1.0000 </r>
       <r>   -3.5888    1.0000 </r>
       <r>   -2.2150    1.0000 </r>
       <r>   -1.6640    1.0000 </r>
       <r>   -1.5270    1.0000 </r>
       <r>   -1.0015    1.0000 </r>
       <r>   -0.8554    1.0000 </r>
       <r>   -0.5571    1.0000 </r>
       <r>   -0.5541    1.0000 </r>
       <r>   -0.3918    1.0000 </r>
       <r>   -0.2650    1.0000 </r>
       <r>   -0.0265    1.0000 </r>
       <r>    0.5732    1.0000 </r>
       <r>    0.7374    1.0000 </r>
       <r>    0.7957    1.0000 </r>
       <r>    0.8595    1.0000 </r>
       <r>    1.1451    1.0000 </r>
       <r>    1.4448    1.0000 </r>
       <r>    1.6021    1.0000 </r>
       <r>    1.8078    1.0000 </r>
       <r>    2.5389    1.0000 </r>
       <r>    2.9608    1.0000 </r>
       <r>    5.9338    0.0000 </r>
       <r>    6.5111    0.0000 </r>
       <r>    7.5482    0.0000 </r>
       <r>    7.7981    0.0000 </r>
       <r>    8.7259    0.0000 </r>
       <r>    8.8454    0.0000 </r>
       <r>    9.0772    0.0000 </r>
       <r>    9.7014    0.0000 </r>
       <r>   10.0254    0.0000 </r>
       <r>   10.0741    0.0000 </r>
       <r>   11.2098    0.0000 </r>
       <r>   11.5241    0.0000 </r>
      </set>
     </set>
     <set comment="spin 2">
      <set comment="kpoint 1">
       <r>  -14.6563    1.0000 </r>
       <r>  -14.6543    1.0000 </r>
       <r>  -14.6543    1.0000 </r>
       <r>  -14.5658    1.0000 </r>
       <r>  -14.5515    1.0000 </r>
       <r>  -14.5515    1.0000 </r>
       <r>  -14.5013    1.0000 </r>
       <r>  -14.4956    1.0000 </r>
       <r>  -14.4945    1.0000 </r>
       <r>  -14.4832    1.0000 </r>
       <r>  -12.4009    1.0000 </r>
       <r>  -10.7064    1.0000 </r>
       <r>  -10.7064    1.0000 </r>
       <r>  -10.7030    1.0000 </r>
       <r>   -4.7781    1.0000 </r>
       <r>   -3.2543    1.0000 </r>
       <r>   -1.8369    1.0000 </r>
       <r>   -1.6036    1.0000 </r>
       <r>   -1.5692    1.0000 </r>
       <r>   -1.0597    1.0000 </r>
       <r>   -1.0597    1.0000 </r>
       <r>   -0.5449    1.0000 </r>
       <r>   -0.5448    1.0000 </r>
       <r>   -0.3907    1.0000 </r>
       <r>   -0.3906    1.0000 </r>
       <r>   -0.3790    1.0000 </r>
       <r>    0.4966    1.0000 </r>
       <r>    0.5470    1.0000 </r>
       <r>    0.6209    1.0000 </r>
       <r>    0.9873    1.0000 </r>
       <r>    1.1336    1.0000 </r>
       <r>    1.1337    1.0000 </r>
       <r>    1.2080    1.0000 </r>
       <r>    3.1720    1.0000 </r>
       <r>    3.1723    1.0000 </r>
       <r>    3.2575    1.0000 </r>
       <r>    4.6247    0.0000 </r>
       <r>    6.1638    0.0000 </r>
       <r>    6.5854    0.0000 </r>
       <r>    8.3777    0.0000 </r>
       <r>    8.3778    0.0000 </r>
       <r>    8.7775    0.0000 </r>
       <r>    9.1959    0.0000 </r>
       <r>    9.1959    0.0000 </r>
       <r>    9.4486    0.0000 </r>
       <r>    9.8068    0.0000 </r>
       <r>   11.0975    0.0000 </r>
       <r>   11.1040    0.0000 </r>
      </set>
      <set comment="kpoint 2">
       <r>  -14.6592    1.0000 </r>
       <r>  -14.6557    1.0000 </r>
       <r>  -14.6471    1.0000 </r>
       <r>  -14.5713    1.0000 </r>
       <r>  -14.5593    1.0000 </r>
       <r>  -14.5496    1.0000 </r>
       <r>  -14.5010    1.0000 </r>
       <r>  -14.4960    1.0000 </r>
       <r>  -14.4926    1.0000 </r>
       <r>  -14.4836    1.0000 </r>
       <r>  -12.1699    1.0000 </r>
       <r>  -10.9148    1.0000 </r>
       <r>  -10.7950    1.0000 </r>
       <r>  -10.7512    1.0000 </r>
       <r>   -4.5438    1.0000 </r>
       <r>   -3.3684    1.0000 </r>
       <r>   -1.9829    1.0000 </r>
       <r>   -1.7292    1.0000 </r>
       <r>   -1.3412    1.0000 </r>
       <r>   -0.9519    1.0000 </r>
       <r>   -0.9214    1.0000 </r>
       <r>   -0.7750    1.0000 </r>
       <r>   -0.5893    1.0000 </r>
       <r>   -0.4225    1.0000 </r>
       <r>   -0.3520    1.0000 </r>
       <r>   -0.1006    1.0000 </r>
       <r>    0.5682    1.0000 </r>
       <r>    0.6718    1.0000 </r>
       <r>    0.7314    1.0000 </r>
       <r>    0.8439    1.0000 </r>
       <r>    1.0460    1.0000 </r>
       <r>    1.3340    1.0000 </r>
       <r>    1.4344    1.0000 </r>
       <r>    2.0145    1.0000 </r>
       <r>    2.6015    1.0000 </r>
       <r>    2.9822    1.0000 </r>
       <r>    5.9133    0.0000 </r>
       <r>    6.8680    0.0000 </r>
       <r>    7.1665    0.0000 </r>
       <r>    7.7312    0.0000 </r>
       <r>    7.9020    0.0000 </r>
       <r>    8.7394    0.0000 </r>
       <r>    9.2998    0.0000 </r>
       <r>    9.4677    0.0000 </r>
       <r>    9.6962    0.0000 </r>
       <r>   10.3163    0.0000 </r>
       <r>   10.7205    0.0000 </r>
       <r>   11.5726    0.0000 </r>
      </set>
      <set comment="kpoint 3">
       <r>  -14.6617    1.0000 </r>
       <r>  -14.6578    1.0000 </r>
       <r>  -14.6367    1.0000 </r>
       <r>  -14.5834    1.0000 </r>
       <r>  -14.5627    1.0000 </r>
       <r>  -14.5480    1.0000 </r>
       <r>  -14.4998    1.0000 </r>
       <r>  -14.4979    1.0000 </r>
       <r>  -14.4893    1.0000 </r>
       <r>  -14.4848    1.0000 </r>
       <r>  -11.7291    1.0000 </r>
       <r>  -11.3595    1.0000 </r>
       <r>  -10.8655    1.0000 </r>
       <r>  -10.7975    1.0000 </r>
       <r>   -4.2613    1.0000 </r>
       <r>   -3.3708    1.0000 </r>
       <r>   -2.0161    1.0000 </r>
       <r>   -1.6068    1.0000 </r>
       <r>   -1.5382    1.0000 </r>
       <r>   -1.2383    1.0000 </r>
       <r>   -0.8576    1.0000 </r>
       <r>   -0.6288    1.0000 </r>
       <r>   -0.5900    1.0000 </r>
       <r>   -0.5452    1.0000 </r>
       <r>   -0.1747    1.0000 </r>
       <r>   -0.1012    1.0000 </r>
       <r>    0.6125    1.0000 </r>
       <r>    0.7026    1.0000 </r>
       <r>    0.7568    1.0000 </r>
       <r>    0.9348    1.0000 </r>
       <r>    1.1069    1.0000 </r>
       <r>    1.4873    1.0000 </r>
       <r>    1.6373    1.0000 </r>
       <r>    1.8033    1.0000 </r>
       <r>    1.8660    1.0000 </r>
       <r>    2.5850    1.0000 </r>
       <r>    6.5579    0.0000 </r>
       <r>    6.9636    0.0000 </r>
       <r>    7.5557    0.0000 </r>
       <r>    8.5925    0.0000 </r>
       <r>    8.6332    0.0000 </r>
       <r>    8.8696    0.0000 </r>
       <r>    9.2968    0.0000 </r>
       <r>    9.9258    0.0000 </r>
       <r>   10.0241    0.0000 </r>
       <r>   10.0485    0.0000 </r>
       <r>   10.7596    0.0000 </r>
       <r>   11.0046    0.0000 </r>
      </set>
      <set comment="kpoint 4">
       <r>  -14.6607    1.0000 </r>
       <r>  -14.6588    1.0000 </r>
       <r>  -14.6360    1.0000 </r>
       <r>  -14.5851    1.0000 </r>
       <r>  -14.5575    1.0000 </r>
       <r>  -14.5521    1.0000 </r>
       <r>  -14.5001    1.0000 </r>
       <r>  -14.4967    1.0000 </r>
       <r>  -14.4903    1.0000 </r>
       <r>  -14.4844    1.0000 </r>
       <r>  -11.8851    1.0000 </r>
       <r>  -11.0551    1.0000 </r>
       <r>  -10.9190    1.0000 </r>
       <r>  -10.8574    1.0000 </r>
       <r>   -4.3482    1.0000 </r>
       <r>   -3.6195    1.0000 </r>
       <r>   -2.2744    1.0000 </r>
       <r>   -1.6856    1.0000 </r>
       <r>   -1.1170    1.0000 </r>
       <r>   -1.1024    1.0000 </r>
       <r>   -0.9156    1.0000 </r>
       <r>   -0.5819    1.0000 </r>
       <r>   -0.5269    1.0000 </r>
       <r>   -0.3883    1.0000 </r>
       <r>   -0.2644    1.0000 </r>
       <r>   -0.1273    1.0000 </r>
       <r>    0.5763    1.0000 </r>
       <r>    0.7029    1.0000 </r>
       <r>    0.8658    1.0000 </r>
       <r>    0.8805    1.0000 </r>
       <r>    1.1384    1.0000 </r>
       <r>    1.3614    1.0000 </r>
       <r>    1.5803    1.0000 </r>
       <r>    1.8815    1.0000 </r>
       <r>    2.7469    1.0000 </r>
       <r>    2.7568    1.0000 </r>
       <r>    5.6838    0.0000 </r>
       <r>    6.4115    0.0000 </r>
       <r>    7.2148    0.0000 </r>
       <r>    7.4289    0.0000 </r>
       <r>    8.5109    0.0000 </r>
       <r>    9.0600    0.0000 </r>
       <r>    9.6189    0.0000 </r>
       <r>    9.8328    0.0000 </r>
       <r>   10.1176    0.0000 </r>
       <r>   10.4059    0.0000 </r>
       <r>   11.1463    0.0000 </r>
       <r>   11.3714    0.0000 </r>
      </set>
      <set comment="kpoint 5">
       <r>  -14.6630    1.0000 </r>
       <r>  -14.6596    1.0000 </r>
       <r>  -14.6279    1.0000 </r>
       <r>  -14.5912    1.0000 </r>
       <r>  -14.5613    1.0000 </r>
       <r>  -14.5533    1.0000 </r>
       <r>  -14.4979    1.0000 </r>
       <r>  -14.4964    1.0000 </r>
       <r>  -14.4896    1.0000 </r>
       <r>  -14.4859    1.0000 </r>
       <r>  -11.6260    1.0000 </r>
       <r>  -11.2584    1.0000 </r>
       <r>  -11.0109    1.0000 </r>
       <r>  -10.8329    1.0000 </r>
       <r>   -4.3002    1.0000 </r>
       <r>   -3.7593    1.0000 </r>
       <r>   -2.3410    1.0000 </r>
       <r>   -2.0402    1.0000 </r>
       <r>   -1.4195    1.0000 </r>
       <r>   -0.8832    1.0000 </r>
       <r>   -0.6636    1.0000 </r>
       <r>   -0.6341    1.0000 </r>
       <r>   -0.4685    1.0000 </r>
       <r>   -0.3653    1.0000 </r>
       <r>   -0.1756    1.0000 </r>
       <r>   -0.0998    1.0000 </r>
       <r>    0.6030    1.0000 </r>
       <r>    0.6669    1.0000 </r>
       <r>    0.7609    1.0000 </r>
       <r>    0.9627    1.0000 </r>
       <r>    1.4322    1.0000 </r>
       <r>    1.5450    1.0000 </r>
       <r>    1.7930    1.0000 </r>
       <r>    2.0196    1.0000 </r>
       <r>    2.3485    1.0000 </r>
       <r>    2.5059    1.0000 </r>
       <r>    6.0466    0.0000 </r>
       <r>    6.4034    0.0000 </r>
       <r>    7.7252    0.0000 </r>
       <r>    8.3017    0.0000 </r>
       <r>    8.6883    0.0000 </r>
       <r>    8.8838    0.0000 </r>
       <r>    9.1708    0.0000 </r>
       <r>    9.5594    0.0000 </r>
       <r>   10.0540    0.0000 </r>
       <r>   10.5646    0.0000 </r>
       <r>   10.8940    0.0000 </r>
       <r>   11.0555    0.0000 </r>
      </set>
      <set comment="kpoint 6">
       <r>  -14.6593    1.0000 </r>
       <r>  -14.6591    1.0000 </r>
       <r>  -14.6418    1.0000 </r>
       <r>  -14.5716    1.0000 </r>
       <r>  -14.5626    1.0000 </r>
       <r>  -14.5542    1.0000 </r>
       <r>  -14.4990    1.0000 </r>
       <r>  -14.4945    1.0000 </r>
       <r>  -14.4933    1.0000 </r>
       <r>  -14.4845    1.0000 </r>
       <r>  -12.0477    1.0000 </r>
       <r>  -10.9539    1.0000 </r>
       <r>  -10.9038    1.0000 </r>
       <r>  -10.7296    1.0000 </r>
       <r>   -4.5383    1.0000 </r>
       <r>   -3.5897    1.0000 </r>
       <r>   -2.1815    1.0000 </r>
       <r>   -1.6669    1.0000 </r>
       <r>   -1.6184    1.0000 </r>
       <r>   -1.0097    1.0000 </r>
       <r>   -0.7625    1.0000 </r>
       <r>   -0.6085    1.0000 </r>
       <r>   -0.5549    1.0000 </r>
       <r>   -0.3885    1.0000 </r>
       <r>   -0.2653    1.0000 </r>
       <r>   -0.0104    1.0000 </r>
       <r>    0.5788    1.0000 </r>
       <r>    0.7206    1.0000 </r>
       <r>    0.7793    1.0000 </r>
       <r>    0.8733    1.0000 </r>
       <r>    1.1366    1.0000 </r>
       <r>    1.5653    1.0000 </r>
       <r>    1.6164    1.0000 </r>
       <r>    1.6900    1.0000 </r>
       <r>    2.4838    1.0000 </r>
       <r>    2.9887    1.0000 </r>
       <r>    6.0164    0.0000 </r>
       <r>    6.5233    0.0000 </r>
       <r>    7.6314    0.0000 </r>
       <r>    8.0219    0.0000 </r>
       <r>    8.6582    0.0000 </r>
       <r>    8.8069    0.0000 </r>
       <r>    8.8717    0.0000 </r>
       <r>    9.5482    0.0000 </r>
       <r>    9.9981    0.0000 </r>
       <r>   10.0145    0.0000 </r>
       <r>   11.2569    0.0000 </r>
       <r>   11.5563    0.0000 </r>
      </set>
      <set comment="kpoint 7">
       <r>  -14.6626    1.0000 </r>
       <r>  -14.6626    1.0000 </r>
       <r>  -14.6090    1.0000 </r>
       <r>  -14.6090    1.0000 </r>
       <r>  -14.5594    1.0000 </r>
       <r>  -14.5594    1.0000 </r>
       <r>  -14.4955    1.0000 </r>
       <r>  -14.4955    1.0000 </r>
       <r>  -14.4885    1.0000 </r>
       <r>  -14.4885    1.0000 </r>
       <r>  -11.3569    1.0000 </r>
       <r>  -11.3565    1.0000 </r>
       <r>  -10.9956    1.0000 </r>
       <r>  -10.9952    1.0000 </r>
       <r>   -4.2211    1.0000 </r>
       <r>   -4.2211    1.0000 </r>
       <r>   -2.3657    1.0000 </r>
       <r>   -2.3657    1.0000 </r>
       <r>   -1.1432    1.0000 </r>
       <r>   -1.1431    1.0000 </r>
       <r>   -0.5440    1.0000 </r>
       <r>   -0.5440    1.0000 </r>
       <r>   -0.3498    1.0000 </r>
       <r>   -0.3497    1.0000 </r>
       <r>   -0.1943    1.0000 </r>
       <r>   -0.1941    1.0000 </r>
       <r>    0.6391    1.0000 </r>
       <r>    0.6392    1.0000 </r>
       <r>    0.9198    1.0000 </r>
       <r>    0.9199    1.0000 </r>
       <r>    1.6756    1.0000 </r>
       <r>    1.6758    1.0000 </r>
       <r>    2.2819    1.0000 </r>
       <r>    2.2824    1.0000 </r>
       <r>    2.6636    1.0000 </r>
       <r>    2.6642    1.0000 </r>
       <r>    5.4984    0.0000 </r>
       <r>    5.4991    0.0000 </r>
       <r>    7.8994    0.0000 </r>
       <r>    7.8994    0.0000 </r>
       <r>    9.1450    0.0000 </r>
       <r>    9.1451    0.0000 </r>
       <r>    9.4602    0.0000 </r>
       <r>    9.4603    0.0000 </r>
       <r>   10.3314    0.0000 </r>
       <r>   10.3314    0.0000 </r>
       <r>   10.9088    0.0000 </r>
       <r>   10.9116    0.0000 </r>
      </set>
      <set comment="kpoint 8">
       <r>  -14.6578    1.0000 </r>
       <r>  -14.6578    1.0000 </r>
       <r>  -14.6376    1.0000 </r>
       <r>  -14.5932    1.0000 </r>
       <r>  -14.5462    1.0000 </r>
       <r>  -14.5462    1.0000 </r>
       <r>  -14.5038    1.0000 </r>
       <r>  -14.5000    1.0000 </r>
       <r>  -14.4886    1.0000 </r>
       <r>  -14.4829    1.0000 </r>
       <r>  -12.0501    1.0000 </r>
       <r>  -11.2238    1.0000 </r>
       <r>  -10.7228    1.0000 </r>
       <r>  -10.7228    1.0000 </r>
       <r>   -4.3490    1.0000 </r>
       <r>   -3.7451    1.0000 </r>
       <r>   -1.8508    1.0000 </r>
       <r>   -1.1603    1.0000 </r>
       <r>   -0.8974    1.0000 </r>
       <r>   -0.8554    1.0000 </r>
       <r>   -0.8554    1.0000 </r>
       <r>   -0.5725    1.0000 </r>
       <r>   -0.5725    1.0000 </r>
       <r>   -0.4861    1.0000 </r>
       <r>   -0.3359    1.0000 </r>
       <r>   -0.3359    1.0000 </r>
       <r>    0.4361    1.0000 </r>
       <r>    0.5824    1.0000 </r>
       <r>    0.6812    1.0000 </r>
       <r>    0.7906    1.0000 </r>
       <r>    1.3365    1.0000 </r>
       <r>    1.5778    1.0000 </r>
       <r>    1.5779    1.0000 </r>
       <r>    1.9712    1.0000 </r>
       <r>    2.4738    1.0000 </r>
       <r>    2.4739    1.0000 </r>
       <r>    6.1174    0.0000 </r>
       <r>    6.2443    0.0000 </r>
       <r>    6.5997    0.0000 </r>
       <r>    6.5997    0.0000 </r>
       <r>    6.8320    0.0000 </r>
       <r>    7.4661    0.0000 </r>
       <r>    8.3344    0.0000 </r>
       <r>    8.7204    0.0000 </r>
       <r>   10.3153    0.0000 </r>
       <r>   10.3155    0.0000 </r>
       <r>   12.4102    0.0000 </r>
       <r>   12.7796    0.0000 </r>
      </set>
      <set comment="kpoint 9">
       <r>  -14.6621    1.0000 </r>
       <r>  -14.6576    1.0000 </r>
       <r>  -14.6234    1.0000 </r>
       <r>  -14.6064    1.0000 </r>
       <r>  -14.5511    1.0000 </r>
       <r>  -14.5454    1.0000 </r>
       <r>  -14.5017    1.0000 </r>
       <r>  -14.5007    1.0000 </r>
       <r>  -14.4863    1.0000 </r>
       <r>  -14.4848    1.0000 </r>
       <r>  -11.6521    1.0000 </r>
       <r>  -11.4586    1.0000 </r>
       <r>  -10.9751    1.0000 </r>
       <r>  -10.7161    1.0000 </r>
       <r>   -4.0583    1.0000 </r>
       <r>   -3.7436    1.0000 </r>
       <r>   -1.7537    1.0000 </r>
       <r>   -1.5722    1.0000 </r>
       <r>   -1.3182    1.0000 </r>
       <r>   -0.8202    1.0000 </r>
       <r>   -0.7463    1.0000 </r>
       <r>   -0.6726    1.0000 </r>
       <r>   -0.4846    1.0000 </r>
       <r>   -0.4593    1.0000 </r>
       <r>   -0.3433    1.0000 </r>
       <r>   -0.1272    1.0000 </r>
       <r>    0.5806    1.0000 </r>
       <r>    0.6530    1.0000 </r>
       <r>    0.7092    1.0000 </r>
       <r>    0.8388    1.0000 </r>
       <r>    1.1545    1.0000 </r>
[...]
        <r>  0.0080  0.0020  0.0038  0.0047  0.0394  0.0366  0.0130  0.0327  0.0226 </r>
        <r>  0.0080  0.0038  0.0038  0.0029  0.0157  0.0232  0.0130  0.0461  0.0463 </r>
        <r>  0.0013  0.0078  0.0322  0.0306  0.0000  0.0000  0.0003  0.0001  0.0001 </r>
        <r>  0.0008  0.0671  0.0185  0.0093  0.0001  0.0000  0.0001  0.0004  0.0001 </r>
        <r>  0.0013  0.0302  0.0322  0.0082  0.0000  0.0001  0.0003  0.0000  0.0001 </r>
        <r>  0.0008  0.0087  0.0185  0.0677  0.0000  0.0004  0.0001  0.0001  0.0002 </r>
       </set>
       <set comment="band 25">
        <r>  0.0008  0.0091  0.0036  0.0082  0.0001  0.0015  0.0000  0.0019  0.0017 </r>
        <r>  0.0008  0.0049  0.0036  0.0124  0.0001  0.0015  0.0000  0.0018  0.0017 </r>
        <r>  0.0014  0.0008  0.0018  0.0003  0.0215  0.0835  0.0281  0.0336  0.0656 </r>
        <r>  0.0014  0.0005  0.0018  0.0006  0.0462  0.0288  0.0281  0.0884  0.0409 </r>
        <r>  0.0001  0.0081  0.0163  0.0346  0.0000  0.0003  0.0001  0.0003  0.0000 </r>
        <r>  0.0001  0.0126  0.0203  0.0325  0.0000  0.0002  0.0001  0.0001  0.0005 </r>
        <r>  0.0001  0.0292  0.0163  0.0135  0.0000  0.0002  0.0001  0.0004  0.0000 </r>
        <r>  0.0001  0.0240  0.0203  0.0211  0.0001  0.0001  0.0001  0.0002  0.0005 </r>
       </set>
       <set comment="band 26">
        <r>  0.0003  0.0113  0.0115  0.0091  0.0043  0.0009  0.0005  0.0022  0.0004 </r>
        <r>  0.0003  0.0073  0.0115  0.0131  0.0030  0.0023  0.0005  0.0008  0.0017 </r>
        <r>  0.0016  0.0011  0.0017  0.0017  0.0532  0.0083  0.0210  0.0373  0.0357 </r>
        <r>  0.0016  0.0021  0.0017  0.0008  0.0812  0.0420  0.0210  0.0037  0.0077 </r>
        <r>  0.0001  0.0024  0.0504  0.0300  0.0004  0.0001  0.0000  0.0002  0.0001 </r>
        <r>  0.0001  0.0064  0.0310  0.0391  0.0002  0.0002  0.0001  0.0003  0.0000 </r>
        <r>  0.0001  0.0269  0.0504  0.0055  0.0004  0.0002  0.0000  0.0001  0.0001 </r>
        <r>  0.0001  0.0423  0.0310  0.0031  0.0001  0.0003  0.0001  0.0002  0.0000 </r>
       </set>
       <set comment="band 27">
        <r>  0.0013  0.0008  0.0006  0.0003  0.0000  0.0000  0.0000  0.0000  0.0000 </r>
        <r>  0.0013  0.0005  0.0006  0.0006  0.0000  0.0000  0.0000  0.0000  0.0000 </r>
        <r>  0.0001  0.0001  0.0002  0.0001  0.2340  0.0323  0.0187  0.0916  0.0809 </r>
        <r>  0.0001  0.0001  0.0002  0.0001  0.1174  0.0763  0.0187  0.0476  0.1975 </r>
        <r>  0.0004  0.0001  0.0000  0.0005  0.0004  0.0001  0.0001  0.0000  0.0011 </r>
        <r>  0.0001  0.0007  0.0008  0.0003  0.0000  0.0005  0.0005  0.0003  0.0001 </r>
        <r>  0.0004  0.0005  0.0000  0.0001  0.0010  0.0000  0.0001  0.0001  0.0006 </r>
        <r>  0.0001  0.0004  0.0008  0.0005  0.0000  0.0002  0.0005  0.0006  0.0000 </r>
       </set>
       <set comment="band 28">
        <r>  0.0001  0.0039  0.0047  0.0008  0.0007  0.0001  0.0000  0.0004  0.0002 </r>
        <r>  0.0001  0.0009  0.0047  0.0039  0.0004  0.0004  0.0000  0.0001  0.0005 </r>
        <r>  0.0002  0.0005  0.0005  0.0006  0.0012  0.0604  0.0338  0.1229  0.1904 </r>
        <r>  0.0002  0.0004  0.0005  0.0006  0.0213  0.1057  0.0338  0.0776  0.1702 </r>
        <r>  0.0002  0.0036  0.0061  0.0040  0.0002  0.0002  0.0003  0.0002  0.0002 </r>
        <r>  0.0001  0.0026  0.0013  0.0099  0.0004  0.0004  0.0001  0.0001  0.0002 </r>
        <r>  0.0002  0.0025  0.0061  0.0050  0.0001  0.0002  0.0003  0.0003  0.0003 </r>
        <r>  0.0001  0.0096  0.0013  0.0029  0.0006  0.0001  0.0001  0.0005  0.0001 </r>
       </set>
       <set comment="band 29">
        <r>  0.0057  0.0045  0.0050  0.0004  0.0000  0.0000  0.0003  0.0000  0.0001 </r>
        <r>  0.0057  0.0010  0.0050  0.0038  0.0000  0.0000  0.0003  0.0000  0.0001 </r>
        <r>  0.0007  0.0003  0.0005  0.0006  0.0282  0.1072  0.0952  0.1524  0.0377 </r>
        <r>  0.0007  0.0006  0.0005  0.0002  0.0490  0.1962  0.0952  0.0633  0.0170 </r>
        <r>  0.0003  0.0004  0.0083  0.0009  0.0004  0.0001  0.0007  0.0004  0.0001 </r>
        <r>  0.0001  0.0031  0.0005  0.0023  0.0007  0.0001  0.0000  0.0000  0.0003 </r>
        <r>  0.0003  0.0011  0.0083  0.0002  0.0003  0.0004  0.0007  0.0001  0.0002 </r>
        <r>  0.0001  0.0031  0.0005  0.0023  0.0010  0.0000  0.0000  0.0001  0.0000 </r>
       </set>
       <set comment="band 30">
        <r>  0.0007  0.0004  0.0025  0.0083  0.0003  0.0005  0.0011  0.0000  0.0000 </r>
        <r>  0.0007  0.0086  0.0025  0.0000  0.0003  0.0001  0.0011  0.0004  0.0000 </r>
        <r>  0.0047  0.0003  0.0009  0.0010  0.0119  0.1840  0.0794  0.0338  0.0781 </r>
        <r>  0.0047  0.0010  0.0009  0.0002  0.0001  0.0692  0.0794  0.1487  0.0898 </r>
        <r>  0.0005  0.0003  0.0142  0.0048  0.0005  0.0004  0.0001  0.0001  0.0002 </r>
        <r>  0.0001  0.0069  0.0034  0.0078  0.0002  0.0001  0.0010  0.0003  0.0000 </r>
        <r>  0.0005  0.0051  0.0142  0.0001  0.0005  0.0002  0.0001  0.0003  0.0002 </r>
        <r>  0.0001  0.0104  0.0034  0.0042  0.0002  0.0002  0.0010  0.0001  0.0001 </r>
       </set>
       <set comment="band 31">
        <r>  0.0023  0.0060  0.0003  0.0004  0.0003  0.0006  0.0003  0.0009  0.0001 </r>
        <r>  0.0023  0.0007  0.0003  0.0057  0.0003  0.0012  0.0003  0.0003  0.0001 </r>
        <r>  0.0053  0.0057  0.0023  0.0011  0.0622  0.0019  0.2050  0.0172  0.0393 </r>
        <r>  0.0053  0.0022  0.0023  0.0045  0.0851  0.0171  0.2050  0.0020  0.0164 </r>
        <r>  0.0020  0.0136  0.0039  0.0073  0.0002  0.0002  0.0003  0.0002  0.0002 </r>
        <r>  0.0021  0.0034  0.0156  0.0054  0.0001  0.0002  0.0005  0.0007  0.0007 </r>
        <r>  0.0020  0.0107  0.0039  0.0103  0.0003  0.0002  0.0003  0.0002  0.0001 </r>
        <r>  0.0021  0.0066  0.0156  0.0023  0.0002  0.0008  0.0005  0.0001  0.0005 </r>
       </set>
       <set comment="band 32">
        <r>  0.0212  0.0006  0.0026  0.0041  0.0003  0.0006  0.0006  0.0003  0.0002 </r>
        <r>  0.0212  0.0035  0.0026  0.0012  0.0004  0.0004  0.0006  0.0005  0.0000 </r>
        <r>  0.0021  0.0011  0.0026  0.0055  0.0082  0.0707  0.1844  0.0217  0.0241 </r>
        <r>  0.0021  0.0051  0.0026  0.0016  0.0007  0.0195  0.1844  0.0729  0.0316 </r>
        <r>  0.0052  0.0142  0.0055  0.0042  0.0001  0.0001  0.0004  0.0004  0.0000 </r>
        <r>  0.0091  0.0041  0.0178  0.0055  0.0000  0.0007  0.0000  0.0002  0.0002 </r>
        <r>  0.0052  0.0029  0.0055  0.0155  0.0000  0.0004  0.0004  0.0001  0.0001 </r>
        <r>  0.0091  0.0039  0.0178  0.0057  0.0000  0.0001  0.0000  0.0008  0.0002 </r>
       </set>
       <set comment="band 33">
        <r>  0.0002  0.0048  0.0070  0.0051  0.0003  0.0014  0.0001  0.0005  0.0015 </r>
        <r>  0.0002  0.0039  0.0070  0.0061  0.0006  0.0004  0.0001  0.0015  0.0011 </r>
        <r>  0.0006  0.0016  0.0094  0.0004  0.0440  0.1199  0.0303  0.0021  0.0740 </r>
        <r>  0.0006  0.0006  0.0094  0.0013  0.0902  0.0132  0.0303  0.1088  0.0278 </r>
        <r>  0.0011  0.0005  0.0156  0.0220  0.0000  0.0006  0.0000  0.0005  0.0002 </r>
        <r>  0.0014  0.0189  0.0321  0.0072  0.0001  0.0000  0.0002  0.0004  0.0002 </r>
        <r>  0.0011  0.0199  0.0156  0.0026  0.0001  0.0006  0.0000  0.0004  0.0001 </r>
        <r>  0.0014  0.0043  0.0321  0.0218  0.0001  0.0003  0.0002  0.0000  0.0002 </r>
       </set>
       <set comment="band 34">
        <r>  0.0054  0.0026  0.0075  0.0020  0.0021  0.0005  0.0001  0.0001  0.0002 </r>
        <r>  0.0054  0.0024  0.0075  0.0022  0.0023  0.0002  0.0001  0.0004  0.0000 </r>
        <r>  0.0019  0.0022  0.0016  0.0105  0.0246  0.0179  0.0372  0.1102  0.0600 </r>
        <r>  0.0019  0.0087  0.0016  0.0040  0.0443  0.0977  0.0372  0.0304  0.0403 </r>
        <r>  0.0055  0.0108  0.0121  0.0216  0.0000  0.0001  0.0001  0.0001  0.0006 </r>
        <r>  0.0010  0.0242  0.0152  0.0198  0.0004  0.0000  0.0001  0.0002  0.0002 </r>
        <r>  0.0055  0.0196  0.0121  0.0128  0.0001  0.0001  0.0001  0.0001  0.0005 </r>
        <r>  0.0010  0.0191  0.0152  0.0250  0.0005  0.0002  0.0001  0.0001  0.0000 </r>
       </set>
       <set comment="band 35">
        <r>  0.0024  0.0077  0.0025  0.0044  0.0028  0.0000  0.0002  0.0000  0.0008 </r>
        <r>  0.0024  0.0068  0.0025  0.0053  0.0035  0.0000  0.0002  0.0000  0.0000 </r>
        <r>  0.0001  0.0061  0.0060  0.0027  0.1665  0.0083  0.0040  0.0237  0.0028 </r>
        <r>  0.0001  0.0040  0.0060  0.0048  0.1346  0.0265  0.0040  0.0056  0.0346 </r>
        <r>  0.0001  0.0531  0.0138  0.0059  0.0004  0.0002  0.0006  0.0002  0.0001 </r>
        <r>  0.0021  0.0223  0.0337  0.0024  0.0005  0.0001  0.0008  0.0000  0.0004 </r>
        <r>  0.0001  0.0148  0.0138  0.0442  0.0002  0.0002  0.0006  0.0002  0.0002 </r>
        <r>  0.0021  0.0050  0.0337  0.0197  0.0006  0.0000  0.0008  0.0001  0.0002 </r>
       </set>
       <set comment="band 36">
        <r>  0.0002  0.0019  0.0007  0.0058  0.0002  0.0023  0.0000  0.0032  0.0035 </r>
        <r>  0.0002  0.0043  0.0007  0.0033  0.0001  0.0021  0.0000  0.0034  0.0036 </r>
        <r>  0.0001  0.0066  0.0004  0.0067  0.0028  0.0394  0.0007  0.0584  0.0682 </r>
        <r>  0.0001  0.0041  0.0004  0.0092  0.0055  0.0390  0.0007  0.0588  0.0655 </r>
        <r>  0.0008  0.0434  0.0023  0.0484  0.0001  0.0001  0.0001  0.0000  0.0008 </r>
        <r>  0.0006  0.0398  0.0028  0.0459  0.0003  0.0002  0.0001  0.0002  0.0000 </r>
        <r>  0.0008  0.0300  0.0023  0.0618  0.0004  0.0000  0.0001  0.0001  0.0005 </r>
        <r>  0.0006  0.0288  0.0028  0.0569  0.0002  0.0001  0.0001  0.0003  0.0001 </r>
       </set>
       <set comment="band 37">
        <r>  0.1173  0.0011  0.0102  0.0027  0.0001  0.0008  0.0002  0.0011  0.0000 </r>
        <r>  0.1173  0.0023  0.0102  0.0015  0.0001  0.0012  0.0002  0.0007  0.0000 </r>
        <r>  0.0087  0.0027  0.0056  0.0000  0.0033  0.0019  0.0054  0.0005  0.0002 </r>
        <r>  0.0087  0.0001  0.0056  0.0026  0.0034  0.0002  0.0054  0.0022  0.0001 </r>
        <r>  0.0207  0.0125  0.0142  0.0373  0.0007  0.0000  0.0016  0.0019  0.0003 </r>
        <r>  0.0269  0.0286  0.0211  0.0053  0.0001  0.0002  0.0016  0.0021  0.0005 </r>
        <r>  0.0207  0.0424  0.0142  0.0073  0.0010  0.0018  0.0016  0.0001  0.0000 </r>
        <r>  0.0269  0.0061  0.0211  0.0279  0.0003  0.0022  0.0016  0.0001  0.0003 </r>
       </set>
       <set comment="band 38">
        <r>  0.0908  0.0088  0.0085  0.0106  0.0036  0.0004  0.0011  0.0010  0.0002 </r>
        <r>  0.0908  0.0110  0.0085  0.0085  0.0036  0.0008  0.0011  0.0007  0.0002 </r>
        <r>  0.0009  0.0006  0.0060  0.0009  0.0136  0.0038  0.0087  0.0034  0.0008 </r>
        <r>  0.0009  0.0011  0.0060  0.0005  0.0139  0.0037  0.0087  0.0035  0.0005 </r>
        <r>  0.0087  0.0058  0.0259  0.0064  0.0043  0.0015  0.0039  0.0010  0.0005 </r>
        <r>  0.0092  0.0014  0.0046  0.0336  0.0058  0.0010  0.0011  0.0003  0.0012 </r>
        <r>  0.0087  0.0045  0.0259  0.0077  0.0048  0.0005  0.0039  0.0019  0.0000 </r>
        <r>  0.0092  0.0350  0.0046  0.0000  0.0068  0.0001  0.0011  0.0012  0.0002 </r>
       </set>
       <set comment="band 39">
        <r>  0.0173  0.0061  0.0296  0.0169  0.0052  0.0010  0.0048  0.0018  0.0006 </r>
        <r>  0.0173  0.0126  0.0296  0.0104  0.0057  0.0012  0.0048  0.0016  0.0001 </r>
        <r>  0.0288  0.0027  0.0028  0.0034  0.0056  0.0012  0.0016  0.0030  0.0001 </r>
        <r>  0.0288  0.0046  0.0028  0.0015  0.0047  0.0025  0.0016  0.0018  0.0010 </r>
        <r>  0.0144  0.0068  0.0136  0.0092  0.0028  0.0012  0.0031  0.0070  0.0001 </r>
        <r>  0.0067  0.0040  0.0060  0.0080  0.0027  0.0000  0.0047  0.0051  0.0004 </r>
        <r>  0.0144  0.0121  0.0136  0.0039  0.0026  0.0060  0.0031  0.0021  0.0003 </r>
        <r>  0.0067  0.0099  0.0060  0.0020  0.0018  0.0049  0.0047  0.0002  0.0012 </r>
       </set>
       <set comment="band 40">
        <r>  0.0065  0.0403  0.0291  0.0084  0.0007  0.0011  0.0025  0.0028  0.0002 </r>
        <r>  0.0065  0.0132  0.0291  0.0355  0.0008  0.0020  0.0025  0.0018  0.0001 </r>
        <r>  0.0289  0.0009  0.0033  0.0033  0.0015  0.0049  0.0044  0.0004  0.0003 </r>
        <r>  0.0289  0.0030  0.0033  0.0012  0.0014  0.0000  0.0044  0.0052  0.0004 </r>
        <r>  0.0215  0.0024  0.0023  0.0004  0.0001  0.0050  0.0085  0.0024  0.0001 </r>
        <r>  0.0171  0.0016  0.0240  0.0047  0.0007  0.0040  0.0016  0.0011  0.0000 </r>
        <r>  0.0215  0.0006  0.0023  0.0022  0.0001  0.0011  0.0085  0.0063  0.0001 </r>
        <r>  0.0171  0.0055  0.0240  0.0009  0.0006  0.0004  0.0016  0.0047  0.0001 </r>
       </set>
       <set comment="band 41">
        <r>  0.0292  0.0332  0.0034  0.0289  0.0039  0.0032  0.0021  0.0016  0.0000 </r>
        <r>  0.0292  0.0291  0.0034  0.0330  0.0034  0.0015  0.0021  0.0034  0.0005 </r>
        <r>  0.0034  0.0008  0.0022  0.0040  0.0007  0.0007  0.0032  0.0051  0.0008 </r>
        <r>  0.0034  0.0044  0.0022  0.0004  0.0002  0.0051  0.0032  0.0006  0.0014 </r>
        <r>  0.0008  0.0127  0.0126  0.0007  0.0002  0.0076  0.0010  0.0048  0.0042 </r>
        <r>  0.0041  0.0271  0.0038  0.0307  0.0031  0.0026  0.0026  0.0005  0.0037 </r>
        <r>  0.0008  0.0007  0.0126  0.0127  0.0009  0.0047  0.0010  0.0076  0.0036 </r>
        <r>  0.0041  0.0420  0.0038  0.0158  0.0056  0.0010  0.0026  0.0021  0.0012 </r>
       </set>
       <set comment="band 42">
        <r>  0.0116  0.0315  0.0019  0.0376  0.0027  0.0045  0.0023  0.0007  0.0014 </r>
        <r>  0.0116  0.0502  0.0019  0.0189  0.0022  0.0002  0.0023  0.0049  0.0020 </r>
        <r>  0.0266  0.0017  0.0035  0.0020  0.0043  0.0007  0.0028  0.0027  0.0027 </r>
        <r>  0.0266  0.0025  0.0035  0.0012  0.0062  0.0021  0.0028  0.0013  0.0008 </r>
        <r>  0.0090  0.0083  0.0110  0.0140  0.0018  0.0000  0.0005  0.0019  0.0026 </r>
        <r>  0.0043  0.0148  0.0022  0.0093  0.0168  0.0004  0.0043  0.0007  0.0029 </r>
        <r>  0.0090  0.0180  0.0110  0.0043  0.0008  0.0018  0.0005  0.0002  0.0036 </r>
        <r>  0.0043  0.0141  0.0022  0.0099  0.0126  0.0006  0.0043  0.0005  0.0071 </r>
       </set>
       <set comment="band 43">
        <r>  0.0014  0.0202  0.0181  0.0759  0.0019  0.0004  0.0014  0.0026  0.0059 </r>
        <r>  0.0014  0.0647  0.0181  0.0314  0.0004  0.0028  0.0014  0.0001  0.0074 </r>
        <r>  0.0049  0.0075  0.0017  0.0069  0.0012  0.0001  0.0013  0.0017  0.0011 </r>
        <r>  0.0049  0.0051  0.0017  0.0093  0.0004  0.0017  0.0013  0.0002  0.0019 </r>
        <r>  0.0018  0.0018  0.0209  0.0047  0.0020  0.0001  0.0023  0.0045  0.0014 </r>
        <r>  0.0048  0.0014  0.0023  0.0047  0.0033  0.0011  0.0013  0.0087  0.0164 </r>
        <r>  0.0018  0.0048  0.0209  0.0017  0.0009  0.0045  0.0023  0.0000  0.0025 </r>
        <r>  0.0048  0.0052  0.0023  0.0009  0.0003  0.0073  0.0013  0.0025  0.0194 </r>
       </set>
       <set comment="band 44">
        <r>  0.0064  0.0218  0.0717  0.0032  0.0006  0.0007  0.0027  0.0003  0.0020 </r>
        <r>  0.0064  0.0023  0.0717  0.0227  0.0002  0.0002  0.0027  0.0009  0.0025 </r>
        <r>  0.0224  0.0028  0.0073  0.0003  0.0003  0.0016  0.0033  0.0019  0.0018 </r>
        <r>  0.0224  0.0003  0.0073  0.0028  0.0009  0.0025  0.0033  0.0009  0.0012 </r>
        <r>  0.0004  0.0062  0.0374  0.0036  0.0004  0.0040  0.0116  0.0052  0.0015 </r>
        <r>  0.0070  0.0009  0.0133  0.0058  0.0037  0.0000  0.0071  0.0027  0.0037 </r>
        <r>  0.0004  0.0053  0.0374  0.0044  0.0012  0.0060  0.0116  0.0032  0.0008 </r>
        <r>  0.0070  0.0062  0.0133  0.0005  0.0062  0.0025  0.0071  0.0002  0.0012 </r>
       </set>
       <set comment="band 45">
        <r>  0.0013  0.0175  0.0070  0.0071  0.0043  0.0005  0.0007  0.0005  0.0040 </r>
        <r>  0.0013  0.0114  0.0070  0.0132  0.0067  0.0004  0.0007  0.0006  0.0017 </r>
        <r>  0.0228  0.0189  0.0063  0.0151  0.0013  0.0012  0.0008  0.0002  0.0022 </r>
        <r>  0.0228  0.0219  0.0063  0.0121  0.0018  0.0003  0.0008  0.0011  0.0017 </r>
        <r>  0.0035  0.0001  0.0110  0.0048  0.0142  0.0002  0.0018  0.0010  0.0079 </r>
        <r>  0.0008  0.0232  0.0016  0.0101  0.0057  0.0008  0.0049  0.0016  0.0078 </r>
        <r>  0.0035  0.0046  0.0110  0.0003  0.0168  0.0008  0.0018  0.0004  0.0054 </r>
        <r>  0.0008  0.0167  0.0016  0.0166  0.0074  0.0015  0.0049  0.0009  0.0061 </r>
       </set>
       <set comment="band 46">
        <r>  0.0000  0.0126  0.0029  0.0111  0.0012  0.0036  0.0025  0.0037  0.0001 </r>
        <r>  0.0000  0.0067  0.0029  0.0171  0.0012  0.0051  0.0025  0.0022  0.0002 </r>
        <r>  0.0641  0.0161  0.0009  0.0097  0.0025  0.0040  0.0001  0.0007  0.0026 </r>
        <r>  0.0641  0.0052  0.0009  0.0206  0.0024  0.0008  0.0001  0.0039  0.0026 </r>
        <r>  0.0014  0.0159  0.0053  0.0087  0.0109  0.0058  0.0004  0.0019  0.0119 </r>
        <r>  0.0029  0.0102  0.0077  0.0038  0.0029  0.0085  0.0007  0.0053  0.0016 </r>
        <r>  0.0014  0.0112  0.0053  0.0134  0.0063  0.0017  0.0004  0.0060  0.0165 </r>
        <r>  0.0029  0.0061  0.0077  0.0079  0.0028  0.0052  0.0007  0.0087  0.0017 </r>
       </set>
       <set comment="band 47">
        <r>  0.0114  0.0288  0.0058  0.0224  0.0000  0.0002  0.0013  0.0037  0.0042 </r>
        <r>  0.0114  0.0137  0.0058  0.0375  0.0009  0.0038  0.0013  0.0001  0.0033 </r>
        <r>  0.0176  0.0096  0.0153  0.0017  0.0007  0.0012  0.0000  0.0003  0.0014 </r>
        <r>  0.0176  0.0035  0.0153  0.0077  0.0008  0.0005  0.0000  0.0009  0.0013 </r>
        <r>  0.0036  0.0057  0.0102  0.0266  0.0062  0.0027  0.0008  0.0062  0.0015 </r>
        <r>  0.0012  0.0190  0.0131  0.0127  0.0013  0.0056  0.0065  0.0097  0.0002 </r>
        <r>  0.0036  0.0285  0.0102  0.0037  0.0068  0.0077  0.0008  0.0012  0.0009 </r>
        <r>  0.0012  0.0071  0.0131  0.0247  0.0008  0.0122  0.0065  0.0031  0.0007 </r>
       </set>
       <set comment="band 48">
        <r>  0.0033  0.0070  0.0225  0.0029  0.0014  0.0012  0.0012  0.0010  0.0043 </r>
        <r>  0.0033  0.0049  0.0225  0.0051  0.0004  0.0007  0.0012  0.0016  0.0053 </r>
        <r>  0.0145  0.0094  0.0027  0.0263  0.0023  0.0014  0.0020  0.0024  0.0035 </r>
        <r>  0.0145  0.0209  0.0027  0.0148  0.0010  0.0028  0.0020  0.0010  0.0048 </r>
        <r>  0.0001  0.0118  0.0096  0.0035  0.0047  0.0110  0.0038  0.0019  0.0096 </r>
        <r>  0.0030  0.0008  0.0225  0.0134  0.0001  0.0169  0.0011  0.0016  0.0002 </r>
        <r>  0.0001  0.0053  0.0095  0.0100  0.0063  0.0030  0.0038  0.0099  0.0079 </r>
        <r>  0.0030  0.0119  0.0225  0.0023  0.0000  0.0029  0.0011  0.0155  0.0002 </r>
       </set>
      </set>
     </set>
    </set>
   </array>
  </projected>
 </calculation>
 <structure name="finalpos" >
  <crystal>
   <varray name="basis" >
    <v>       5.10874036       0.00000000      -2.30030869 </v>
    <v>      -1.03575852       5.00264257      -2.30030916 </v>
    <v>       0.00000000       0.00000000       6.82313837 </v>
   </varray>
   <i name="volume">    174.38032574 </i>
   <varray name="rec_basis" >
    <v>       0.19574297       0.04052707       0.00000000 </v>
    <v>       0.00000000       0.19989435       0.00000000 </v>
    <v>       0.06599152       0.08105414       0.14656012 </v>
   </varray>
  </crystal>
  <varray name="positions" >
   <v>       0.50000000       0.50000000       0.00000000 </v>
   <v>       0.75000000       0.25000000       0.50000000 </v>
   <v>       0.00000000       0.00000000       0.00000000 </v>
   <v>       0.25000000       0.75000000       0.50000000 </v>
   <v>       0.37121578       0.37500000       0.25000000 </v>
   <v>       0.12500000       0.62878422       0.75000000 </v>
   <v>       0.62500000       0.12121578       0.75000000 </v>
   <v>       0.87878422       0.87500000       0.25000000 </v>
  </varray>
 </structure>
</modeling>
