 vasp.6.4.2 20Jul23 (build Mar 15 2024 16:31:38) complex                        
  
 executed on             LinuxIFC date 2025.03.19  11:24:35
 running  120 mpi-ranks, on    3 nodes
 distrk:  each k-point on  120 cores,    1 groups
 distr:  one band on NCORE=  10 cores,   12 groups


--------------------------------------------------------------------------------------------------------


 INCAR:
   ALGO = Normal
   EDIFF = 1e-05
   ENAUG = 1360
   ENCUT = 680
   GGA = Pe
   HFSCREEN = 0.2
   ISMEAR = -5
   ISPIN = 2
   LAECHG = True
   LASPH = True
   LCHARG = True
   LDAU = False
   LELF = False
   LHFCALC = True
   LMAXMIX = 4
   LMIXTAU = True
   LORBIT = 11
   LREAL = False
   LVTOT = True
   LWAVE = True
   MAGMOM = 8*0.6
   NCORE = 10
   NELM = 200
   NSW = 0
   PREC = Accurate
   PRECFOCK = Fast
   SIGMA = 0.2

 POTCAR:    PAW_PBE Sn_d 06Sep2000                
 POTCAR:    PAW_PBE S 06Sep2000                   
 WARNING: For LVTOT=.TRUE., VASP.5.x writes the TOTAL local potential to the
     file LOCPOT. If you want only the Hartree contributions, use LVHAR=.TRUE.
     instead. 

 POTCAR:    PAW_PBE Sn_d 06Sep2000                
   VRHFIN =Sn: s2p2                                                                                 
   LEXCH  = PE                                                                                      
   EATOM  =  1893.1092 eV,  139.1396 Ry                                                             
                                                                                                    
   TITEL  = PAW_PBE Sn_d 06Sep2000                                                                  
   LULTRA =        F    use ultrasoft PP ?                                                          
   IUNSCR =        1    unscreen: 0-lin 1-nonlin 2-no                                               
   RPACOR =    2.300    partial core radius                                                         
   POMASS =  118.710; ZVAL   =   14.000    mass and valenz                                          
   RCORE  =    2.500    outmost cutoff radius                                                       
   RWIGS  =    2.960; RWIGS  =    1.566    wigner-seitz radius (au A)                               
   ENMAX  =  241.083; ENMIN  =  180.812 eV                                                          
   ICORE  =        3    local potential                                                             
   LCOR   =        T    correct aug charges                                                         
   LPAW   =        T    paw PP                                                                      
   EAUG   =  439.825                                                                                
   DEXC   =    0.000                                                                                
   RMAX   =    2.560    core radius for proj-oper                                                   
   RAUG   =    1.300    factor for augmentation sphere                                              
   RDEP   =    2.659    radius for radial grids                                                     
   RDEPT  =    2.046    core radius for aug-charge                                                  
                                                                                                    
   Atomic configuration                                                                             
   12 entries                                                                                       
     n  l   j            E        occ.                                                              
     1  0  0.50    -29007.2859   2.0000                                                             
     2  0  0.50     -4378.8056   2.0000                                                             
     2  1  1.50     -3930.4293   6.0000                                                             
     3  0  0.50      -845.0264   2.0000                                                             
     3  1  1.50      -698.5725   6.0000                                                             
     3  2  2.50      -473.2839  10.0000                                                             
     4  0  0.50      -133.9036   2.0000                                                             
     4  1  1.50       -89.6752   6.0000                                                             
     4  2  2.50       -25.8375  10.0000                                                             
     5  0  0.50       -10.5484   2.0000                                                             
     5  1  0.50        -3.6940   2.0000                                                             
     4  3  2.50        -2.7416   0.0000                                                             
   Description                                                                                      
     l       E           TYP  RCUT    TYP  RCUT                                                     
     2    -25.8374624     23  2.500                                                                 
     2     -5.4423304     23  2.500                                                                 
     0    -10.5483727     23  2.500                                                                 
     0     13.6058260     23  2.500                                                                 
     1     -3.6939829     23  2.500                                                                 
     1      1.9821976     23  2.500                                                                 
     3     -1.3605826      7  2.500                                                                 
  local pseudopotential read in
  partial core-charges read in
  partial kinetic energy density read in
  atomic valenz-charges read in
  non local Contribution for L=           2  read in
    real space projection operators read in
  non local Contribution for L=           2  read in
    real space projection operators read in
  non local Contribution for L=           0  read in
    real space projection operators read in
  non local Contribution for L=           0  read in
    real space projection operators read in
  non local Contribution for L=           1  read in
    real space projection operators read in
  non local Contribution for L=           1  read in
    real space projection operators read in
    PAW grid and wavefunctions read in
 
   number of l-projection  operators is LMAX  =           6
   number of lm-projection operators is LMMAX =          18
 
 POTCAR:    PAW_PBE S 06Sep2000                   
   VRHFIN =S : s2p4                                                                                 
   LEXCH  = PE                                                                                      
   EATOM  =   276.8230 eV,   20.3459 Ry                                                             
                                                                                                    
   TITEL  = PAW_PBE S 06Sep2000                                                                     
   LULTRA =        F    use ultrasoft PP ?                                                          
   IUNSCR =        1    unscreen: 0-lin 1-nonlin 2-no                                               
   RPACOR =    1.500    partial core radius                                                         
   POMASS =   32.066; ZVAL   =    6.000    mass and valenz                                          
   RCORE  =    1.900    outmost cutoff radius                                                       
   RWIGS  =    2.200; RWIGS  =    1.164    wigner-seitz radius (au A)                               
   ENMAX  =  258.689; ENMIN  =  194.016 eV                                                          
   ICORE  =        2    local potential                                                             
   LCOR   =        T    correct aug charges                                                         
   LPAW   =        T    paw PP                                                                      
   EAUG   =  335.092                                                                                
   DEXC   =    0.000                                                                                
   RMAX   =    1.942    core radius for proj-oper                                                   
   RAUG   =    1.300    factor for augmentation sphere                                              
   RDEP   =    1.954    radius for radial grids                                                     
   RDEPT  =    1.744    core radius for aug-charge                                                  
                                                                                                    
   Atomic configuration                                                                             
    6 entries                                                                                       
     n  l   j            E        occ.                                                              
     1  0  0.50     -2405.8406   2.0000                                                             
     2  0  0.50      -211.7007   2.0000                                                             
     2  1  1.50      -156.4958   6.0000                                                             
     3  0  0.50       -17.2562   2.0000                                                             
     3  1  0.50        -7.0085   4.0000                                                             
     3  2  1.50        -6.8029   0.0000                                                             
   Description                                                                                      
     l       E           TYP  RCUT    TYP  RCUT                                                     
     0    -17.2561641     23  1.900                                                                 
     0    -15.8743224     23  1.900                                                                 
     1     -7.0085400     23  1.900                                                                 
     1     -2.7779785     23  1.900                                                                 
     2     -6.8029130     23  1.900                                                                 
  local pseudopotential read in
  partial core-charges read in
  partial kinetic energy density read in
  atomic valenz-charges read in
  non local Contribution for L=           0  read in
    real space projection operators read in
  non local Contribution for L=           0  read in
    real space projection operators read in
  non local Contribution for L=           1  read in
    real space projection operators read in
  non local Contribution for L=           1  read in
    real space projection operators read in
    PAW grid and wavefunctions read in
 
   number of l-projection  operators is LMAX  =           4
   number of lm-projection operators is LMMAX =           8
 
  PAW_PBE Sn_d 06Sep2000                :
 energy of atom  1       EATOM=-1893.1092
 kinetic energy error for atom=    0.0008 (will be added to EATOM!!)
  PAW_PBE S 06Sep2000                   :
 energy of atom  2       EATOM= -276.8230
 kinetic energy error for atom=    0.0008 (will be added to EATOM!!)
 
 
 POSCAR: Sn4 S4
  positions in direct lattice
  No initial velocities read in
 exchange correlation table for  LEXCH =        8
   RHO(1)=    0.500       N(1)  =     2000
   RHO(2)=  100.500       N(2)  =     4000
 


--------------------------------------------------------------------------------------------------------


 ion  position               nearest neighbor table
   1  0.250  0.370  0.622-   8 2.63   6 2.65   6 2.65   2 3.60   2 3.60
   2  0.750  0.630  0.378-   7 2.63   5 2.65   5 2.65   1 3.60   1 3.60
   3  0.750  0.870  0.878-   6 2.63   8 2.65   8 2.65   4 3.60   4 3.60
   4  0.250  0.130  0.122-   5 2.63   7 2.65   7 2.65   3 3.60   3 3.60
   5  0.250  0.011  0.347-   4 2.63   2 2.65   2 2.65
   6  0.750  0.989  0.653-   3 2.63   1 2.65   1 2.65
   7  0.750  0.511  0.153-   2 2.63   4 2.65   4 2.65
   8  0.250  0.489  0.847-   1 2.63   3 2.65   3 2.65
 
  LATTYP: Found a simple orthorhombic cell.
 ALAT       =     3.9568552100
 B/A-ratio  =     1.1455588970
 C/A-ratio  =     2.8790587235
  
  Lattice vectors:
  
 A1 = (   3.9568552100,   0.0000000000,   0.0000000000)
 A2 = (  -0.0000000000,   4.5328106900,   0.0000000000)
 A3 = (   0.0000000000,   0.0000000000,  11.3920185100)


Analysis of symmetry for initial positions (statically):
=====================================================================
 Subroutine PRICEL returns:
 Original cell was already a primitive cell.
 

 Routine SETGRP: Setting up the symmetry group for a 
 simple orthorhombic supercell.


 Subroutine GETGRP returns: Found  8 space group operations
 (whereof  2 operations were pure point group operations)
 out of a pool of  8 trial point group operations.


The static configuration has the point symmetry S_2 .
 The point group associated with its full space group is D_2h.


Analysis of symmetry for dynamics (positions and initial velocities):
=====================================================================
 Subroutine PRICEL returns:
 Original cell was already a primitive cell.
 

 Routine SETGRP: Setting up the symmetry group for a 
 simple orthorhombic supercell.


 Subroutine GETGRP returns: Found  8 space group operations
 (whereof  2 operations were pure point group operations)
 out of a pool of  8 trial point group operations.


The dynamic configuration has the point symmetry S_2 .
 The point group associated with its full space group is D_2h.


Analysis of structural, dynamic, and magnetic symmetry:
=====================================================================
 Subroutine PRICEL returns:
 Original cell was already a primitive cell.
 

 Routine SETGRP: Setting up the symmetry group for a 
 simple orthorhombic supercell.


 Subroutine GETGRP returns: Found  8 space group operations
 (whereof  2 operations were pure point group operations)
 out of a pool of  8 trial point group operations.


The overall configuration has the point symmetry S_2 .
 The point group associated with its full space group is D_2h.


 Subroutine INISYM returns: Found  8 space group operations
 (whereof  2 operations are pure point group operations),
 and found     1 'primitive' translations


----------------------------------------------------------------------------------------

                                     Primitive cell                                     

  volume of cell :     204.3235

  direct lattice vectors                    reciprocal lattice vectors
     3.956855210  0.000000000  0.000000000     0.252725952  0.000000000  0.000000000
    -0.000000000  4.532810690  0.000000000     0.000000000  0.220613670  0.000000000
     0.000000000  0.000000000 11.392018510    -0.000000000 -0.000000000  0.087780756

  length of vectors
     3.956855210  4.532810690 11.392018510     0.252725952  0.220613670  0.087780756

  position of ions in fractional coordinates (direct lattice)
     0.250000000  0.369539840  0.621632750
     0.750000000  0.630460160  0.378367250
     0.750000000  0.869539840  0.878367250
     0.250000000  0.130460160  0.121632750
     0.250000000  0.010596800  0.347497460
     0.750000000  0.989403200  0.652502540
     0.750000000  0.510596800  0.152502540
     0.250000000  0.489403200  0.847497460

  ion indices of the primitive-cell ions
   primitive index   ion index
                 1           1
                 2           2
                 3           3
                 4           4
                 5           5
                 6           6
                 7           7
                 8           8

----------------------------------------------------------------------------------------

 
 
 KPOINTS: pymatgen with grid density = 622 / numbe

Automatic generation of k-mesh.
 Grid dimensions read from file:
 generate k-points for:    6    5    2

 Generating k-lattice:

  Cartesian coordinates                     Fractional coordinates (reciprocal lattice)
     0.042120992  0.000000000  0.000000000     0.166666667 -0.000000000  0.000000000
     0.000000000  0.044122734  0.000000000     0.000000000  0.200000000  0.000000000
    -0.000000000 -0.000000000  0.043890378     0.000000000 -0.000000000  0.500000000

  Length of vectors
     0.042120992  0.044122734  0.043890378

  Shift w.r.t. Gamma in fractional coordinates (k-lattice)
     0.000000000  0.000000000  0.000000000

 TETIRR: Found    180 inequivalent tetrahedra from      360
 
 Subroutine IBZKPT returns following result:
 ===========================================
 
 Found     24 irreducible k-points:
 
 Following reciprocal coordinates:
            Coordinates               Weight
  0.000000  0.000000  0.000000      1.000000
  0.166667 -0.000000  0.000000      2.000000
  0.333333 -0.000000  0.000000      2.000000
  0.500000 -0.000000  0.000000      1.000000
  0.000000  0.200000  0.000000      2.000000
  0.166667  0.200000  0.000000      4.000000
  0.333333  0.200000  0.000000      4.000000
  0.500000  0.200000  0.000000      2.000000
  0.000000  0.400000  0.000000      2.000000
  0.166667  0.400000  0.000000      4.000000
  0.333333  0.400000  0.000000      4.000000
  0.500000  0.400000  0.000000      2.000000
 -0.000000  0.000000  0.500000      1.000000
  0.166667 -0.000000  0.500000      2.000000
  0.333333 -0.000000  0.500000      2.000000
  0.500000 -0.000000  0.500000      1.000000
 -0.000000  0.200000  0.500000      2.000000
  0.166667  0.200000  0.500000      4.000000
  0.333333  0.200000  0.500000      4.000000
  0.500000  0.200000  0.500000      2.000000
 -0.000000  0.400000  0.500000      2.000000
  0.166667  0.400000  0.500000      4.000000
  0.333333  0.400000  0.500000      4.000000
  0.500000  0.400000  0.500000      2.000000
 
 Following cartesian coordinates:
            Coordinates               Weight
  0.000000  0.000000  0.000000      1.000000
  0.042121  0.000000  0.000000      2.000000
  0.084242  0.000000  0.000000      2.000000
  0.126363  0.000000  0.000000      1.000000
  0.000000  0.044123  0.000000      2.000000
  0.042121  0.044123  0.000000      4.000000
  0.084242  0.044123  0.000000      4.000000
  0.126363  0.044123  0.000000      2.000000
  0.000000  0.088245  0.000000      2.000000
  0.042121  0.088245  0.000000      4.000000
  0.084242  0.088245  0.000000      4.000000
  0.126363  0.088245  0.000000      2.000000
 -0.000000 -0.000000  0.043890      1.000000
  0.042121 -0.000000  0.043890      2.000000
  0.084242  0.000000  0.043890      2.000000
  0.126363  0.000000  0.043890      1.000000
 -0.000000  0.044123  0.043890      2.000000
  0.042121  0.044123  0.043890      4.000000
  0.084242  0.044123  0.043890      4.000000
  0.126363  0.044123  0.043890      2.000000
 -0.000000  0.088245  0.043890      2.000000
  0.042121  0.088245  0.043890      4.000000
  0.084242  0.088245  0.043890      4.000000
  0.126363  0.088245  0.043890      2.000000
 
 
 Subroutine IBZKPT_HF returns following result:
 ==============================================
 
 Found     60 k-points in 1st BZ
 the following     60 k-points will be used (e.g. in the exchange kernel)
 Following reciprocal coordinates:   # in IRBZ
  0.000000  0.000000  0.000000    0.01666667   1 t-inv F
  0.166667 -0.000000  0.000000    0.01666667   2 t-inv F
  0.333333 -0.000000  0.000000    0.01666667   3 t-inv F
  0.500000 -0.000000  0.000000    0.01666667   4 t-inv F
  0.000000  0.200000  0.000000    0.01666667   5 t-inv F
  0.166667  0.200000  0.000000    0.01666667   6 t-inv F
  0.333333  0.200000  0.000000    0.01666667   7 t-inv F
  0.500000  0.200000  0.000000    0.01666667   8 t-inv F
  0.000000  0.400000  0.000000    0.01666667   9 t-inv F
  0.166667  0.400000  0.000000    0.01666667  10 t-inv F
  0.333333  0.400000  0.000000    0.01666667  11 t-inv F
  0.500000  0.400000  0.000000    0.01666667  12 t-inv F
 -0.000000  0.000000  0.500000    0.01666667  13 t-inv F
  0.166667 -0.000000  0.500000    0.01666667  14 t-inv F
  0.333333 -0.000000  0.500000    0.01666667  15 t-inv F
  0.500000 -0.000000  0.500000    0.01666667  16 t-inv F
 -0.000000  0.200000  0.500000    0.01666667  17 t-inv F
  0.166667  0.200000  0.500000    0.01666667  18 t-inv F
  0.333333  0.200000  0.500000    0.01666667  19 t-inv F
  0.500000  0.200000  0.500000    0.01666667  20 t-inv F
 -0.000000  0.400000  0.500000    0.01666667  21 t-inv F
  0.166667  0.400000  0.500000    0.01666667  22 t-inv F
  0.333333  0.400000  0.500000    0.01666667  23 t-inv F
  0.500000  0.400000  0.500000    0.01666667  24 t-inv F
 -0.166667  0.000000  0.000000    0.01666667   2 t-inv F
 -0.333333  0.000000  0.000000    0.01666667   3 t-inv F
  0.000000 -0.200000  0.000000    0.01666667   5 t-inv F
 -0.166667 -0.200000  0.000000    0.01666667   6 t-inv F
 -0.166667  0.200000  0.000000    0.01666667   6 t-inv F
  0.166667 -0.200000  0.000000    0.01666667   6 t-inv F
 -0.333333 -0.200000  0.000000    0.01666667   7 t-inv F
 -0.333333  0.200000  0.000000    0.01666667   7 t-inv F
  0.333333 -0.200000  0.000000    0.01666667   7 t-inv F
 -0.500000 -0.200000  0.000000    0.01666667   8 t-inv F
  0.000000 -0.400000  0.000000    0.01666667   9 t-inv F
 -0.166667 -0.400000  0.000000    0.01666667  10 t-inv F
 -0.166667  0.400000  0.000000    0.01666667  10 t-inv F
  0.166667 -0.400000  0.000000    0.01666667  10 t-inv F
 -0.333333 -0.400000  0.000000    0.01666667  11 t-inv F
 -0.333333  0.400000  0.000000    0.01666667  11 t-inv F
  0.333333 -0.400000  0.000000    0.01666667  11 t-inv F
 -0.500000 -0.400000  0.000000    0.01666667  12 t-inv F
 -0.166667  0.000000 -0.500000    0.01666667  14 t-inv F
 -0.333333  0.000000 -0.500000    0.01666667  15 t-inv F
  0.000000 -0.200000 -0.500000    0.01666667  17 t-inv F
 -0.166667 -0.200000 -0.500000    0.01666667  18 t-inv F
 -0.166667  0.200000 -0.500000    0.01666667  18 t-inv F
  0.166667 -0.200000  0.500000    0.01666667  18 t-inv F
 -0.333333 -0.200000 -0.500000    0.01666667  19 t-inv F
 -0.333333  0.200000 -0.500000    0.01666667  19 t-inv F
  0.333333 -0.200000  0.500000    0.01666667  19 t-inv F
 -0.500000 -0.200000 -0.500000    0.01666667  20 t-inv F
  0.000000 -0.400000 -0.500000    0.01666667  21 t-inv F
 -0.166667 -0.400000 -0.500000    0.01666667  22 t-inv F
 -0.166667  0.400000 -0.500000    0.01666667  22 t-inv F
  0.166667 -0.400000  0.500000    0.01666667  22 t-inv F
 -0.333333 -0.400000 -0.500000    0.01666667  23 t-inv F
 -0.333333  0.400000 -0.500000    0.01666667  23 t-inv F
  0.333333 -0.400000  0.500000    0.01666667  23 t-inv F
 -0.500000 -0.400000 -0.500000    0.01666667  24 t-inv F


--------------------------------------------------------------------------------------------------------




 Dimension of arrays:
   k-points           NKPTS =     24   k-points in BZ     NKDIM =     60   number of bands    NBANDS=     60
   number of dos      NEDOS =    301   number of ions     NIONS =      8
   non local maximal  LDIM  =      6   non local SUM 2l+1 LMDIM =     18
   total plane-waves  NPLWV = 141120
   max r-space proj   IRMAX =      1   max aug-charges    IRDMAX=  31040
   dimension x,y,z NGX =    36 NGY =   40 NGZ =   98
   dimension x,y,z NGXF=    72 NGYF=   80 NGZF=  196
   support grid    NGXF=    72 NGYF=   80 NGZF=  196
   ions per type =               4   4
   NGX,Y,Z   is equivalent  to a cutoff of  15.13, 14.67, 14.30 a.u.
   NGXF,Y,Z  is equivalent  to a cutoff of  30.25, 29.34, 28.60 a.u.

 SYSTEM =  unknown system                          
 POSCAR =  Sn4 S4                                  

 Startparameter for this run:
   NWRITE =      2    write-flag & timer
   PREC   = accura    normal or accurate (medium, high low for compatibility)
   ISTART =      0    job   : 0-new  1-cont  2-samecut
   ICHARG =      2    charge: 1-file 2-atom 10-const
   ISPIN  =      2    spin polarized calculation?
   LNONCOLLINEAR =      F non collinear calculations
   LSORBIT =      F    spin-orbit coupling
   INIWAV =      1    electr: 0-lowe 1-rand  2-diag
   LASPH  =      T    aspherical Exc in radial PAW
 Electronic Relaxation 1
   ENCUT  =  680.0 eV  49.98 Ry    7.07 a.u.   8.41  9.64 24.22*2*pi/ulx,y,z
   ENINI  =  680.0     initial cutoff
   ENAUG  = 1360.0 eV  augmentation charge cutoff
   NELM   =    200;   NELMIN=  2; NELMDL= -5     # of ELM steps 
   EDIFF  = 0.1E-04   stopping-criterion for ELM
   LREAL  =      F    real-space projection
   NLSPLINE    = F    spline interpolate recip. space projectors
   LCOMPAT=      F    compatible to vasp.4.4
   GGA_COMPAT  = T    GGA compatible to vasp.4.4-vasp.4.6
   LMAXPAW     = -100 max onsite density
   LMAXMIX     =    4 max onsite mixed and CHGCAR
   VOSKOWN=      0    Vosko Wilk Nusair interpolation
   ROPT   =    0.00000   0.00000
 Ionic relaxation
   EDIFFG = 0.1E-03   stopping-criterion for IOM
   NSW    =      0    number of steps for IOM
   NBLOCK =      1;   KBLOCK =      1    inner block; outer block 
   IBRION =     -1    ionic relax: 0-MD 1-quasi-New 2-CG
   NFREE  =      0    steps in history (QN), initial steepest desc. (CG)
   ISIF   =      0    stress and relaxation
   IWAVPR =     10    prediction:  0-non 1-charg 2-wave 3-comb
   ISYM   =      3    0-nonsym 1-usesym 2-fastsym
   LCORR  =      T    Harris-Foulkes like correction to forces

   POTIM  = 0.5000    time-step for ionic-motion
   TEIN   =    0.0    initial temperature
   TEBEG  =    0.0;   TEEND  =   0.0 temperature during run
   SMASS  =  -3.00    Nose mass-parameter (am)
   estimated Nose-frequenzy (Omega)   =  0.10E-29 period in steps = 0.13E+47 mass=  -0.358E-27a.u.
   SCALEE = 1.0000    scale energy and forces
   NPACO  =    256;   APACO  = 10.0  distance and # of slots for P.C.
   PSTRESS=    0.0 pullay stress

  Mass of Ions in am
   POMASS = 118.71 32.07
  Ionic Valenz
   ZVAL   =  14.00  6.00
  Atomic Wigner-Seitz radii
   RWIGS  =  -1.00 -1.00
  virtual crystal weights 
   VCA    =   1.00  1.00
   NELECT =      80.0000    total number of electrons
   NUPDOWN=      -1.0000    fix difference up-down

 DOS related values:
   EMIN   =  10.00;   EMAX   =-10.00  energy-range for DOS
   EFERMI =   0.00;   METHOD = LEGACY      
   ISMEAR =    -5;   SIGMA  =   0.20  broadening in eV -4-tet -1-fermi 0-gaus

 Electronic relaxation 2 (details)
   IALGO  =     38    algorithm
   LDIAG  =      T    sub-space diagonalisation (order eigenvalues)
   LSUBROT=      F    optimize rotation matrix (better conditioning)
   TURBO    =      0    0=normal 1=particle mesh
   IRESTART =      0    0=no restart 2=restart with 2 vectors
   NREBOOT  =      0    no. of reboots
   NMIN     =      0    reboot dimension
   EREF     =   0.00    reference energy to select bands
   IMIX   =      1    mixing-type and parameters
     AMIX     =   0.40;   BMIX     =  1.00
     AMIX_MAG =   1.60;   BMIX_MAG =  1.00
     AMIN     =   0.10
     WC   =   100.;   INIMIX=   1;  MIXPRE=   1;  MAXMIX= -45

 Intra band minimization:
   WEIMIN = 0.0000     energy-eigenvalue tresh-hold
   EBREAK =  0.42E-07  absolut break condition
   DEPER  =   0.30     relativ break condition  

   TIME   =   0.40     timestep for ELM

  volume/ion in A,a.u.               =      25.54       172.36
  Fermi-wavevector in a.u.,A,eV,Ry     =   1.197656  2.263241 19.515916  1.434379
  Thomas-Fermi vector in A             =   2.333565
 
 Write flags
   LWAVE        =      T    write WAVECAR
   LDOWNSAMPLE  =      F    k-point downsampling of WAVECAR
   LCHARG       =      T    write CHGCAR
   LVTOT        =      T    write LOCPOT, total local potential
   LVHAR        =      F    write LOCPOT, Hartree potential only
   LELF         =      F    write electronic localiz. function (ELF)
   LORBIT       =     11    0 simple, 1 ext, 2 COOP (PROOUT), +10 PAW based schemes


 Dipole corrections
   LMONO  =      F    monopole corrections only (constant potential shift)
   LDIPOL =      F    correct potential (dipole corrections)
   IDIPOL =      0    1-x, 2-y, 3-z, 4-all directions 
   EPSILON=  1.0000000 bulk dielectric constant

 Exchange correlation treatment:
   GGA     =    PE    GGA type
   LEXCH   =     8    internal setting for exchange type
   LIBXC   =     F    Libxc                    
   VOSKOWN =     0    Vosko Wilk Nusair interpolation
   EXXOEP  =     0    0=HF, 1=EXX-LHF (local Hartree Fock) 2=EXX OEP
   LHFCALC =     T    Hartree Fock is set to
   LSYMGRAD=     F    symmetrize gradient (conserves proper symmetry)
   PRECFOCK=fast      Normal, Fast or Accurate (Low or Medium for compatibility)
   LRHFCALC=     F    long range Hartree Fock
   LRSCOR  =     F    long range correlation only (use DFT for short range part)
   LTHOMAS =     F    Thomas Fermi screening in HF
   LMODELHF=     F    short range full HF, long range fraction AEXX
   FOCKCORR=     1    mode to apply convergence corrections
   LFOCKACE=     T    use Adeptively-Compressed-Exchange operator
   ENCUT4O =  -1.0   cutoff for four orbital integrals eV
   LMAXFOCK=     4    L truncation for augmentation on plane wave grid
   LMAXFOCKAE=  -1    L truncation for all-electron charge restoration on plane wave grid
   NMAXFOCKAE=   1    number of basis functions for all-electron charge restoration
   LFOCKAEDFT=     F  apply the AE augmentation even for DFT
   NKREDX  =     1    reduce k-point grid by
   NKREDY  =     1    reduce k-point grid by
   NKREDZ  =     1    reduce k-point grid by
   SHIFTRED=     F    shift reduced grid of Gamma
   HFKIDENT=     F    idential grid for each k-point
   ODDONLY =     F    use only odd q-grid points
   EVENONLY=     F    use only even q-grid points
   HFALPHA =   -1.0000 decay constant for conv. correction
   MCALPHA =    0.0000 extent of test-charge in conv. correction in multipole expansion
   AEXX    =    0.2500 exact exchange contribution
   HFSCREEN=    0.2000 screening length (either q_TF or 0.3 A-1)
   HFSCREENC=   0.2000 screening length for correlation (either q_TF or 0.3 A-1)
   HFRCUT  =    0.0000 spherical cutoff for potential kernel
   ALDAX   =    0.7500 LDA exchange part
   AGGAX   =    0.7500 GGA exchange part
   ALDAC   =    1.0000 LDA correlation
   AGGAC   =    1.0000 GGA correlation
   ENCUTFOCK=  -1.0 apply spherical cutoff to Coloumb kernel
   NBANDSGWLOW=     1    first orbital included in HF term
   NBLOCK_FOCK=    64    blocking factor in FOCK_ACC

 Linear response parameters
   LEPSILON=     F    determine dielectric tensor
   LRPA    =     F    only Hartree local field effects (RPA)
   LNABLA  =     F    use nabla operator in PAW spheres
   LVEL    =     F    velocity operator in full k-point grid
   CSHIFT  =0.1000    complex shift for real part using Kramers Kronig
   OMEGAMAX=  -1.0    maximum frequency
   DEG_THRESHOLD= 0.2000000E-02 threshold for treating states as degnerate
   RTIME   =   -0.100 relaxation time in fs
  (WPLASMAI=    0.000 imaginary part of plasma frequency in eV, 0.658/RTIME)
   DFIELD  = 0.0000000 0.0000000 0.0000000 field for delta impulse in time
 
  Optional k-point grid parameters
   LKPOINTS_OPT  =     F    use optional k-point grid
   KPOINTS_OPT_MODE=     1    mode for optional k-point grid
 
 Orbital magnetization related:
   ORBITALMAG=     F  switch on orbital magnetization
   LCHIMAG   =     F  perturbation theory with respect to B field
   DQ        =  0.001000  dq finite difference perturbation B field
   LLRAUG    =     F  two centre corrections for induced B field
   LBONE     =     F  B-component reconstruction in AE one-centre
   LVGVCALC  =     T  calculate vGv susceptibility
   LVGVAPPL  =     F  apply vGv susceptibility instead of pGv for G=0

 Random number generation:
   RANDOM_GENERATOR = DEFAULT
   PCG_SEED         = not used


--------------------------------------------------------------------------------------------------------


 Static calculation
 charge density and potential will be updated during run
 spin polarized calculation
 Variant of blocked Davidson
 Davidson routine will perform the subspace rotation
 perform sub-space diagonalisation
    after iterative eigenvector-optimisation
 Kerker-like  mixing scheme
 using additional bands           20
 reciprocal scheme for non local part
 use partial core corrections
 calculate Harris-corrections to forces 
   (improved forces if not selfconsistent)
 use gradient corrections 
 use of overlap-Matrix (Vanderbilt PP)
 Fermi weights with tetrahedron method with Bloechl corrections


--------------------------------------------------------------------------------------------------------


  energy-cutoff  :      680.00
  volume of cell :      204.32
      direct lattice vectors                 reciprocal lattice vectors
     3.956855210  0.000000000  0.000000000     0.252725952  0.000000000  0.000000000
    -0.000000000  4.532810690  0.000000000     0.000000000  0.220613670  0.000000000
     0.000000000  0.000000000 11.392018510    -0.000000000 -0.000000000  0.087780756

  length of vectors
     3.956855210  4.532810690 11.392018510     0.252725952  0.220613670  0.087780756


 
 k-points in units of 2pi/SCALE and weight: pymatgen with grid density = 622 / numbe
   0.00000000  0.00000000  0.00000000       0.017
   0.04212099  0.00000000  0.00000000       0.033
   0.08424198  0.00000000  0.00000000       0.033
   0.12636298  0.00000000  0.00000000       0.017
   0.00000000  0.04412273  0.00000000       0.033
   0.04212099  0.04412273  0.00000000       0.067
   0.08424198  0.04412273  0.00000000       0.067
   0.12636298  0.04412273  0.00000000       0.033
   0.00000000  0.08824547  0.00000000       0.033
   0.04212099  0.08824547  0.00000000       0.067
   0.08424198  0.08824547  0.00000000       0.067
   0.12636298  0.08824547  0.00000000       0.033
  -0.00000000 -0.00000000  0.04389038       0.017
   0.04212099 -0.00000000  0.04389038       0.033
   0.08424198  0.00000000  0.04389038       0.033
   0.12636298  0.00000000  0.04389038       0.017
  -0.00000000  0.04412273  0.04389038       0.033
   0.04212099  0.04412273  0.04389038       0.067
   0.08424198  0.04412273  0.04389038       0.067
   0.12636298  0.04412273  0.04389038       0.033
  -0.00000000  0.08824547  0.04389038       0.033
   0.04212099  0.08824547  0.04389038       0.067
   0.08424198  0.08824547  0.04389038       0.067
   0.12636298  0.08824547  0.04389038       0.033
 
 k-points in reciprocal lattice and weights: pymatgen with grid density = 622 / numbe
   0.00000000  0.00000000  0.00000000       0.017
   0.16666667 -0.00000000  0.00000000       0.033
   0.33333333 -0.00000000  0.00000000       0.033
   0.50000000 -0.00000000  0.00000000       0.017
   0.00000000  0.20000000  0.00000000       0.033
   0.16666667  0.20000000  0.00000000       0.067
   0.33333333  0.20000000  0.00000000       0.067
   0.50000000  0.20000000  0.00000000       0.033
   0.00000000  0.40000000  0.00000000       0.033
   0.16666667  0.40000000  0.00000000       0.067
   0.33333333  0.40000000  0.00000000       0.067
   0.50000000  0.40000000  0.00000000       0.033
  -0.00000000  0.00000000  0.50000000       0.017
   0.16666667 -0.00000000  0.50000000       0.033
   0.33333333 -0.00000000  0.50000000       0.033
   0.50000000 -0.00000000  0.50000000       0.017
  -0.00000000  0.20000000  0.50000000       0.033
   0.16666667  0.20000000  0.50000000       0.067
   0.33333333  0.20000000  0.50000000       0.067
   0.50000000  0.20000000  0.50000000       0.033
  -0.00000000  0.40000000  0.50000000       0.033
   0.16666667  0.40000000  0.50000000       0.067
   0.33333333  0.40000000  0.50000000       0.067
   0.50000000  0.40000000  0.50000000       0.033
 
 position of ions in fractional coordinates (direct lattice) 
   0.25000000  0.36953984  0.62163275
   0.75000000  0.63046016  0.37836725
   0.75000000  0.86953984  0.87836725
   0.25000000  0.13046016  0.12163275
   0.25000000  0.01059680  0.34749746
   0.75000000  0.98940320  0.65250254
   0.75000000  0.51059680  0.15250254
   0.25000000  0.48940320  0.84749746
 
 position of ions in cartesian coordinates  (Angst):
   0.98921380  1.67505414  7.08165179
   2.96764141  2.85775655  4.31036672
   2.96764141  3.94145948 10.00637597
   0.98921380  0.59135121  1.38564254
   0.98921380  0.04803329  3.95869750
   2.96764141  4.48477740  7.43332101
   2.96764141  2.31443863  1.73731176
   0.98921380  2.21837206  9.65470675
 


--------------------------------------------------------------------------------------------------------


 k-point   1 :   0.0000 0.0000 0.0000  plane waves:    8239
 k-point   2 :   0.1667-0.0000 0.0000  plane waves:    8229
 k-point   3 :   0.3333-0.0000 0.0000  plane waves:    8217
 k-point   4 :   0.5000-0.0000 0.0000  plane waves:    8228
 k-point   5 :   0.0000 0.2000 0.0000  plane waves:    8257
 k-point   6 :   0.1667 0.2000 0.0000  plane waves:    8238
 k-point   7 :   0.3333 0.2000 0.0000  plane waves:    8215
 k-point   8 :   0.5000 0.2000 0.0000  plane waves:    8200
 k-point   9 :   0.0000 0.4000 0.0000  plane waves:    8226
 k-point  10 :   0.1667 0.4000 0.0000  plane waves:    8214
 k-point  11 :   0.3333 0.4000 0.0000  plane waves:    8207
 k-point  12 :   0.5000 0.4000 0.0000  plane waves:    8218
 k-point  13 :  -0.0000 0.0000 0.5000  plane waves:    8220
 k-point  14 :   0.1667-0.0000 0.5000  plane waves:    8234
 k-point  15 :   0.3333-0.0000 0.5000  plane waves:    8252
 k-point  16 :   0.5000-0.0000 0.5000  plane waves:    8252
 k-point  17 :  -0.0000 0.2000 0.5000  plane waves:    8228
 k-point  18 :   0.1667 0.2000 0.5000  plane waves:    8246
 k-point  19 :   0.3333 0.2000 0.5000  plane waves:    8232
 k-point  20 :   0.5000 0.2000 0.5000  plane waves:    8220
 k-point  21 :  -0.0000 0.4000 0.5000  plane waves:    8218
 k-point  22 :   0.1667 0.4000 0.5000  plane waves:    8232
 k-point  23 :   0.3333 0.4000 0.5000  plane waves:    8208
 k-point  24 :   0.5000 0.4000 0.5000  plane waves:    8180

 maximum and minimum number of plane-waves per node :       848      796

 maximum number of plane-waves:      8257
 maximum index in each direction: 
   IXMAX=    8   IYMAX=    9   IZMAX=   24
   IXMIN=   -8   IYMIN=  -10   IZMIN=  -24


 parallel 3D FFT for wavefunctions:
    minimum data exchange during FFTs selected (reduces bandwidth)
 parallel 3D FFT for charge:
    minimum data exchange during FFTs selected (reduces bandwidth)


 FFT grid for exact exchange (Hartree Fock) 
  NGX = 20; NGY = 24; NGZ = 56

 
 Radii for the augmentation spheres in the non-local exchange
 for species   1 augmentation radius   1.471 (default was   1.089)
       energy cutoff for augmentation   2720.0
 for species   2 augmentation radius   1.309 (default was   0.970)
       energy cutoff for augmentation   2720.0

 real space projection operators:
  total allocation   :       1721.25 KBytes
  max/ min on nodes  :        184.75        163.03

 Maximum index for augmentation-charges in exchange          194
  SETUP_FOCK is finished

 total amount of memory used by VASP MPI-rank0    43726. kBytes
=======================================================================

   base      :      30000. kBytes
   nonl-proj :       6082. kBytes
   fftplans  :       1142. kBytes
   grid      :       2524. kBytes
   one-center:         31. kBytes
   HF        :         64. kBytes
   nonlr-proj:        474. kBytes
   wavefun   :       3409. kBytes
 
     INWAV:  cpu time      0.0000: real time      0.0001
 initial charge density was supplied:
 charge density of overlapping atoms calculated
 number of electron      80.0000000 magnetization       4.8000000
 keeping initial charge density in first step


--------------------------------------------------------------------------------------------------------


 Maximum index for augmentation-charges          196 (set IRDMAX)


--------------------------------------------------------------------------------------------------------


 First call to EWALD:  gamma=   0.301
 Maximum number of real-space cells 4x 3x 2
 Maximum number of reciprocal cells 2x 2x 5

    FEWALD:  cpu time      0.0024: real time      0.0026


--------------------------------------- Ionic step        1  -------------------------------------------




--------------------------------------- Iteration      1(   1)  ---------------------------------------


    POTLOK:  cpu time      0.0393: real time      0.0489
    SETDIJ:  cpu time      0.4024: real time      0.4039
     EDDAV:  cpu time      1.4187: real time      2.4464
 BZINTS: Fermi energy:   20.820534;   80.000000 electrons
         Band energy: 0.174593E+03;  BLOECHL correction:   -0.362687
       DOS:  cpu time      0.0327: real time      0.0331
    --------------------------------------------
      LOOP:  cpu time      1.8931: real time      2.9324

 eigenvalue-minimisations  :  6720
 total energy-change (2. order) :-0.3868096E+04  (-0.4384060E+04)
 number of electron      80.0000000 magnetization       4.8000000
 augmentation part       80.0000000 magnetization       4.8000000

 Free energy of the ion-electron system (eV)
  ---------------------------------------------------
  alpha Z        PSCENC =       164.67690988
  Ewald energy   TEWEN  =     -6009.93810534
  -Hartree energ DENC   =     -2402.51146919
  -exchange      EXHF   =         0.00000000
  -V(xc)+E(xc)   XCENC  =       275.89987348
  PAW double counting   =      7145.25035233   -11885.61482844
  entropy T*S    EENTRO =         0.00000000
  eigenvalues    EBANDS =       174.59276960
  atomic energy  EATOM  =      8669.54861131
  Solvation  Ediel_sol  =         0.00000000
  ---------------------------------------------------
  free energy    TOTEN  =     -3868.09588637 eV

  energy without entropy =    -3868.09588637  energy(sigma->0) =    -3868.09588637
  exchange ACFDT corr.  =         0.00000000  see jH, gK, PRB 81, 115126


--------------------------------------------------------------------------------------------------------




--------------------------------------- Iteration      1(   2)  ---------------------------------------


     EDDAV:  cpu time      1.1095: real time      1.1226
 BZINTS: Fermi energy:    8.176899;   80.000000 electrons
         Band energy:-0.653847E+03;  BLOECHL correction:   -0.042760
       DOS:  cpu time      0.0295: real time      0.0296
    --------------------------------------------
      LOOP:  cpu time      1.1390: real time      1.1522

 eigenvalue-minimisations  :  5760
 total energy-change (2. order) :-0.8284401E+03  (-0.7908177E+03)
 number of electron      80.0000000 magnetization       4.8000000
 augmentation part       80.0000000 magnetization       4.8000000

 Free energy of the ion-electron system (eV)
  ---------------------------------------------------
  alpha Z        PSCENC =       164.67690988
  Ewald energy   TEWEN  =     -6009.93810534
  -Hartree energ DENC   =     -2402.51146919
  -exchange      EXHF   =         0.00000000
  -V(xc)+E(xc)   XCENC  =       275.89987348
  PAW double counting   =      7145.25035233   -11885.61482844
  entropy T*S    EENTRO =         0.00000000
  eigenvalues    EBANDS =      -653.84733569
  atomic energy  EATOM  =      8669.54861131
  Solvation  Ediel_sol  =         0.00000000
  ---------------------------------------------------
  free energy    TOTEN  =     -4696.53599166 eV

  energy without entropy =    -4696.53599166  energy(sigma->0) =    -4696.53599166
  exchange ACFDT corr.  =         0.00000000  see jH, gK, PRB 81, 115126


--------------------------------------------------------------------------------------------------------




--------------------------------------- Iteration      1(   3)  ---------------------------------------


     EDDAV:  cpu time      1.2459: real time      1.2758
 BZINTS: Fermi energy:    4.879025;   80.000000 electrons
         Band energy:-0.797101E+03;  BLOECHL correction:    0.000000
       DOS:  cpu time      0.0107: real time      0.0107
    --------------------------------------------
      LOOP:  cpu time      1.2565: real time      1.2865

 eigenvalue-minimisations  :  6672
 total energy-change (2. order) :-0.1432537E+03  (-0.1401267E+03)
 number of electron      80.0000000 magnetization       4.8000000
 augmentation part       80.0000000 magnetization       4.8000000

 Free energy of the ion-electron system (eV)
  ---------------------------------------------------
  alpha Z        PSCENC =       164.67690988
  Ewald energy   TEWEN  =     -6009.93810534
  -Hartree energ DENC   =     -2402.51146919
  -exchange      EXHF   =         0.00000000
  -V(xc)+E(xc)   XCENC  =       275.89987348
  PAW double counting   =      7145.25035233   -11885.61482844
  entropy T*S    EENTRO =         0.00000000
  eigenvalues    EBANDS =      -797.10101357
  atomic energy  EATOM  =      8669.54861131
  Solvation  Ediel_sol  =         0.00000000
  ---------------------------------------------------
  free energy    TOTEN  =     -4839.78966954 eV

  energy without entropy =    -4839.78966954  energy(sigma->0) =    -4839.78966954
  exchange ACFDT corr.  =         0.00000000  see jH, gK, PRB 81, 115126


--------------------------------------------------------------------------------------------------------




--------------------------------------- Iteration      1(   4)  ---------------------------------------


     EDDAV:  cpu time      1.2993: real time      1.3190
 BZINTS: Fermi energy:    4.543504;   80.000000 electrons
         Band energy:-0.805251E+03;  BLOECHL correction:    0.000000
       DOS:  cpu time      0.0103: real time      0.0103
    --------------------------------------------
      LOOP:  cpu time      1.3096: real time      1.3293

 eigenvalue-minimisations  :  6924
 total energy-change (2. order) :-0.8150047E+01  (-0.8113010E+01)
 number of electron      80.0000000 magnetization       4.8000000
 augmentation part       80.0000000 magnetization       4.8000000

 Free energy of the ion-electron system (eV)
  ---------------------------------------------------
  alpha Z        PSCENC =       164.67690988
  Ewald energy   TEWEN  =     -6009.93810534
  -Hartree energ DENC   =     -2402.51146919
  -exchange      EXHF   =         0.00000000
  -V(xc)+E(xc)   XCENC  =       275.89987348
  PAW double counting   =      7145.25035233   -11885.61482844
  entropy T*S    EENTRO =         0.00000000
  eigenvalues    EBANDS =      -805.25106026
  atomic energy  EATOM  =      8669.54861131
  Solvation  Ediel_sol  =         0.00000000
  ---------------------------------------------------
  free energy    TOTEN  =     -4847.93971623 eV

  energy without entropy =    -4847.93971623  energy(sigma->0) =    -4847.93971623
  exchange ACFDT corr.  =         0.00000000  see jH, gK, PRB 81, 115126


--------------------------------------------------------------------------------------------------------




--------------------------------------- Iteration      1(   5)  ---------------------------------------


    POTLOK:  cpu time      0.0639: real time      0.0807
    SETDIJ:  cpu time      0.9376: real time      0.9402
     EDDAV:  cpu time    137.3385: real time    137.8303
 BZINTS: Fermi energy:    5.018624;   80.000000 electrons
         Band energy:-0.751682E+03;  BLOECHL correction:    0.000000
       DOS:  cpu time      0.0123: real time      0.0125
    CHARGE:  cpu time      0.1114: real time      0.1501
    MIXING:  cpu time      0.0010: real time      0.0010
    --------------------------------------------
      LOOP:  cpu time    138.4648: real time    139.0149

 eigenvalue-minimisations  :  7536
 total energy-change (2. order) : 0.4804269E+04  (-0.2982798E+01)
 number of electron      79.9999995 magnetization      -2.8800000
 augmentation part       26.0517963 magnetization      -2.8732038

 Free energy of the ion-electron system (eV)
  ---------------------------------------------------
  alpha Z        PSCENC =       164.67690988
  Ewald energy   TEWEN  =     -6009.93810534
  -Hartree energ DENC   =     -2402.51146919
  -exchange      EXHF   =       181.57390344
  -V(xc)+E(xc)   XCENC  =       210.11547731
  PAW double counting   =      7208.61117106    -7314.06520611
  entropy T*S    EENTRO =         0.00000000
  eigenvalues    EBANDS =      -751.68191180
  atomic energy  EATOM  =      8669.54861131
  Solvation  Ediel_sol  =         0.00000000
  ---------------------------------------------------
  free energy    TOTEN  =       -43.67061942 eV

  energy without entropy =      -43.67061942  energy(sigma->0) =      -43.67061942
  exchange ACFDT corr.  =         0.00000000  see jH, gK, PRB 81, 115126


--------------------------------------------------------------------------------------------------------




--------------------------------------- Iteration      1(   6)  ---------------------------------------


    POTLOK:  cpu time      0.0506: real time      0.0612
    SETDIJ:  cpu time      0.9342: real time      0.9367
     EDDAV:  cpu time    137.7916: real time    138.1875
 BZINTS: Fermi energy:    5.172510;   80.000000 electrons
         Band energy:-0.748467E+03;  BLOECHL correction:    0.000000
       DOS:  cpu time      0.0120: real time      0.0121
    CHARGE:  cpu time      0.1073: real time      0.1076
    MIXING:  cpu time      0.0003: real time      0.0003
    --------------------------------------------
      LOOP:  cpu time    138.8960: real time    139.3054

 eigenvalue-minimisations  :  7056
 total energy-change (2. order) : 0.1476477E+01  (-0.4096354E+00)
 number of electron      79.9999992 magnetization       1.7280000
 augmentation part       26.1829589 magnetization       1.6972892

 Free energy of the ion-electron system (eV)
  ---------------------------------------------------
  alpha Z        PSCENC =       164.67690988
  Ewald energy   TEWEN  =     -6009.93810534
  -Hartree energ DENC   =     -2404.86960078
  -exchange      EXHF   =       178.99254973
  -V(xc)+E(xc)   XCENC  =       210.91064353
  PAW double counting   =      7983.41428110    -8086.46234815
  entropy T*S    EENTRO =         0.00000000
  eigenvalues    EBANDS =      -748.46708328
  atomic energy  EATOM  =      8669.54861131
  Solvation  Ediel_sol  =         0.00000000
  ---------------------------------------------------
  free energy    TOTEN  =       -42.19414200 eV

  energy without entropy =      -42.19414200  energy(sigma->0) =      -42.19414200
  exchange ACFDT corr.  =         0.00000000  see jH, gK, PRB 81, 115126


--------------------------------------------------------------------------------------------------------




--------------------------------------- Iteration      1(   7)  ---------------------------------------


    POTLOK:  cpu time      0.0507: real time      0.0624
    SETDIJ:  cpu time      0.9351: real time      0.9376
     EDDAV:  cpu time    137.2544: real time    137.6358
 BZINTS: Fermi energy:    5.365104;   80.000000 electrons
         Band energy:-0.749965E+03;  BLOECHL correction:    0.000000
       DOS:  cpu time      0.0122: real time      0.0124
    CHARGE:  cpu time      0.1093: real time      0.1096
    MIXING:  cpu time      0.0003: real time      0.0003
    --------------------------------------------
      LOOP:  cpu time    138.3620: real time    138.7580

 eigenvalue-minimisations  :  7020
 total energy-change (2. order) :-0.2813322E+00  (-0.1766014E+00)
 number of electron      79.9999990 magnetization      -1.0368000
 augmentation part       26.2247650 magnetization      -1.0253303

 Free energy of the ion-electron system (eV)
  ---------------------------------------------------
  alpha Z        PSCENC =       164.67690988
  Ewald energy   TEWEN  =     -6009.93810534
  -Hartree energ DENC   =     -2402.20111215
  -exchange      EXHF   =       177.02924808
  -V(xc)+E(xc)   XCENC  =       211.05634926
  PAW double counting   =      8748.34000361    -8851.02205378
  entropy T*S    EENTRO =         0.00000000
  eigenvalues    EBANDS =      -749.96532504
  atomic energy  EATOM  =      8669.54861131
  Solvation  Ediel_sol  =         0.00000000
  ---------------------------------------------------
  free energy    TOTEN  =       -42.47547418 eV

  energy without entropy =      -42.47547418  energy(sigma->0) =      -42.47547418
  exchange ACFDT corr.  =         0.00000000  see jH, gK, PRB 81, 115126


--------------------------------------------------------------------------------------------------------




--------------------------------------- Iteration      1(   8)  ---------------------------------------


    POTLOK:  cpu time      0.0535: real time      0.0646
    SETDIJ:  cpu time      0.9325: real time      0.9350
     EDDAV:  cpu time    138.0554: real time    138.4405
 BZINTS: Fermi energy:    5.328755;   80.000000 electrons
         Band energy:-0.750194E+03;  BLOECHL correction:    0.000000
       DOS:  cpu time      0.0126: real time      0.0128
    CHARGE:  cpu time      0.1082: real time      0.1086
    MIXING:  cpu time      0.0002: real time      0.0002
    --------------------------------------------
      LOOP:  cpu time    139.1625: real time    139.5616

 eigenvalue-minimisations  :  7236
 total energy-change (2. order) :-0.4097262E-01  (-0.1697095E-01)
 number of electron      79.9999989 magnetization       0.6220800
 augmentation part       26.2012680 magnetization       0.6174002

 Free energy of the ion-electron system (eV)
  ---------------------------------------------------
  alpha Z        PSCENC =       164.67690988
  Ewald energy   TEWEN  =     -6009.93810534
  -Hartree energ DENC   =     -2400.01408480
  -exchange      EXHF   =       176.11511118
  -V(xc)+E(xc)   XCENC  =       210.99006816
  PAW double counting   =      9334.31753321    -9438.01897578
  entropy T*S    EENTRO =         0.00000000
  eigenvalues    EBANDS =      -750.19351462
  atomic energy  EATOM  =      8669.54861131
  Solvation  Ediel_sol  =         0.00000000
  ---------------------------------------------------
  free energy    TOTEN  =       -42.51644680 eV

  energy without entropy =      -42.51644680  energy(sigma->0) =      -42.51644680
  exchange ACFDT corr.  =         0.00000000  see jH, gK, PRB 81, 115126


--------------------------------------------------------------------------------------------------------




--------------------------------------- Iteration      1(   9)  ---------------------------------------


    POTLOK:  cpu time      0.0608: real time      0.0619
    SETDIJ:  cpu time      0.9318: real time      0.9343
     EDDAV:  cpu time    137.6179: real time    138.0004
 BZINTS: Fermi energy:    5.316336;   80.000000 electrons
         Band energy:-0.750475E+03;  BLOECHL correction:    0.000000
       DOS:  cpu time      0.0123: real time      0.0125
    CHARGE:  cpu time      0.1084: real time      0.1087
    MIXING:  cpu time      0.0003: real time      0.0003
    --------------------------------------------
      LOOP:  cpu time    138.7316: real time    139.1181

 eigenvalue-minimisations  :  7656
 total energy-change (2. order) : 0.5399510E-02  (-0.4589355E-02)
 number of electron      79.9999988 magnetization      -0.3732480
 augmentation part       26.1833353 magnetization      -0.3703592

 Free energy of the ion-electron system (eV)
  ---------------------------------------------------
  alpha Z        PSCENC =       164.67690988
  Ewald energy   TEWEN  =     -6009.93810534
  -Hartree energ DENC   =     -2398.90117648
  -exchange      EXHF   =       176.08908984
  -V(xc)+E(xc)   XCENC  =       210.95237564
  PAW double counting   =      9696.13973926    -9800.60364314
  entropy T*S    EENTRO =         0.00000000
  eigenvalues    EBANDS =      -750.47484826
  atomic energy  EATOM  =      8669.54861131
  Solvation  Ediel_sol  =         0.00000000
  ---------------------------------------------------
  free energy    TOTEN  =       -42.51104729 eV

  energy without entropy =      -42.51104729  energy(sigma->0) =      -42.51104729
  exchange ACFDT corr.  =         0.00000000  see jH, gK, PRB 81, 115126


--------------------------------------------------------------------------------------------------------




--------------------------------------- Iteration      1(  10)  ---------------------------------------


    POTLOK:  cpu time      0.0505: real time      0.0613
    SETDIJ:  cpu time      0.9299: real time      0.9324
     EDDAV:  cpu time    137.9621: real time    138.3446
 BZINTS: Fermi energy:    5.308264;   80.000000 electrons
         Band energy:-0.750822E+03;  BLOECHL correction:    0.000000
       DOS:  cpu time      0.0123: real time      0.0123
    CHARGE:  cpu time      0.1087: real time      0.1090
    MIXING:  cpu time      0.0003: real time      0.0002
    --------------------------------------------
      LOOP:  cpu time    139.0637: real time    139.4597

 eigenvalue-minimisations  :  7032
 total energy-change (2. order) :-0.4876230E-02  (-0.2154974E-02)
 number of electron      79.9999988 magnetization       0.2239488
 augmentation part       26.1767874 magnetization       0.2217347

 Free energy of the ion-electron system (eV)
  ---------------------------------------------------
  alpha Z        PSCENC =       164.67690988
  Ewald energy   TEWEN  =     -6009.93810534
  -Hartree energ DENC   =     -2398.33800150
  -exchange      EXHF   =       176.21302386
  -V(xc)+E(xc)   XCENC  =       210.95375021
  PAW double counting   =      9885.95281938    -9990.76314014
  entropy T*S    EENTRO =         0.00000000
  eigenvalues    EBANDS =      -750.82179117
  atomic energy  EATOM  =      8669.54861131
  Solvation  Ediel_sol  =         0.00000000
  ---------------------------------------------------
  free energy    TOTEN  =       -42.51592352 eV

  energy without entropy =      -42.51592352  energy(sigma->0) =      -42.51592352
  exchange ACFDT corr.  =         0.00000000  see jH, gK, PRB 81, 115126


--------------------------------------------------------------------------------------------------------




--------------------------------------- Iteration      1(  11)  ---------------------------------------


    POTLOK:  cpu time      0.0499: real time      0.0622
    SETDIJ:  cpu time      0.9318: real time      0.9343
     EDDAV:  cpu time    137.1499: real time    137.5317
 BZINTS: Fermi energy:    5.304816;   80.000000 electrons
         Band energy:-0.751031E+03;  BLOECHL correction:    0.000000
       DOS:  cpu time      0.0125: real time      0.0126
    CHARGE:  cpu time      0.1142: real time      0.1145
    MIXING:  cpu time      0.0003: real time      0.0003
    --------------------------------------------
      LOOP:  cpu time    138.2586: real time    138.6556

 eigenvalue-minimisations  :  7080
 total energy-change (2. order) :-0.1466663E-02  (-0.4200550E-03)
 number of electron      79.9999987 magnetization      -0.1343693
 augmentation part       26.1759707 magnetization      -0.1336117

 Free energy of the ion-electron system (eV)
  ---------------------------------------------------
  alpha Z        PSCENC =       164.67690988
  Ewald energy   TEWEN  =     -6009.93810534
  -Hartree energ DENC   =     -2398.06143295
  -exchange      EXHF   =       176.28179145
  -V(xc)+E(xc)   XCENC  =       210.96780537
  PAW double counting   =      9978.91490825   -10083.87696506
  entropy T*S    EENTRO =         0.00000000
  eigenvalues    EBANDS =      -751.03091309
  atomic energy  EATOM  =      8669.54861131
  Solvation  Ediel_sol  =         0.00000000
  ---------------------------------------------------
  free energy    TOTEN  =       -42.51739018 eV

  energy without entropy =      -42.51739018  energy(sigma->0) =      -42.51739018
  exchange ACFDT corr.  =         0.00000000  see jH, gK, PRB 81, 115126


--------------------------------------------------------------------------------------------------------




--------------------------------------- Iteration      1(  12)  ---------------------------------------


    POTLOK:  cpu time      0.0516: real time      0.0637
    SETDIJ:  cpu time      0.9321: real time      0.9345
     EDDAV:  cpu time    138.1416: real time    138.5242
 BZINTS: Fermi energy:    5.303250;   80.000000 electrons
         Band energy:-0.751074E+03;  BLOECHL correction:    0.000000
       DOS:  cpu time      0.0130: real time      0.0130
    CHARGE:  cpu time      0.1067: real time      0.1072
    MIXING:  cpu time      0.0003: real time      0.0003
    --------------------------------------------
      LOOP:  cpu time    139.2451: real time    139.6429

 eigenvalue-minimisations  :  7092
 total energy-change (2. order) :-0.4156510E-03  (-0.1055006E-03)
 number of electron      79.9999987 magnetization       0.0806216
 augmentation part       26.1757253 magnetization       0.0800150

 Free energy of the ion-electron system (eV)
  ---------------------------------------------------
  alpha Z        PSCENC =       164.67690988
  Ewald energy   TEWEN  =     -6009.93810534
  -Hartree energ DENC   =     -2397.92947018
  -exchange      EXHF   =       176.28637262
  -V(xc)+E(xc)   XCENC  =       210.97819603
  PAW double counting   =     10028.68094704   -10133.74720438
  entropy T*S    EENTRO =         0.00000000
  eigenvalues    EBANDS =      -751.07406281
  atomic energy  EATOM  =      8669.54861131
  Solvation  Ediel_sol  =         0.00000000
  ---------------------------------------------------
  free energy    TOTEN  =       -42.51780583 eV

  energy without entropy =      -42.51780583  energy(sigma->0) =      -42.51780583
  exchange ACFDT corr.  =         0.00000000  see jH, gK, PRB 81, 115126


--------------------------------------------------------------------------------------------------------




--------------------------------------- Iteration      1(  13)  ---------------------------------------


    POTLOK:  cpu time      0.0557: real time      0.0664
    SETDIJ:  cpu time      0.9329: real time      0.9354
     EDDAV:  cpu time    137.3067: real time    137.6873
 BZINTS: Fermi energy:    5.302579;   80.000000 electrons
         Band energy:-0.751051E+03;  BLOECHL correction:    0.000000
       DOS:  cpu time      0.0125: real time      0.0127
    CHARGE:  cpu time      0.1107: real time      0.1110
    MIXING:  cpu time      0.0003: real time      0.0003
    --------------------------------------------
      LOOP:  cpu time    138.4189: real time    138.8131

 eigenvalue-minimisations  :  6888
 total energy-change (2. order) :-0.2588834E-03  (-0.4476334E-04)
 number of electron      79.9999987 magnetization      -0.0483729
 augmentation part       26.1752614 magnetization      -0.0480205

 Free energy of the ion-electron system (eV)
  ---------------------------------------------------
  alpha Z        PSCENC =       164.67690988
  Ewald energy   TEWEN  =     -6009.93810534
  -Hartree energ DENC   =     -2397.85945352
  -exchange      EXHF   =       176.27465026
  -V(xc)+E(xc)   XCENC  =       210.98280088
  PAW double counting   =     10056.86927563   -10162.02163917
  entropy T*S    EENTRO =         0.00000000
  eigenvalues    EBANDS =      -751.05111465
  atomic energy  EATOM  =      8669.54861131
  Solvation  Ediel_sol  =         0.00000000
  ---------------------------------------------------
  free energy    TOTEN  =       -42.51806472 eV

  energy without entropy =      -42.51806472  energy(sigma->0) =      -42.51806472
  exchange ACFDT corr.  =         0.00000000  see jH, gK, PRB 81, 115126


--------------------------------------------------------------------------------------------------------




--------------------------------------- Iteration      1(  14)  ---------------------------------------


    POTLOK:  cpu time      0.0480: real time      0.0624
    SETDIJ:  cpu time      0.9312: real time      0.9336
     EDDAV:  cpu time    138.2010: real time    138.5860
 BZINTS: Fermi energy:    5.302217;   80.000000 electrons
         Band energy:-0.751022E+03;  BLOECHL correction:    0.000000
       DOS:  cpu time      0.0128: real time      0.0129
    CHARGE:  cpu time      0.1279: real time      0.1282
    MIXING:  cpu time      0.0005: real time      0.0005
    --------------------------------------------
      LOOP:  cpu time    139.3213: real time    139.7238

 eigenvalue-minimisations  :  6288
 total energy-change (2. order) :-0.1090232E-03  (-0.1359079E-04)
 number of electron      79.9999987 magnetization       0.0290238
 augmentation part       26.1747465 magnetization       0.0288968

 Free energy of the ion-electron system (eV)
  ---------------------------------------------------
  alpha Z        PSCENC =       164.67690988
  Ewald energy   TEWEN  =     -6009.93810534
  -Hartree energ DENC   =     -2397.81770383
  -exchange      EXHF   =       176.26684631
  -V(xc)+E(xc)   XCENC  =       210.98428511
  PAW double counting   =     10073.04974640   -10178.26704289
  entropy T*S    EENTRO =         0.00000000
  eigenvalues    EBANDS =      -751.02172070
  atomic energy  EATOM  =      8669.54861131
  Solvation  Ediel_sol  =         0.00000000
  ---------------------------------------------------
  free energy    TOTEN  =       -42.51817374 eV

  energy without entropy =      -42.51817374  energy(sigma->0) =      -42.51817374
  exchange ACFDT corr.  =         0.00000000  see jH, gK, PRB 81, 115126


--------------------------------------------------------------------------------------------------------




--------------------------------------- Iteration      1(  15)  ---------------------------------------


    POTLOK:  cpu time      0.0691: real time      0.0702
    SETDIJ:  cpu time      0.9392: real time      0.9417
     EDDAV:  cpu time    136.6881: real time    137.0674
 BZINTS: Fermi energy:    5.302049;   80.000000 electrons
         Band energy:-0.751005E+03;  BLOECHL correction:    0.000000
       DOS:  cpu time      0.0128: real time      0.0129
    CHARGE:  cpu time      0.1102: real time      0.1104
    MIXING:  cpu time      0.0003: real time      0.0003
    --------------------------------------------
      LOOP:  cpu time    137.8198: real time    138.2028

 eigenvalue-minimisations  :  6156
 total energy-change (2. order) :-0.4297338E-04  (-0.4602156E-05)
 number of electron      79.9999987 magnetization      -0.0174143
 augmentation part       26.1743823 magnetization      -0.0173448

 Free energy of the ion-electron system (eV)
  ---------------------------------------------------
  alpha Z        PSCENC =       164.67690988
  Ewald energy   TEWEN  =     -6009.93810534
  -Hartree energ DENC   =     -2397.79187122
  -exchange      EXHF   =       176.26536310
  -V(xc)+E(xc)   XCENC  =       210.98491642
  PAW double counting   =     10081.91380645   -10187.17293119
  entropy T*S    EENTRO =         0.00000000
  eigenvalues    EBANDS =      -751.00491612
  atomic energy  EATOM  =      8669.54861131
  Solvation  Ediel_sol  =         0.00000000
  ---------------------------------------------------
  free energy    TOTEN  =       -42.51821671 eV

  energy without entropy =      -42.51821671  energy(sigma->0) =      -42.51821671
  exchange ACFDT corr.  =         0.00000000  see jH, gK, PRB 81, 115126


--------------------------------------------------------------------------------------------------------




--------------------------------------- Iteration      1(  16)  ---------------------------------------


    POTLOK:  cpu time      0.0516: real time      0.0639
    SETDIJ:  cpu time      0.9317: real time      0.9342
     EDDAV:  cpu time    137.2087: real time    137.5900
 BZINTS: Fermi energy:    5.301976;   80.000000 electrons
         Band energy:-0.750995E+03;  BLOECHL correction:    0.000000
       DOS:  cpu time      0.0125: real time      0.0125
    CHARGE:  cpu time      0.1266: real time      0.1270
    MIXING:  cpu time      0.0003: real time      0.0003
    --------------------------------------------
      LOOP:  cpu time    138.3314: real time    138.7279

 eigenvalue-minimisations  :  5388
 total energy-change (2. order) :-0.1907492E-04  (-0.1827955E-05)
 number of electron      79.9999987 magnetization       0.0104486
 augmentation part       26.1741883 magnetization       0.0104560

 Free energy of the ion-electron system (eV)
  ---------------------------------------------------
  alpha Z        PSCENC =       164.67690988
  Ewald energy   TEWEN  =     -6009.93810534
  -Hartree energ DENC   =     -2397.77801639
  -exchange      EXHF   =       176.26608876
  -V(xc)+E(xc)   XCENC  =       210.98545146
  PAW double counting   =     10086.46025703   -10191.74450768
  entropy T*S    EENTRO =         0.00000000
  eigenvalues    EBANDS =      -750.99492482
  atomic energy  EATOM  =      8669.54861131
  Solvation  Ediel_sol  =         0.00000000
  ---------------------------------------------------
  free energy    TOTEN  =       -42.51823579 eV

  energy without entropy =      -42.51823579  energy(sigma->0) =      -42.51823579
  exchange ACFDT corr.  =         0.00000000  see jH, gK, PRB 81, 115126


--------------------------------------------------------------------------------------------------------




--------------------------------------- Iteration      1(  17)  ---------------------------------------


    POTLOK:  cpu time      0.0568: real time      0.0664
    SETDIJ:  cpu time      0.9635: real time      0.9660
     EDDAV:  cpu time    136.9927: real time    137.3728
 BZINTS: Fermi energy:    5.301958;   80.000000 electrons
         Band energy:-0.750988E+03;  BLOECHL correction:    0.000000
       DOS:  cpu time      0.0126: real time      0.0126
    --------------------------------------------
      LOOP:  cpu time    138.0256: real time    138.4178

 eigenvalue-minimisations  :  4704
 total energy-change (2. order) :-0.8504237E-05  (-0.7779119E-06)
 number of electron      79.9999987 magnetization       0.0104486
 augmentation part       26.1741883 magnetization       0.0104560

 Free energy of the ion-electron system (eV)
  ---------------------------------------------------
  alpha Z        PSCENC =       164.67690988
  Ewald energy   TEWEN  =     -6009.93810534
  -Hartree energ DENC   =     -2397.77101052
  -exchange      EXHF   =       176.26666355
  -V(xc)+E(xc)   XCENC  =       210.98591295
  PAW double counting   =     10088.79023089   -10194.08943800
  entropy T*S    EENTRO =         0.00000000
  eigenvalues    EBANDS =      -750.98801901
  atomic energy  EATOM  =      8669.54861131
  Solvation  Ediel_sol  =         0.00000000
  ---------------------------------------------------
  free energy    TOTEN  =       -42.51824429 eV

  energy without entropy =      -42.51824429  energy(sigma->0) =      -42.51824429
  exchange ACFDT corr.  =         0.00000000  see jH, gK, PRB 81, 115126


--------------------------------------------------------------------------------------------------------




 average (electrostatic) potential at core
  the test charge radii are     1.0894  0.9698
  (the norm of the test charge is              1.0000)
       1 -95.1959       2 -95.1959       3 -95.1959       4 -95.1959       5 -82.1426
       6 -82.1426       7 -82.1426       8 -82.1426
 
 
 
 E-fermi :   5.3020     XC(G=0):  -7.9419     alpha+bet :-11.0823

 Fermi energy:         5.3019578636

 spin component 1

 k-point     1 :       0.0000    0.0000    0.0000
  band No.  band energies     occupation 
      1     -18.1272      1.00000
      2     -18.1142      1.00000
      3     -18.1035      1.00000
      4     -18.0958      1.00000
      5     -18.0940      1.00000
      6     -18.0905      1.00000
      7     -18.0880      1.00000
      8     -18.0842      1.00000
      9     -18.0654      1.00000
     10     -18.0643      1.00000
     11     -18.0525      1.00000
     12     -18.0481      1.00000
     13     -18.0462      1.00000
     14     -18.0414      1.00000
     15     -18.0171      1.00000
     16     -18.0137      1.00000
     17     -18.0102      1.00000
     18     -18.0062      1.00000
     19     -18.0021      1.00000
     20     -17.9991      1.00000
     21      -9.9868      1.00000
     22      -9.7153      1.00000
     23      -8.6482      1.00000
     24      -8.2420      1.00000
     25      -2.6903      1.00000
     26      -1.7087      1.00000
     27      -0.6231      1.00000
     28       0.0834      1.00000
     29       0.2060      1.00000
     30       1.1245      1.00000
     31       1.5356      1.00000
     32       1.5542      1.00000
     33       1.5586      1.00000
     34       1.8766      1.00000
     35       2.7336      1.00000
     36       2.8277      1.00000
     37       3.1409      1.00000
     38       4.0848      1.00000
     39       4.2293      1.00000
     40       4.8832      1.00000
     41       6.9290      0.00000
     42       8.5704      0.00000
     43       8.7268      0.00000
     44       8.8277      0.00000
     45       9.1413      0.00000
     46       9.6788      0.00000
     47       9.7836      0.00000
     48      10.9317      0.00000
     49      11.1690      0.00000
     50      11.5561      0.00000
     51      11.6029      0.00000
     52      12.0926      0.00000
     53      12.5377      0.00000
     54      13.0177      0.00000
     55      13.3307      0.00000
     56      13.5657      0.00000
     57      13.7202      0.00000
     58      14.5038      0.00000
     59      14.6755      0.00000
     60      14.7849      0.00000

 k-point     2 :       0.1667   -0.0000    0.0000
  band No.  band energies     occupation 
      1     -18.1199      1.00000
      2     -18.1111      1.00000
      3     -18.0990      1.00000
      4     -18.0972      1.00000
      5     -18.0948      1.00000
      6     -18.0897      1.00000
      7     -18.0894      1.00000
      8     -18.0879      1.00000
      9     -18.0636      1.00000
     10     -18.0623      1.00000
     11     -18.0527      1.00000
     12     -18.0509      1.00000
     13     -18.0471      1.00000
     14     -18.0411      1.00000
     15     -18.0221      1.00000
     16     -18.0139      1.00000
     17     -18.0105      1.00000
     18     -18.0059      1.00000
     19     -18.0006      1.00000
     20     -17.9969      1.00000
     21      -9.8001      1.00000
     22      -9.5450      1.00000
     23      -8.5644      1.00000
     24      -8.2147      1.00000
     25      -2.8604      1.00000
     26      -2.0070      1.00000
     27      -0.7049      1.00000
     28      -0.5897      1.00000
     29      -0.0201      1.00000
     30       1.2485      1.00000
     31       1.3420      1.00000
     32       1.6718      1.00000
     33       1.6817      1.00000
     34       1.9023      1.00000
     35       2.7763      1.00000
     36       2.8423      1.00000
     37       3.0694      1.00000
     38       4.2295      1.00000
     39       4.5864      1.00000
     40       4.7596      1.00000
     41       7.1636      0.00000
     42       7.9023      0.00000
     43       8.8806      0.00000
     44       8.9171      0.00000
     45       9.3064      0.00000
     46       9.3340      0.00000
     47       9.9617      0.00000
     48      10.0342      0.00000
     49      10.1682      0.00000
     50      11.6584      0.00000
     51      11.7147      0.00000
     52      11.7942      0.00000
     53      12.0933      0.00000
     54      12.4561      0.00000
     55      12.6935      0.00000
     56      12.8377      0.00000
     57      12.9616      0.00000
     58      14.4000      0.00000
     59      15.0706      0.00000
     60      15.2469      0.00000

 k-point     3 :       0.3333   -0.0000    0.0000
  band No.  band energies     occupation 
      1     -18.1134      1.00000
      2     -18.1115      1.00000
      3     -18.1080      1.00000
      4     -18.1080      1.00000
      5     -18.0888      1.00000
      6     -18.0830      1.00000
      7     -18.0816      1.00000
      8     -18.0797      1.00000
      9     -18.0616      1.00000
     10     -18.0603      1.00000
     11     -18.0568      1.00000
     12     -18.0507      1.00000
     13     -18.0475      1.00000
     14     -18.0390      1.00000
     15     -18.0304      1.00000
     16     -18.0280      1.00000
     17     -18.0035      1.00000
     18     -17.9988      1.00000
     19     -17.9973      1.00000
     20     -17.9950      1.00000
     21      -9.2959      1.00000
     22      -9.1021      1.00000
     23      -8.4509      1.00000
     24      -8.2767      1.00000
     25      -3.1876      1.00000
     26      -2.5195      1.00000
     27      -2.0052      1.00000
     28      -1.5781      1.00000
     29       0.4736      1.00000
     30       1.3571      1.00000
     31       1.6391      1.00000
     32       1.9919      1.00000
     33       2.0214      1.00000
     34       2.1260      1.00000
     35       2.6855      1.00000
     36       2.9193      1.00000
     37       3.4332      1.00000
     38       4.1449      1.00000
     39       4.3348      1.00000
     40       4.9057      1.00000
     41       6.6250      0.00000
     42       7.7035      0.00000
     43       7.7497      0.00000
     44       7.8740      0.00000
     45       8.4154      0.00000
     46       8.7734      0.00000
     47       9.1900      0.00000
     48       9.6716      0.00000
     49      10.1248      0.00000
     50      10.4551      0.00000
     51      10.8109      0.00000
     52      11.2850      0.00000
     53      12.5794      0.00000
     54      13.4881      0.00000
     55      13.5174      0.00000
     56      13.6925      0.00000
     57      14.1083      0.00000
     58      14.5886      0.00000
     59      14.6312      0.00000
     60      14.9267      0.00000

 k-point     4 :       0.5000   -0.0000    0.0000
  band No.  band energies     occupation 
      1     -18.1154      1.00000
      2     -18.1154      1.00000
      3     -18.1126      1.00000
      4     -18.1126      1.00000
      5     -18.0798      1.00000
      6     -18.0798      1.00000
      7     -18.0764      1.00000
      8     -18.0764      1.00000
      9     -18.0602      1.00000
     10     -18.0602      1.00000
     11     -18.0563      1.00000
     12     -18.0563      1.00000
     13     -18.0391      1.00000
     14     -18.0391      1.00000
     15     -18.0360      1.00000
     16     -18.0360      1.00000
     17     -17.9969      1.00000
     18     -17.9969      1.00000
     19     -17.9953      1.00000
     20     -17.9953      1.00000
     21      -8.6753      1.00000
     22      -8.6753      1.00000
     23      -8.6246      1.00000
     24      -8.6246      1.00000
     25      -3.0129      1.00000
     26      -3.0129      1.00000
     27      -2.4181      1.00000
     28      -2.4181      1.00000
     29       1.2377      1.00000
     30       1.2377      1.00000
     31       1.9923      1.00000
     32       1.9923      1.00000
     33       2.2979      1.00000
     34       2.2979      1.00000
     35       2.7863      1.00000
     36       2.7863      1.00000
     37       3.9763      1.00000
     38       3.9763      1.00000
     39       4.1416      1.00000
     40       4.1416      1.00000
     41       7.1616      0.00000
     42       7.1616      0.00000
     43       7.3203      0.00000
     44       7.3203      0.00000
     45       8.2602      0.00000
     46       8.2602      0.00000
     47       8.9561      0.00000
     48       8.9561      0.00000
     49       9.6434      0.00000
     50       9.6434      0.00000
     51      10.8693      0.00000
     52      10.8693      0.00000
     53      13.4231      0.00000
     54      13.4231      0.00000
     55      13.6130      0.00000
     56      13.6130      0.00000
[...]
     57      14.5489      0.00000
     58      14.5489      0.00000
     59      15.2769      0.00000
     60      15.2770      0.00000

 k-point    23 :       0.3333    0.4000    0.5000
  band No.  band energies     occupation 
      1     -18.1180      1.00000
      2     -18.1180      1.00000
      3     -18.1143      1.00000
      4     -18.1143      1.00000
      5     -18.0868      1.00000
      6     -18.0868      1.00000
      7     -18.0815      1.00000
      8     -18.0815      1.00000
      9     -18.0557      1.00000
     10     -18.0557      1.00000
     11     -18.0520      1.00000
     12     -18.0520      1.00000
     13     -18.0382      1.00000
     14     -18.0382      1.00000
     15     -18.0278      1.00000
     16     -18.0278      1.00000
     17     -18.0010      1.00000
     18     -18.0010      1.00000
     19     -17.9959      1.00000
     20     -17.9959      1.00000
     21      -8.7756      1.00000
     22      -8.7756      1.00000
     23      -8.4606      1.00000
     24      -8.4606      1.00000
     25      -2.5932      1.00000
     26      -2.5931      1.00000
     27      -1.9330      1.00000
     28      -1.9330      1.00000
     29       0.1237      1.00000
     30       0.1237      1.00000
     31       0.7479      1.00000
     32       0.7479      1.00000
     33       1.6958      1.00000
     34       1.6958      1.00000
     35       2.3092      1.00000
     36       2.3092      1.00000
     37       3.3013      1.00000
     38       3.3013      1.00000
     39       3.9071      1.00000
     40       3.9071      1.00000
     41       8.3947      0.00000
     42       8.3947      0.00000
     43       9.0486      0.00000
     44       9.0486      0.00000
     45       9.4499      0.00000
     46       9.4499      0.00000
     47      10.3024      0.00000
     48      10.3024      0.00000
     49      11.1289      0.00000
     50      11.1289      0.00000
     51      12.0430      0.00000
     52      12.0430      0.00000
     53      13.2077      0.00000
     54      13.2077      0.00000
     55      13.5153      0.00000
     56      13.5153      0.00000
     57      15.2608      0.00000
     58      15.2608      0.00000
     59      15.8959      0.00000
     60      15.8961      0.00000

 k-point    24 :       0.5000    0.4000    0.5000
  band No.  band energies     occupation 
      1     -18.1218      1.00000
      2     -18.1218      1.00000
      3     -18.1218      1.00000
      4     -18.1218      1.00000
      5     -18.0794      1.00000
      6     -18.0794      1.00000
      7     -18.0794      1.00000
      8     -18.0794      1.00000
      9     -18.0543      1.00000
     10     -18.0543      1.00000
     11     -18.0543      1.00000
     12     -18.0543      1.00000
     13     -18.0336      1.00000
     14     -18.0336      1.00000
     15     -18.0336      1.00000
     16     -18.0336      1.00000
     17     -17.9958      1.00000
     18     -17.9958      1.00000
     19     -17.9958      1.00000
     20     -17.9958      1.00000
     21      -8.4650      1.00000
     22      -8.4650      1.00000
     23      -8.4650      1.00000
     24      -8.4650      1.00000
     25      -2.3049      1.00000
     26      -2.3049      1.00000
     27      -2.3049      1.00000
     28      -2.3049      1.00000
     29       0.4609      1.00000
     30       0.4609      1.00000
     31       0.4609      1.00000
     32       0.4609      1.00000
     33       1.3180      1.00000
     34       1.3180      1.00000
     35       1.3180      1.00000
     36       1.3180      1.00000
     37       3.5377      1.00000
     38       3.5377      1.00000
     39       3.5377      1.00000
     40       3.5377      1.00000
     41       8.5743      0.00000
     42       8.5743      0.00000
     43       8.5743      0.00000
     44       8.5743      0.00000
     45      10.0130      0.00000
     46      10.0130      0.00000
     47      10.0130      0.00000
     48      10.0130      0.00000
     49      12.2357      0.00000
     50      12.2357      0.00000
     51      12.2357      0.00000
     52      12.2357      0.00000
     53      13.3720      0.00000
     54      13.3720      0.00000
     55      13.3720      0.00000
     56      13.3720      0.00000
     57      15.4290      0.00000
     58      15.4290      0.00000
     59      15.4290      0.00000
     60      15.4290      0.00000


--------------------------------------------------------------------------------------------------------


 soft charge-density along one line, spin component           1
         0         1         2         3         4         5         6         7         8         9
 total charge-density along one line
 
 soft charge-density along one line, spin component           2
         0         1         2         3         4         5         6         7         8         9
 total charge-density along one line
 
 pseudopotential strength for first ion, spin component:           1
-14.759  -0.000   0.000  -0.024   0.000   1.794  -0.000  -0.000
 -0.000 -14.743  -0.007  -0.000   0.020  -0.000   1.785   0.004
  0.000  -0.007 -14.726  -0.000   0.002  -0.000   0.004   1.779
 -0.024  -0.000  -0.000 -14.748   0.000   0.011  -0.000   0.000
  0.000   0.020   0.002   0.000 -14.772  -0.000  -0.010  -0.001
  1.794  -0.000  -0.000   0.011  -0.000   5.003   0.000  -0.000
 -0.000   1.785   0.004  -0.000  -0.010   0.000   5.008  -0.002
 -0.000   0.004   1.779   0.000  -0.001  -0.000  -0.002   5.008
  0.011  -0.000   0.000   1.788  -0.000  -0.003   0.000  -0.000
 -0.000  -0.010  -0.001  -0.000   1.799   0.000   0.004   0.000
 -0.000  -0.003   0.002  -0.000   0.000   0.000   0.005  -0.004
  0.000   0.007  -0.005   0.000  -0.000  -0.000  -0.009   0.006
 -0.000   0.018   0.012  -0.000   0.013   0.000   0.003  -0.001
 -0.000  -0.012   0.023   0.000  -0.000   0.000  -0.004   0.001
 -0.020  -0.000   0.000   0.018  -0.000   0.001   0.000  -0.000
 -0.000   0.028   0.019  -0.000   0.020   0.000   0.005  -0.001
 -0.000  -0.018   0.035   0.000  -0.000   0.000  -0.008   0.004
 -0.031  -0.000   0.000   0.027  -0.000   0.001   0.000  -0.000
 pseudopotential strength for first ion, spin component:           2
-14.759  -0.000   0.000  -0.024  -0.000   1.794   0.000   0.000
 -0.000 -14.743  -0.007  -0.000   0.020   0.000   1.785   0.004
  0.000  -0.007 -14.726   0.000   0.002   0.000   0.004   1.779
 -0.024  -0.000   0.000 -14.748  -0.000   0.011   0.000  -0.000
 -0.000   0.020   0.002  -0.000 -14.772   0.000  -0.010  -0.001
  1.794   0.000   0.000   0.011   0.000   5.003  -0.000  -0.000
  0.000   1.785   0.004   0.000  -0.010  -0.000   5.008  -0.002
  0.000   0.004   1.779  -0.000  -0.001  -0.000  -0.002   5.008
  0.011   0.000  -0.000   1.788   0.000  -0.003   0.000   0.000
  0.000  -0.010  -0.001   0.000   1.799  -0.000   0.004   0.000
 -0.000  -0.003   0.002  -0.000   0.000   0.000   0.005  -0.004
  0.000   0.007  -0.005   0.000  -0.000  -0.000  -0.009   0.006
 -0.000   0.018   0.012   0.000   0.013   0.000   0.003  -0.001
  0.000  -0.012   0.023   0.000  -0.000  -0.000  -0.004   0.001
 -0.020   0.000  -0.000   0.018   0.000   0.001  -0.000   0.000
 -0.000   0.028   0.019   0.000   0.020   0.000   0.005  -0.001
  0.000  -0.018   0.035   0.000  -0.000  -0.000  -0.008   0.004
 -0.031   0.000  -0.000   0.027   0.000   0.001  -0.000   0.000
 total augmentation occupancy for first ion, spin component:           1
  1.994   0.000  -0.000   0.000   0.000  -0.007   0.000   0.000  -0.001   0.000  -0.000  -0.000  -0.000  -0.000   0.055   0.000
  0.000   1.994   0.000   0.000  -0.000   0.000  -0.010   0.001   0.000  -0.000  -0.003  -0.003  -0.133   0.149  -0.000   0.084
 -0.000   0.000   1.994   0.000  -0.000  -0.000   0.001  -0.007   0.000  -0.001   0.002   0.002  -0.023  -0.127   0.000   0.015
  0.000   0.000   0.000   1.994  -0.000  -0.001   0.000   0.000  -0.010  -0.000  -0.000  -0.000   0.000   0.000  -0.136  -0.000
  0.000  -0.000  -0.000  -0.000   1.994  -0.000  -0.000  -0.001   0.000  -0.010   0.000   0.000  -0.135  -0.001   0.000   0.085
 -0.007   0.000  -0.000  -0.001  -0.000   0.048  -0.000  -0.000  -0.008  -0.000   0.000   0.000   0.000   0.000  -0.233  -0.000
  0.000  -0.010   0.001   0.000  -0.000  -0.000   0.018   0.013   0.000  -0.003  -0.005   0.000   0.072   0.048   0.000  -0.023
  0.000   0.001  -0.007   0.000  -0.001  -0.000   0.013   0.049   0.000  -0.004   0.005  -0.000   0.164   0.161   0.000  -0.049
 -0.001   0.000   0.000  -0.010   0.000  -0.008   0.000   0.000   0.017   0.000  -0.000  -0.000   0.000   0.000   0.065  -0.000
  0.000  -0.000  -0.001  -0.000  -0.010  -0.000  -0.003  -0.004   0.000   0.012   0.004   0.002  -0.013  -0.005   0.000   0.003
 -0.000  -0.003   0.002  -0.000   0.000   0.000  -0.005   0.005  -0.000   0.004   2.188   0.081   0.214  -0.255  -0.000  -0.030
 -0.000  -0.003   0.002  -0.000   0.000   0.000   0.000  -0.000  -0.000   0.002   0.081   0.011  -0.056   0.067   0.000   0.017
 -0.000  -0.133  -0.023   0.000  -0.135   0.000   0.072   0.164   0.000  -0.013   0.214  -0.056   2.116  -0.201  -0.000  -0.631
 -0.000   0.149  -0.127   0.000  -0.001   0.000   0.048   0.161   0.000  -0.005  -0.255   0.067  -0.201   2.390  -0.000   0.034
  0.055  -0.000   0.000  -0.136   0.000  -0.233   0.000   0.000   0.065   0.000  -0.000   0.000  -0.000  -0.000   2.210   0.000
  0.000   0.084   0.015  -0.000   0.085  -0.000  -0.023  -0.049  -0.000   0.003  -0.030   0.017  -0.631   0.034   0.000   0.196
  0.000  -0.094   0.081  -0.000   0.001  -0.000  -0.014  -0.051  -0.000   0.002   0.035  -0.020   0.034  -0.710   0.000  -0.005
 -0.035   0.000  -0.000   0.086  -0.000   0.072  -0.000  -0.000  -0.020  -0.000   0.000   0.000   0.000   0.000  -0.687  -0.000
 total augmentation occupancy for first ion, spin component:           2
 -0.000   0.000  -0.000   0.000  -0.000  -0.000  -0.000  -0.000   0.000  -0.000   0.000   0.000  -0.000  -0.000  -0.000   0.000
  0.000  -0.000   0.000  -0.000   0.000   0.000  -0.000  -0.000   0.000   0.000  -0.000   0.000   0.000  -0.000  -0.000  -0.000
 -0.000   0.000  -0.000   0.000   0.000   0.000   0.000  -0.000   0.000  -0.000   0.000   0.000   0.000   0.000  -0.000   0.000
  0.000  -0.000   0.000  -0.000  -0.000  -0.000  -0.000  -0.000  -0.000  -0.000   0.000   0.000   0.000   0.000   0.000  -0.000
 -0.000   0.000   0.000  -0.000  -0.000  -0.000   0.000  -0.000  -0.000  -0.000   0.000   0.000   0.000  -0.000   0.000  -0.000
 -0.000   0.000   0.000  -0.000  -0.000   0.000  -0.000   0.000  -0.000   0.000  -0.000  -0.000  -0.000   0.000  -0.000   0.000
 -0.000  -0.000   0.000  -0.000   0.000  -0.000   0.000   0.000   0.000  -0.000  -0.000  -0.000   0.000   0.000  -0.000  -0.000
 -0.000  -0.000  -0.000  -0.000  -0.000   0.000   0.000   0.000  -0.000  -0.000   0.000   0.000   0.000   0.000  -0.000  -0.000
  0.000   0.000   0.000  -0.000  -0.000  -0.000   0.000  -0.000  -0.000  -0.000  -0.000   0.000   0.000  -0.000   0.000  -0.000
 -0.000   0.000  -0.000  -0.000  -0.000   0.000  -0.000  -0.000  -0.000  -0.000   0.000   0.000  -0.000  -0.000  -0.000   0.000
  0.000  -0.000   0.000   0.000   0.000  -0.000  -0.000   0.000  -0.000   0.000   0.000  -0.000  -0.000   0.000  -0.000   0.000
  0.000   0.000   0.000   0.000   0.000  -0.000  -0.000   0.000   0.000   0.000  -0.000  -0.000  -0.000   0.000  -0.000   0.000
 -0.000   0.000   0.000   0.000   0.000  -0.000   0.000   0.000   0.000  -0.000  -0.000  -0.000  -0.000   0.000  -0.000   0.000
 -0.000  -0.000   0.000   0.000  -0.000   0.000   0.000   0.000  -0.000  -0.000   0.000   0.000   0.000  -0.000  -0.000  -0.000
 -0.000  -0.000  -0.000   0.000   0.000  -0.000  -0.000  -0.000   0.000  -0.000  -0.000  -0.000  -0.000  -0.000  -0.000  -0.000
  0.000  -0.000   0.000  -0.000  -0.000   0.000  -0.000  -0.000  -0.000   0.000   0.000   0.000   0.000  -0.000  -0.000  -0.000
  0.000   0.000  -0.000  -0.000   0.000   0.000  -0.000  -0.000   0.000   0.000  -0.000  -0.000  -0.000   0.000   0.000   0.000
  0.000   0.000   0.000   0.000  -0.000   0.000   0.000   0.000  -0.000   0.000   0.000   0.000   0.000   0.000   0.000  -0.000


------------------------ aborting loop because EDIFF is reached ----------------------------------------





 total charge

# of ion       s       p       d       tot
------------------------------------------
    1        1.372   0.742  10.009  12.124
    2        1.372   0.742  10.009  12.124
    3        1.372   0.742  10.009  12.124
    4        1.372   0.742  10.009  12.124
    5        1.343   2.367   0.000   3.710
    6        1.343   2.367   0.000   3.710
    7        1.343   2.367   0.000   3.710
    8        1.343   2.367   0.000   3.710
--------------------------------------------------
tot         10.861  12.438  40.037  63.335



 magnetization (x)

# of ion       s       p       d       tot
------------------------------------------
    1       -0.000   0.000  -0.000  -0.000
    2       -0.000   0.000  -0.000  -0.000
    3       -0.000   0.000  -0.000  -0.000
    4       -0.000   0.000  -0.000  -0.000
    5        0.000  -0.000   0.000  -0.000
    6        0.000  -0.000   0.000  -0.000
    7        0.000  -0.000   0.000  -0.000
    8        0.000  -0.000   0.000  -0.000
--------------------------------------------------
tot         -0.000  -0.000  -0.000  -0.000
 
    CHARGE:  cpu time      0.1054: real time      0.1057
    FORLOC:  cpu time      0.0010: real time      0.0010
    FORHF :  cpu time    105.5643: real time    105.8549
    FORNL :  cpu time      0.1079: real time      0.1089
    FORCOR:  cpu time      0.9774: real time      0.9803
    FORHAR:  cpu time      0.0053: real time      0.0055
    MIXING:  cpu time      0.0005: real time      0.0005
    OFIELD:  cpu time      0.0011: real time      0.0011

 VOLUME and BASIS-vectors are now :
 -----------------------------------------------------------------------------
  energy-cutoff  :      680.00
  volume of cell :      204.32
      direct lattice vectors                 reciprocal lattice vectors
     3.956855210  0.000000000  0.000000000     0.252725952  0.000000000  0.000000000
    -0.000000000  4.532810690  0.000000000     0.000000000  0.220613670  0.000000000
     0.000000000  0.000000000 11.392018510    -0.000000000 -0.000000000  0.087780756

  length of vectors
     3.956855210  4.532810690 11.392018510     0.252725952  0.220613670  0.087780756


 FORCES acting on ions
    electron-ion (+dipol)            ewald-force                    non-local-force                 convergence-correction
 -----------------------------------------------------------------------------------------------
   -.365E-05 -.225E+02 0.658E+02   0.369E-13 0.343E+02 -.798E+02   0.806E-15 -.112E+02 0.133E+02   0.173E-05 -.846E-03 -.652E-03
   0.424E-05 0.225E+02 -.658E+02   -.225E-13 -.343E+02 0.798E+02   -.750E-15 0.112E+02 -.133E+02   -.619E-05 0.843E-03 0.655E-03
   0.231E-06 -.225E+02 -.658E+02   -.200E-13 0.343E+02 0.798E+02   0.848E-15 -.112E+02 -.133E+02   0.591E-05 -.836E-03 0.624E-03
   -.789E-06 0.225E+02 0.658E+02   0.134E-13 -.343E+02 -.798E+02   -.787E-15 0.112E+02 0.133E+02   -.968E-06 0.849E-03 -.625E-03
   -.164E-05 -.477E+02 -.540E+02   0.150E-13 0.497E+02 0.562E+02   0.351E-16 -.183E+01 -.192E+01   0.865E-06 0.591E-03 0.121E-02
   0.181E-05 0.477E+02 0.540E+02   -.297E-13 -.497E+02 -.562E+02   -.354E-16 0.183E+01 0.192E+01   -.132E-05 -.596E-03 -.121E-02
   0.388E-05 -.477E+02 0.540E+02   -.137E-13 0.497E+02 -.562E+02   0.814E-16 -.183E+01 0.192E+01   -.224E-05 0.594E-03 -.120E-02
   -.417E-05 0.477E+02 -.540E+02   0.151E-13 -.497E+02 0.562E+02   -.634E-16 0.183E+01 -.192E+01   0.261E-05 -.589E-03 0.120E-02
 -----------------------------------------------------------------------------------------------
   -.827E-07 -.167E-05 0.968E-06   -.550E-14 0.000E+00 -.213E-13   0.134E-15 -.178E-14 0.222E-15   0.400E-06 0.895E-05 0.210E-08
 
 
 POSITION                                       TOTAL-FORCE (eV/Angst)
 -----------------------------------------------------------------------------------
      0.98921      1.67505      7.08165         0.000000     -0.038023      0.043600
      2.96764      2.85776      4.31037        -0.000000      0.038023     -0.043600
      2.96764      3.94146     10.00638         0.000000     -0.038023     -0.043600
      0.98921      0.59135      1.38564        -0.000000      0.038023      0.043600
      0.98921      0.04803      3.95870         0.000000     -0.020945     -0.021280
      2.96764      4.48478      7.43332        -0.000000      0.020945      0.021280
      2.96764      2.31444      1.73731         0.000000     -0.020945      0.021280
      0.98921      2.21837      9.65471        -0.000000      0.020945     -0.021280
 -----------------------------------------------------------------------------------
    total drift:                                0.000000      0.000007      0.000001


--------------------------------------------------------------------------------------------------------



  FREE ENERGIE OF THE ION-ELECTRON SYSTEM (eV)
  ---------------------------------------------------
  free  energy   TOTEN  =       -42.51824429 eV

  energy  without entropy=      -42.51824429  energy(sigma->0) =      -42.51824429
 


--------------------------------------------------------------------------------------------------------


    POTLOK:  cpu time      0.9804: real time      0.9832


--------------------------------------------------------------------------------------------------------


 writing wavefunctions
     LOOP+:  cpu time   1918.7161: real time   1925.4803
    4ORBIT:  cpu time      0.0000: real time      0.0000



 total charge

# of ion       s       p       d       tot
------------------------------------------
    1        1.372   0.742  10.009  12.124
    2        1.372   0.742  10.009  12.124
    3        1.372   0.742  10.009  12.124
    4        1.372   0.742  10.009  12.124
    5        1.343   2.367   0.000   3.710
    6        1.343   2.367   0.000   3.710
    7        1.343   2.367   0.000   3.710
    8        1.343   2.367   0.000   3.710
--------------------------------------------------
tot         10.861  12.438  40.037  63.335



 magnetization (x)

# of ion       s       p       d       tot
------------------------------------------
    1       -0.000   0.000  -0.000  -0.000
    2       -0.000   0.000  -0.000  -0.000
    3       -0.000   0.000  -0.000  -0.000
    4       -0.000   0.000  -0.000  -0.000
    5        0.000  -0.000   0.000  -0.000
    6        0.000  -0.000   0.000  -0.000
    7        0.000  -0.000   0.000  -0.000
    8        0.000  -0.000   0.000  -0.000
--------------------------------------------------
tot         -0.000  -0.000  -0.000  -0.000
 
 BZINTS: Fermi energy:    5.301958;   80.000000 electrons
         Band energy:-0.750988E+03;  BLOECHL correction:    0.000000

 total amount of memory used by VASP MPI-rank0    51332. kBytes
=======================================================================

   base      :      30000. kBytes
   nonl-proj :       6082. kBytes
   fftplans  :       1142. kBytes
   grid      :       2524. kBytes
   one-center:         31. kBytes
   HF        :         64. kBytes
   nonlr-proj:       1215. kBytes
   wavefun   :       3409. kBytes
   fock_wrk  :       6865. kBytes
 
  
  
 General timing and accounting informations for this job:
 ========================================================
  
                  Total CPU time used (sec):     1935.761
                            User time (sec):     1931.462
                          System time (sec):        4.299
                         Elapsed time (sec):     1951.299
  
                   Maximum memory used (kb):      317424.
                   Average memory used (kb):          N/A
  
                          Minor page faults:       214142
                          Major page faults:            0
                 Voluntary context switches:        19171
