 vasp.6.4.2 20Jul23 (build Mar 15 2024 16:31:38) complex                        
  
 executed on             LinuxIFC date 2025.03.26  18:03:25
 running  120 mpi-ranks, on    3 nodes
 distrk:  each k-point on  120 cores,    1 groups
 distr:  one band on NCORE=  10 cores,   12 groups


--------------------------------------------------------------------------------------------------------


 INCAR:
   ALGO = Normal
   EDIFF = 1e-05
   ENAUG = 1360
   ENCUT = 680
   GGA = Pe
   HFSCREEN = 0.2
   ISMEAR = 0
   ISPIN = 2
   LAECHG = True
   LASPH = True
   LCHARG = True
   LDAU = False
   LELF = False
   LHFCALC = True
   LMAXMIX = 4
   LMIXTAU = True
   LORBIT = 11
   LREAL = False
   LVTOT = True
   LWAVE = True
   MAGMOM = 8*0.6
   NCORE = 10
   NELM = 200
   NSW = 0
   PREC = Accurate
   PRECFOCK = Fast
   SIGMA = 0.01

 POTCAR:    PAW_PBE Ga_d 06Jul2010                
 POTCAR:    PAW_PBE Cu 22Jun2005                  
 POTCAR:    PAW_PBE Se 06Sep2000                  
 WARNING: For LVTOT=.TRUE., VASP.5.x writes the TOTAL local potential to the
     file LOCPOT. If you want only the Hartree contributions, use LVHAR=.TRUE.
     instead. 

 POTCAR:    PAW_PBE Ga_d 06Jul2010                
   VRHFIN =Ga: s2p1                                                                                 
   LEXCH  = PE                                                                                      
   EATOM  =  2148.8298 eV,  157.9345 Ry                                                             
                                                                                                    
   TITEL  = PAW_PBE Ga_d 06Jul2010                                                                  
   LULTRA =        F    use ultrasoft PP ?                                                          
   IUNSCR =        1    unscreen: 0-lin 1-nonlin 2-no                                               
   RPACOR =    1.700    partial core radius                                                         
   POMASS =   69.723; ZVAL   =   13.000    mass and valenz                                          
   RCORE  =    2.300    outmost cutoff radius                                                       
   RWIGS  =    2.300; RWIGS  =    1.217    wigner-seitz radius (au A)                               
   ENMAX  =  282.691; ENMIN  =  212.018 eV                                                          
   ICORE  =        3    local potential                                                             
   LCOR   =        T    correct aug charges                                                         
   LPAW   =        T    paw PP                                                                      
   EAUG   =  490.690                                                                                
   DEXC   =    0.000                                                                                
   RMAX   =    2.341    core radius for proj-oper                                                   
   RAUG   =    1.300    factor for augmentation sphere                                              
   RDEP   =    2.413    radius for radial grids                                                     
   RDEPT  =    1.856    core radius for aug-charge                                                  
                                                                                                    
   Atomic configuration                                                                             
    9 entries                                                                                       
     n  l   j            E        occ.                                                              
     1  0  0.50    -10228.7831   2.0000                                                             
     2  0  0.50     -1262.1604   2.0000                                                             
     2  1  1.50     -1098.6333   6.0000                                                             
     3  0  0.50      -148.1110   2.0000                                                             
     3  1  1.50       -98.8436   6.0000                                                             
     3  2  2.50       -19.1549  10.0000                                                             
     4  0  0.50        -8.9483   2.0000                                                             
     4  1  0.50        -2.5791   1.0000                                                             
     4  3  2.50        -2.7416   0.0000                                                             
   Description                                                                                      
     l       E           TYP  RCUT    TYP  RCUT                                                     
     2    -19.1549037     23  2.300                                                                 
     2     -5.4423304     23  2.300                                                                 
     0     -8.9483111     23  2.300                                                                 
     0     68.0291300     23  2.300                                                                 
     1     -2.5790802     23  2.100                                                                 
     1     81.6349560     23  2.300                                                                 
     3      6.8029130     23  2.300                                                                 
  local pseudopotential read in
  partial core-charges read in
  partial kinetic energy density read in
  atomic valenz-charges read in
  non local Contribution for L=           2  read in
    real space projection operators read in
  non local Contribution for L=           2  read in
    real space projection operators read in
  non local Contribution for L=           0  read in
    real space projection operators read in
  non local Contribution for L=           0  read in
    real space projection operators read in
  non local Contribution for L=           1  read in
    real space projection operators read in
  non local Contribution for L=           1  read in
    real space projection operators read in
    PAW grid and wavefunctions read in
 
   number of l-projection  operators is LMAX  =           6
   number of lm-projection operators is LMMAX =          18
 
 POTCAR:    PAW_PBE Cu 22Jun2005                  
   VRHFIN =Cu: d10 p1                                                                               
   LEXCH  = PE                                                                                      
   EATOM  =  1390.9808 eV,  102.2342 Ry                                                             
                                                                                                    
   TITEL  = PAW_PBE Cu 22Jun2005                                                                    
   LULTRA =        F    use ultrasoft PP ?                                                          
   IUNSCR =        1    unscreen: 0-lin 1-nonlin 2-no                                               
   RPACOR =    2.000    partial core radius                                                         
   POMASS =   63.546; ZVAL   =   11.000    mass and valenz                                          
   RCORE  =    2.300    outmost cutoff radius                                                       
   RWIGS  =    2.200; RWIGS  =    1.164    wigner-seitz radius (au A)                               
   ENMAX  =  295.446; ENMIN  =  221.585 eV                                                          
   ICORE  =        3    local potential                                                             
   LCOR   =        T    correct aug charges                                                         
   LPAW   =        T    paw PP                                                                      
   EAUG   =  586.980                                                                                
   DEXC   =    0.000                                                                                
   RMAX   =    2.344    core radius for proj-oper                                                   
   RAUG   =    1.300    factor for augmentation sphere                                              
   RDEP   =    2.302    radius for radial grids                                                     
   RDEPT  =    1.771    core radius for aug-charge                                                  
                                                                                                    
   Atomic configuration                                                                             
    9 entries                                                                                       
     n  l   j            E        occ.                                                              
     1  0  0.50     -8850.2468   2.0000                                                             
     2  0  0.50     -1062.3498   2.0000                                                             
     2  1  1.50      -916.8226   6.0000                                                             
     3  0  0.50      -114.6929   2.0000                                                             
     3  1  1.50       -72.1325   6.0000                                                             
     3  2  2.50        -5.0394  10.0000                                                             
     4  0  0.50        -4.6097   1.0000                                                             
     4  1  0.50        -4.0817   0.0000                                                             
     4  3  2.50        -1.3606   0.0000                                                             
   Description                                                                                      
     l       E           TYP  RCUT    TYP  RCUT                                                     
     2     -5.0393973     23  2.200                                                                 
     2     10.8846608     23  2.200                                                                 
     0     -4.6097109     23  2.200                                                                 
     0      8.2520465     23  2.200                                                                 
     1     -2.7211652     23  2.200                                                                 
     1     21.7055443     23  2.200                                                                 
     3      2.7211652     23  2.300                                                                 
  local pseudopotential read in
  partial core-charges read in
  partial kinetic energy density read in
  atomic valenz-charges read in
  non local Contribution for L=           2  read in
    real space projection operators read in
  non local Contribution for L=           2  read in
    real space projection operators read in
  non local Contribution for L=           0  read in
    real space projection operators read in
  non local Contribution for L=           0  read in
    real space projection operators read in
  non local Contribution for L=           1  read in
    real space projection operators read in
  non local Contribution for L=           1  read in
    real space projection operators read in
    PAW grid and wavefunctions read in
 
   number of l-projection  operators is LMAX  =           6
   number of lm-projection operators is LMMAX =          18
 
 POTCAR:    PAW_PBE Se 06Sep2000                  
   VRHFIN =Se: s2p4                                                                                 
   LEXCH  = PE                                                                                      
   EATOM  =   257.1286 eV,   18.8984 Ry                                                             
                                                                                                    
   TITEL  = PAW_PBE Se 06Sep2000                                                                    
   LULTRA =        F    use ultrasoft PP ?                                                          
   IUNSCR =        1    unscreen: 0-lin 1-nonlin 2-no                                               
   RPACOR =    1.900    partial core radius                                                         
   POMASS =   78.960; ZVAL   =    6.000    mass and valenz                                          
   RCORE  =    2.100    outmost cutoff radius                                                       
   RWIGS  =    2.200; RWIGS  =    1.164    wigner-seitz radius (au A)                               
   ENMAX  =  211.555; ENMIN  =  158.666 eV                                                          
   ICORE  =        3    local potential                                                             
   LCOR   =        T    correct aug charges                                                         
   LPAW   =        T    paw PP                                                                      
   EAUG   =  446.842                                                                                
   DEXC   =    0.000                                                                                
   RMAX   =    2.147    core radius for proj-oper                                                   
   RAUG   =    1.300    factor for augmentation sphere                                              
   RDEP   =    2.177    radius for radial grids                                                     
   RDEPT  =    1.928    core radius for aug-charge                                                  
                                                                                                    
   Atomic configuration                                                                             
   10 entries                                                                                       
     n  l   j            E        occ.                                                              
     1  0  0.50    -12503.4787   2.0000                                                             
     2  0  0.50     -1606.9547   2.0000                                                             
     2  1  1.50     -1413.3140   6.0000                                                             
     3  0  0.50      -213.4885   2.0000                                                             
     3  1  1.50      -152.9538   6.0000                                                             
     3  2  2.50       -53.1221  10.0000                                                             
     4  0  0.50       -17.2865   2.0000                                                             
     4  1  0.50        -6.5110   4.0000                                                             
     4  2  2.50        -6.8029   0.0000                                                             
     4  3  2.50        -6.8029   0.0000                                                             
   Description                                                                                      
     l       E           TYP  RCUT    TYP  RCUT                                                     
     0    -17.2865377     23  2.100                                                                 
     0    -15.3094411     23  2.100                                                                 
     1     -6.5110275     23  2.100                                                                 
     1     -0.0695192     23  2.100                                                                 
     2     -6.8029130     23  2.100                                                                 
     3     -1.3605826      7  2.100                                                                 
  local pseudopotential read in
  partial core-charges read in
  partial kinetic energy density read in
  atomic valenz-charges read in
  non local Contribution for L=           0  read in
    real space projection operators read in
  non local Contribution for L=           0  read in
    real space projection operators read in
  non local Contribution for L=           1  read in
    real space projection operators read in
  non local Contribution for L=           1  read in
    real space projection operators read in
  non local Contribution for L=           2  read in
    real space projection operators read in
    PAW grid and wavefunctions read in
 
   number of l-projection  operators is LMAX  =           5
   number of lm-projection operators is LMMAX =          13
 
  PAW_PBE Ga_d 06Jul2010                :
 energy of atom  1       EATOM=-2148.8298
 kinetic energy error for atom=    0.0008 (will be added to EATOM!!)
  PAW_PBE Cu 22Jun2005                  :
 energy of atom  2       EATOM=-1390.9808
 kinetic energy error for atom=    0.0018 (will be added to EATOM!!)
  PAW_PBE Se 06Sep2000                  :
 energy of atom  3       EATOM= -257.1286
 kinetic energy error for atom=    0.0004 (will be added to EATOM!!)
 
 
 POSCAR: Ga2 Cu2 Se4
  positions in direct lattice
  No initial velocities read in
 exchange correlation table for  LEXCH =        8
   RHO(1)=    0.500       N(1)  =     2000
   RHO(2)=  100.500       N(2)  =     4000
 


--------------------------------------------------------------------------------------------------------


 ion  position               nearest neighbor table
   1  0.500  0.500  0.000-   8 2.43   7 2.43   6 2.43   5 2.43
   2  0.750  0.250  0.500-   6 2.43   8 2.43   5 2.43   7 2.43
   3  0.000  0.000  0.000-   5 2.41   6 2.41   7 2.41   8 2.41
   4  0.250  0.750  0.500-   7 2.41   5 2.41   8 2.41   6 2.41
   5  0.371  0.375  0.250-   3 2.41   4 2.41   2 2.43   1 2.43
   6  0.125  0.629  0.750-   3 2.41   4 2.41   2 2.43   1 2.43
   7  0.625  0.121  0.750-   4 2.41   3 2.41   1 2.43   2 2.43
   8  0.879  0.875  0.250-   4 2.41   3 2.41   1 2.43   2 2.43
 
  LATTYP: Found a body centered tetragonal cell.
 ALAT       =     5.6027357700
 C/A-ratio  =     1.9830197459
  
  Lattice vectors:
  
 A1 = (   1.0357585192,  -5.0026425748,  -4.5228292072)
 A2 = (  -5.1087403584,   0.0000000000,  -4.5228296824)
 A3 = (   4.0729818392,   5.0026425748,   2.2225205196)


Analysis of symmetry for initial positions (statically):
=====================================================================
 Subroutine PRICEL returns:
 Original cell was already a primitive cell.
 

 Routine SETGRP: Setting up the symmetry group for a 
 body centered tetragonal supercell.


 Subroutine GETGRP returns: Found  8 space group operations
 (whereof  4 operations were pure point group operations)
 out of a pool of 16 trial point group operations.


The static configuration has the point symmetry S_4 .
 The point group associated with its full space group is D_2d.


Analysis of symmetry for dynamics (positions and initial velocities):
=====================================================================
 Subroutine PRICEL returns:
 Original cell was already a primitive cell.
 

 Routine SETGRP: Setting up the symmetry group for a 
 body centered tetragonal supercell.


 Subroutine GETGRP returns: Found  8 space group operations
 (whereof  4 operations were pure point group operations)
 out of a pool of 16 trial point group operations.


The dynamic configuration has the point symmetry S_4 .
 The point group associated with its full space group is D_2d.


Analysis of structural, dynamic, and magnetic symmetry:
=====================================================================
 Subroutine PRICEL returns:
 Original cell was already a primitive cell.
 

 Routine SETGRP: Setting up the symmetry group for a 
 body centered tetragonal supercell.


 Subroutine GETGRP returns: Found  8 space group operations
 (whereof  4 operations were pure point group operations)
 out of a pool of 16 trial point group operations.


The overall configuration has the point symmetry S_4 .
 The point group associated with its full space group is D_2d.


 Subroutine INISYM returns: Found  8 space group operations
 (whereof  4 operations are pure point group operations),
 and found     1 'primitive' translations


----------------------------------------------------------------------------------------

                                     Primitive cell                                     

  volume of cell :     174.3803

  direct lattice vectors                    reciprocal lattice vectors
     5.108740358  0.000000000 -2.300308688     0.195742968  0.040527070  0.000000000
    -1.035758519  5.002642575 -2.300309163     0.000000000  0.199894353  0.000000000
     0.000000000  0.000000000  6.823138370     0.065991517  0.081054136  0.146560123

  length of vectors
     5.602735770  5.602736000  6.823138370     0.199894354  0.199894353  0.180012563

  position of ions in fractional coordinates (direct lattice)
     0.500000000  0.500000000  1.000000000
     0.750000000  0.250000000  0.500000000
     0.000000000  0.000000000  0.000000000
     0.250000000  0.750000000  0.500000000
     0.371215780  0.375000000  0.250000000
     0.125000000  0.628784220  0.750000000
     0.625000000  0.121215780  0.750000000
     0.878784220  0.875000000  0.250000000

  ion indices of the primitive-cell ions
   primitive index   ion index
                 1           1
                 2           2
                 3           3
                 4           4
                 5           5
                 6           6
                 7           7
                 8           8

----------------------------------------------------------------------------------------

 
 
 KPOINTS: k-points for static calculation specifie

Read explicit list of k-points.

 Found      1 k-points:

 Following reciprocal coordinates:
            Coordinates               Weight
  0.000000  0.000000  0.000000      1.000000

 Following cartesian coordinates:
            Coordinates               Weight
  0.000000  0.000000  0.000000      1.000000
 
 
 Subroutine IBZKPT_HF returns following result:
 ==============================================
 
 Found      1 k-points in 1st BZ
 the following      1 k-points will be used (e.g. in the exchange kernel)
 Following reciprocal coordinates:   # in IRBZ
  0.000000  0.000000  0.000000    1.00000000   1 t-inv F


--------------------------------------------------------------------------------------------------------




 Dimension of arrays:
   k-points           NKPTS =      1   k-points in BZ     NKDIM =      1   number of bands    NBANDS=     48
   number of dos      NEDOS =    301   number of ions     NIONS =      8
   non local maximal  LDIM  =      6   non local SUM 2l+1 LMDIM =     18
   total plane-waves  NPLWV = 138240
   max r-space proj   IRMAX =      1   max aug-charges    IRDMAX=  34767
   dimension x,y,z NGX =    48 NGY =   48 NGZ =   60
   dimension x,y,z NGXF=    96 NGYF=   96 NGZF=  120
   support grid    NGXF=    96 NGYF=   96 NGZF=  120
   ions per type =               2   2   4
   NGX,Y,Z   is equivalent  to a cutoff of  14.24, 14.24, 14.62 a.u.
   NGXF,Y,Z  is equivalent  to a cutoff of  28.49, 28.49, 29.24 a.u.

 SYSTEM =  unknown system                          
 POSCAR =  Ga2 Cu2 Se4                             

 Startparameter for this run:
   NWRITE =      2    write-flag & timer
   PREC   = accura    normal or accurate (medium, high low for compatibility)
   ISTART =      0    job   : 0-new  1-cont  2-samecut
   ICHARG =      2    charge: 1-file 2-atom 10-const
   ISPIN  =      2    spin polarized calculation?
   LNONCOLLINEAR =      F non collinear calculations
   LSORBIT =      F    spin-orbit coupling
   INIWAV =      1    electr: 0-lowe 1-rand  2-diag
   LASPH  =      T    aspherical Exc in radial PAW
 Electronic Relaxation 1
   ENCUT  =  680.0 eV  49.98 Ry    7.07 a.u.  11.91 11.91 14.51*2*pi/ulx,y,z
   ENINI  =  680.0     initial cutoff
   ENAUG  = 1360.0 eV  augmentation charge cutoff
   NELM   =    200;   NELMIN=  2; NELMDL= -5     # of ELM steps 
   EDIFF  = 0.1E-04   stopping-criterion for ELM
   LREAL  =      F    real-space projection
   NLSPLINE    = F    spline interpolate recip. space projectors
   LCOMPAT=      F    compatible to vasp.4.4
   GGA_COMPAT  = T    GGA compatible to vasp.4.4-vasp.4.6
   LMAXPAW     = -100 max onsite density
   LMAXMIX     =    4 max onsite mixed and CHGCAR
   VOSKOWN=      0    Vosko Wilk Nusair interpolation
   ROPT   =    0.00000   0.00000   0.00000
 Ionic relaxation
   EDIFFG = 0.1E-03   stopping-criterion for IOM
   NSW    =      0    number of steps for IOM
   NBLOCK =      1;   KBLOCK =      1    inner block; outer block 
   IBRION =     -1    ionic relax: 0-MD 1-quasi-New 2-CG
   NFREE  =      0    steps in history (QN), initial steepest desc. (CG)
   ISIF   =      0    stress and relaxation
   IWAVPR =     10    prediction:  0-non 1-charg 2-wave 3-comb
   ISYM   =      3    0-nonsym 1-usesym 2-fastsym
   LCORR  =      T    Harris-Foulkes like correction to forces

   POTIM  = 0.5000    time-step for ionic-motion
   TEIN   =    0.0    initial temperature
   TEBEG  =    0.0;   TEEND  =   0.0 temperature during run
   SMASS  =  -3.00    Nose mass-parameter (am)
   estimated Nose-frequenzy (Omega)   =  0.10E-29 period in steps = 0.13E+47 mass=  -0.717E-27a.u.
   SCALEE = 1.0000    scale energy and forces
   NPACO  =    256;   APACO  = 10.0  distance and # of slots for P.C.
   PSTRESS=    0.0 pullay stress

  Mass of Ions in am
   POMASS =  69.72 63.55 78.96
  Ionic Valenz
   ZVAL   =  13.00 11.00  6.00
  Atomic Wigner-Seitz radii
   RWIGS  =  -1.00 -1.00 -1.00
  virtual crystal weights 
   VCA    =   1.00  1.00  1.00
   NELECT =      72.0000    total number of electrons
   NUPDOWN=      -1.0000    fix difference up-down

 DOS related values:
   EMIN   =  10.00;   EMAX   =-10.00  energy-range for DOS
   EFERMI =   0.00;   METHOD = LEGACY      
   ISMEAR =     0;   SIGMA  =   0.01  broadening in eV -4-tet -1-fermi 0-gaus

 Electronic relaxation 2 (details)
   IALGO  =     38    algorithm
   LDIAG  =      T    sub-space diagonalisation (order eigenvalues)
   LSUBROT=      F    optimize rotation matrix (better conditioning)
   TURBO    =      0    0=normal 1=particle mesh
   IRESTART =      0    0=no restart 2=restart with 2 vectors
   NREBOOT  =      0    no. of reboots
   NMIN     =      0    reboot dimension
   EREF     =   0.00    reference energy to select bands
   IMIX   =      1    mixing-type and parameters
     AMIX     =   0.40;   BMIX     =  1.00
     AMIX_MAG =   1.60;   BMIX_MAG =  1.00
     AMIN     =   0.10
     WC   =   100.;   INIMIX=   1;  MIXPRE=   1;  MAXMIX= -45

 Intra band minimization:
   WEIMIN = 0.0000     energy-eigenvalue tresh-hold
   EBREAK =  0.52E-07  absolut break condition
   DEPER  =   0.30     relativ break condition  

   TIME   =   0.40     timestep for ELM

  volume/ion in A,a.u.               =      21.80       147.10
  Fermi-wavevector in a.u.,A,eV,Ry     =   1.219045  2.303662 20.219229  1.486071
  Thomas-Fermi vector in A             =   2.354311
 
 Write flags
   LWAVE        =      T    write WAVECAR
   LDOWNSAMPLE  =      F    k-point downsampling of WAVECAR
   LCHARG       =      T    write CHGCAR
   LVTOT        =      T    write LOCPOT, total local potential
   LVHAR        =      F    write LOCPOT, Hartree potential only
   LELF         =      F    write electronic localiz. function (ELF)
   LORBIT       =     11    0 simple, 1 ext, 2 COOP (PROOUT), +10 PAW based schemes


 Dipole corrections
   LMONO  =      F    monopole corrections only (constant potential shift)
   LDIPOL =      F    correct potential (dipole corrections)
   IDIPOL =      0    1-x, 2-y, 3-z, 4-all directions 
   EPSILON=  1.0000000 bulk dielectric constant

 Exchange correlation treatment:
   GGA     =    PE    GGA type
   LEXCH   =     8    internal setting for exchange type
   LIBXC   =     F    Libxc                    
   VOSKOWN =     0    Vosko Wilk Nusair interpolation
   EXXOEP  =     0    0=HF, 1=EXX-LHF (local Hartree Fock) 2=EXX OEP
   LHFCALC =     T    Hartree Fock is set to
   LSYMGRAD=     F    symmetrize gradient (conserves proper symmetry)
   PRECFOCK=fast      Normal, Fast or Accurate (Low or Medium for compatibility)
   LRHFCALC=     F    long range Hartree Fock
   LRSCOR  =     F    long range correlation only (use DFT for short range part)
   LTHOMAS =     F    Thomas Fermi screening in HF
   LMODELHF=     F    short range full HF, long range fraction AEXX
   FOCKCORR=     1    mode to apply convergence corrections
   LFOCKACE=     T    use Adeptively-Compressed-Exchange operator
   ENCUT4O =  -1.0   cutoff for four orbital integrals eV
   LMAXFOCK=     4    L truncation for augmentation on plane wave grid
   LMAXFOCKAE=  -1    L truncation for all-electron charge restoration on plane wave grid
   NMAXFOCKAE=   1    number of basis functions for all-electron charge restoration
   LFOCKAEDFT=     F  apply the AE augmentation even for DFT
   NKREDX  =     1    reduce k-point grid by
   NKREDY  =     1    reduce k-point grid by
   NKREDZ  =     1    reduce k-point grid by
   SHIFTRED=     F    shift reduced grid of Gamma
   HFKIDENT=     F    idential grid for each k-point
   ODDONLY =     F    use only odd q-grid points
   EVENONLY=     F    use only even q-grid points
   HFALPHA =   -1.0000 decay constant for conv. correction
   MCALPHA =    0.0000 extent of test-charge in conv. correction in multipole expansion
   AEXX    =    0.2500 exact exchange contribution
   HFSCREEN=    0.2000 screening length (either q_TF or 0.3 A-1)
   HFSCREENC=   0.2000 screening length for correlation (either q_TF or 0.3 A-1)
   HFRCUT  =    0.0000 spherical cutoff for potential kernel
   ALDAX   =    0.7500 LDA exchange part
   AGGAX   =    0.7500 GGA exchange part
   ALDAC   =    1.0000 LDA correlation
   AGGAC   =    1.0000 GGA correlation
   ENCUTFOCK=  -1.0 apply spherical cutoff to Coloumb kernel
   NBANDSGWLOW=     1    first orbital included in HF term
   NBLOCK_FOCK=    64    blocking factor in FOCK_ACC

 Linear response parameters
   LEPSILON=     F    determine dielectric tensor
   LRPA    =     F    only Hartree local field effects (RPA)
   LNABLA  =     F    use nabla operator in PAW spheres
   LVEL    =     F    velocity operator in full k-point grid
   CSHIFT  =0.1000    complex shift for real part using Kramers Kronig
   OMEGAMAX=  -1.0    maximum frequency
   DEG_THRESHOLD= 0.2000000E-02 threshold for treating states as degnerate
   RTIME   =   -0.100 relaxation time in fs
  (WPLASMAI=    0.000 imaginary part of plasma frequency in eV, 0.658/RTIME)
   DFIELD  = 0.0000000 0.0000000 0.0000000 field for delta impulse in time
 
  Optional k-point grid parameters
   LKPOINTS_OPT  =     F    use optional k-point grid
   KPOINTS_OPT_MODE=     1    mode for optional k-point grid
 
 Orbital magnetization related:
   ORBITALMAG=     F  switch on orbital magnetization
   LCHIMAG   =     F  perturbation theory with respect to B field
   DQ        =  0.001000  dq finite difference perturbation B field
   LLRAUG    =     F  two centre corrections for induced B field
   LBONE     =     F  B-component reconstruction in AE one-centre
   LVGVCALC  =     T  calculate vGv susceptibility
   LVGVAPPL  =     F  apply vGv susceptibility instead of pGv for G=0

 Random number generation:
   RANDOM_GENERATOR = DEFAULT
   PCG_SEED         = not used


--------------------------------------------------------------------------------------------------------


 Static calculation
 charge density and potential will be updated during run
 spin polarized calculation
 Variant of blocked Davidson
 Davidson routine will perform the subspace rotation
 perform sub-space diagonalisation
    after iterative eigenvector-optimisation
 Kerker-like  mixing scheme
 using additional bands           12
 reciprocal scheme for non local part
 use partial core corrections
 calculate Harris-corrections to forces 
   (improved forces if not selfconsistent)
 use gradient corrections 
 use of overlap-Matrix (Vanderbilt PP)
 Gauss-broadening in eV      SIGMA  =   0.01


--------------------------------------------------------------------------------------------------------


  energy-cutoff  :      680.00
  volume of cell :      174.38
      direct lattice vectors                 reciprocal lattice vectors
     5.108740358  0.000000000 -2.300308688     0.195742968  0.040527070  0.000000000
    -1.035758519  5.002642575 -2.300309163     0.000000000  0.199894353  0.000000000
     0.000000000  0.000000000  6.823138370     0.065991517  0.081054136  0.146560123

  length of vectors
     5.602735770  5.602736000  6.823138370     0.199894354  0.199894353  0.180012563


 
 k-points in units of 2pi/SCALE and weight: k-points for static calculation specifie
   0.00000000  0.00000000  0.00000000       1.000
 
 k-points in reciprocal lattice and weights: k-points for static calculation specifie
   0.00000000  0.00000000  0.00000000       1.000
 
 position of ions in fractional coordinates (direct lattice) 
   0.50000000  0.50000000  0.00000000
   0.75000000  0.25000000  0.50000000
   0.00000000  0.00000000  0.00000000
   0.25000000  0.75000000  0.50000000
   0.37121578  0.37500000  0.25000000
   0.12500000  0.62878422  0.75000000
   0.62500000  0.12121578  0.75000000
   0.87878422  0.87500000  0.25000000
 
 position of ions in cartesian coordinates  (Angst):
   2.03649092  2.50132129 -2.30030893
   3.57261564  1.25066064  1.11126038
   0.00000000  0.00000000  0.00000000
   0.50036620  3.75198193  1.11126014
   1.50803559  1.87599097 -0.01074223
  -0.01267607  3.14558271  3.38341709
   3.06741245  0.60639922  3.40082708
   3.58319171  4.37731225 -2.32846090
 


--------------------------------------------------------------------------------------------------------


 k-point   1 :   0.0000 0.0000 0.0000  plane waves:    7043

 maximum and minimum number of plane-waves per node :       706      702

 maximum number of plane-waves:      7043
 maximum index in each direction: 
   IXMAX=   11   IYMAX=   11   IZMAX=   14
   IXMIN=  -11   IYMIN=  -11   IZMIN=  -14


 parallel 3D FFT for wavefunctions:
    minimum data exchange during FFTs selected (reduces bandwidth)
 parallel 3D FFT for charge:
    minimum data exchange during FFTs selected (reduces bandwidth)


 FFT grid for exact exchange (Hartree Fock) 
  NGX = 24; NGY = 24; NGZ = 30

 
 Radii for the augmentation spheres in the non-local exchange
 for species   1 augmentation radius   1.392 (default was   1.031)
       energy cutoff for augmentation   2720.0
 for species   2 augmentation radius   1.273 (default was   0.943)
       energy cutoff for augmentation   2720.0
 for species   3 augmentation radius   1.459 (default was   1.081)
       energy cutoff for augmentation   2720.0

 real space projection operators:
  total allocation   :       1771.09 KBytes
  max/ min on nodes  :        224.80        146.29

 Maximum index for augmentation-charges in exchange          246
  SETUP_FOCK is finished

 total amount of memory used by VASP MPI-rank0    34175. kBytes
=======================================================================

   base      :      30000. kBytes
   nonl-proj :        396. kBytes
   fftplans  :        960. kBytes
   grid      :       2187. kBytes
   one-center:         31. kBytes
   HF        :         64. kBytes
   nonlr-proj:        444. kBytes
   wavefun   :         93. kBytes
 
     INWAV:  cpu time      0.0001: real time      0.0005
 initial charge density was supplied:
 charge density of overlapping atoms calculated
 number of electron      72.0000000 magnetization       4.8000000
 keeping initial charge density in first step


--------------------------------------------------------------------------------------------------------


 Maximum index for augmentation-charges          927 (set IRDMAX)


--------------------------------------------------------------------------------------------------------


 First call to EWALD:  gamma=   0.317
 Maximum number of real-space cells 3x 3x 3
 Maximum number of reciprocal cells 3x 3x 3

    FEWALD:  cpu time      0.0025: real time      0.0026


--------------------------------------- Ionic step        1  -------------------------------------------




--------------------------------------- Iteration      1(   1)  ---------------------------------------


    POTLOK:  cpu time      0.0357: real time      0.1032
    SETDIJ:  cpu time      0.4821: real time      0.4839
     EDDAV:  cpu time      0.2029: real time      0.9175
       DOS:  cpu time      0.0043: real time      0.0048
    --------------------------------------------
      LOOP:  cpu time      0.7250: real time      1.5095

 eigenvalue-minimisations  :   192
 total energy-change (2. order) :-0.3248801E+04  (-0.3848861E+04)
 number of electron      72.0000000 magnetization       4.8000000
 augmentation part       72.0000000 magnetization       4.8000000

 Free energy of the ion-electron system (eV)
  ---------------------------------------------------
  alpha Z        PSCENC =       236.66789905
  Ewald energy   TEWEN  =     -4863.29910036
  -Hartree energ DENC   =     -2637.76833053
  -exchange      EXHF   =         0.00000000
  -V(xc)+E(xc)   XCENC  =       177.07437661
  PAW double counting   =      6503.67618105   -11078.28736089
  entropy T*S    EENTRO =        -0.00000000
  eigenvalues    EBANDS =       319.97813024
  atomic energy  EATOM  =      8093.15734121
  Solvation  Ediel_sol  =         0.00000000
  ---------------------------------------------------
  free energy    TOTEN  =     -3248.80086362 eV

  energy without entropy =    -3248.80086362  energy(sigma->0) =    -3248.80086362
  exchange ACFDT corr.  =         0.00000000  see jH, gK, PRB 81, 115126


--------------------------------------------------------------------------------------------------------




--------------------------------------- Iteration      1(   2)  ---------------------------------------


     EDDAV:  cpu time      0.0512: real time      0.1440
       DOS:  cpu time      0.0001: real time      0.0001
    --------------------------------------------
      LOOP:  cpu time      0.0513: real time      0.1441

 eigenvalue-minimisations  :   192
 total energy-change (2. order) :-0.6278217E+03  (-0.5973615E+03)
 number of electron      72.0000000 magnetization       4.8000000
 augmentation part       72.0000000 magnetization       4.8000000

 Free energy of the ion-electron system (eV)
  ---------------------------------------------------
  alpha Z        PSCENC =       236.66789905
  Ewald energy   TEWEN  =     -4863.29910036
  -Hartree energ DENC   =     -2637.76833053
  -exchange      EXHF   =         0.00000000
  -V(xc)+E(xc)   XCENC  =       177.07437661
  PAW double counting   =      6503.67618105   -11078.28736089
  entropy T*S    EENTRO =        -0.00000000
  eigenvalues    EBANDS =      -307.84357179
  atomic energy  EATOM  =      8093.15734121
  Solvation  Ediel_sol  =         0.00000000
  ---------------------------------------------------
  free energy    TOTEN  =     -3876.62256565 eV

  energy without entropy =    -3876.62256565  energy(sigma->0) =    -3876.62256565
  exchange ACFDT corr.  =         0.00000000  see jH, gK, PRB 81, 115126


--------------------------------------------------------------------------------------------------------




--------------------------------------- Iteration      1(   3)  ---------------------------------------


     EDDAV:  cpu time      0.0433: real time      0.1756
       DOS:  cpu time      0.0002: real time      0.0002
    --------------------------------------------
      LOOP:  cpu time      0.0434: real time      0.1758

 eigenvalue-minimisations  :   240
 total energy-change (2. order) :-0.1059029E+03  (-0.9882915E+02)
 number of electron      72.0000000 magnetization       4.8000000
 augmentation part       72.0000000 magnetization       4.8000000

 Free energy of the ion-electron system (eV)
  ---------------------------------------------------
  alpha Z        PSCENC =       236.66789905
  Ewald energy   TEWEN  =     -4863.29910036
  -Hartree energ DENC   =     -2637.76833053
  -exchange      EXHF   =         0.00000000
  -V(xc)+E(xc)   XCENC  =       177.07437661
  PAW double counting   =      6503.67618105   -11078.28736089
  entropy T*S    EENTRO =        -0.00000000
  eigenvalues    EBANDS =      -413.74651813
  atomic energy  EATOM  =      8093.15734121
  Solvation  Ediel_sol  =         0.00000000
  ---------------------------------------------------
  free energy    TOTEN  =     -3982.52551199 eV

  energy without entropy =    -3982.52551199  energy(sigma->0) =    -3982.52551199
  exchange ACFDT corr.  =         0.00000000  see jH, gK, PRB 81, 115126


--------------------------------------------------------------------------------------------------------




--------------------------------------- Iteration      1(   4)  ---------------------------------------


     EDDAV:  cpu time      0.0401: real time      0.0565
       DOS:  cpu time      0.0001: real time      0.0001
    --------------------------------------------
      LOOP:  cpu time      0.0403: real time      0.0567

 eigenvalue-minimisations  :   216
 total energy-change (2. order) :-0.6490313E+01  (-0.6453329E+01)
 number of electron      72.0000000 magnetization       4.8000000
 augmentation part       72.0000000 magnetization       4.8000000

 Free energy of the ion-electron system (eV)
  ---------------------------------------------------
  alpha Z        PSCENC =       236.66789905
  Ewald energy   TEWEN  =     -4863.29910036
  -Hartree energ DENC   =     -2637.76833053
  -exchange      EXHF   =         0.00000000
  -V(xc)+E(xc)   XCENC  =       177.07437661
  PAW double counting   =      6503.67618105   -11078.28736089
  entropy T*S    EENTRO =        -0.00000000
  eigenvalues    EBANDS =      -420.23683111
  atomic energy  EATOM  =      8093.15734121
  Solvation  Ediel_sol  =         0.00000000
  ---------------------------------------------------
  free energy    TOTEN  =     -3989.01582497 eV

  energy without entropy =    -3989.01582497  energy(sigma->0) =    -3989.01582497
  exchange ACFDT corr.  =         0.00000000  see jH, gK, PRB 81, 115126


--------------------------------------------------------------------------------------------------------




--------------------------------------- Iteration      1(   5)  ---------------------------------------


    POTLOK:  cpu time      0.0369: real time      0.0521
    SETDIJ:  cpu time      1.1716: real time      1.1745
     EDDAV:  cpu time      0.1881: real time      0.1930
       DOS:  cpu time      0.0001: real time      0.0001
    CHARGE:  cpu time      0.0101: real time      0.0322
    MIXING:  cpu time      0.0012: real time      0.0012
    --------------------------------------------
      LOOP:  cpu time      1.4081: real time      1.4532

 eigenvalue-minimisations  :   240
 total energy-change (2. order) : 0.3952303E+04  (-0.2593492E+01)
 number of electron      72.0000006 magnetization      -2.8800000
 augmentation part       26.9642436 magnetization      -2.7822450

 Free energy of the ion-electron system (eV)
  ---------------------------------------------------
  alpha Z        PSCENC =       236.66789905
  Ewald energy   TEWEN  =     -4863.29910036
  -Hartree energ DENC   =     -2637.76833053
  -exchange      EXHF   =       175.30176012
  -V(xc)+E(xc)   XCENC  =       131.57906539
  PAW double counting   =      6546.42584338    -7331.82884262
  entropy T*S    EENTRO =        -0.00000000
  eigenvalues    EBANDS =      -386.94867458
  atomic energy  EATOM  =      8093.15734121
  Solvation  Ediel_sol  =         0.00000000
  ---------------------------------------------------
  free energy    TOTEN  =       -36.71303894 eV

  energy without entropy =      -36.71303894  energy(sigma->0) =      -36.71303894
  exchange ACFDT corr.  =         0.00000000  see jH, gK, PRB 81, 115126


--------------------------------------------------------------------------------------------------------




--------------------------------------- Iteration      1(   6)  ---------------------------------------


    POTLOK:  cpu time      0.0362: real time      0.0507
    SETDIJ:  cpu time      1.1681: real time      1.1710
     EDDAV:  cpu time      0.1127: real time      0.1129
       DOS:  cpu time      0.0001: real time      0.0001
    CHARGE:  cpu time      0.0059: real time      0.0059
    MIXING:  cpu time      0.0002: real time      0.0002
    --------------------------------------------
      LOOP:  cpu time      1.3232: real time      1.3409

 eigenvalue-minimisations  :   264
 total energy-change (2. order) : 0.2806729E+00  (-0.3435146E+00)
 number of electron      72.0000009 magnetization       1.7280000
 augmentation part       26.9202408 magnetization       1.7389295

 Free energy of the ion-electron system (eV)
  ---------------------------------------------------
  alpha Z        PSCENC =       236.66789905
  Ewald energy   TEWEN  =     -4863.29910036
  -Hartree energ DENC   =     -2627.71812061
  -exchange      EXHF   =       171.22846558
  -V(xc)+E(xc)   XCENC  =       131.77028427
  PAW double counting   =      6982.91710747    -7773.85327386
  entropy T*S    EENTRO =        -0.00000000
  eigenvalues    EBANDS =      -387.30296873
  atomic energy  EATOM  =      8093.15734121
  Solvation  Ediel_sol  =         0.00000000
  ---------------------------------------------------
  free energy    TOTEN  =       -36.43236599 eV

  energy without entropy =      -36.43236599  energy(sigma->0) =      -36.43236599
  exchange ACFDT corr.  =         0.00000000  see jH, gK, PRB 81, 115126


--------------------------------------------------------------------------------------------------------




--------------------------------------- Iteration      1(   7)  ---------------------------------------


    POTLOK:  cpu time      0.0365: real time      0.0538
    SETDIJ:  cpu time      1.1718: real time      1.1747
     EDDAV:  cpu time      0.1197: real time      0.1200
       DOS:  cpu time      0.0001: real time      0.0003
    CHARGE:  cpu time      0.0062: real time      0.0062
    MIXING:  cpu time      0.0002: real time      0.0002
    --------------------------------------------
      LOOP:  cpu time      1.3345: real time      1.3551

 eigenvalue-minimisations  :   312
 total energy-change (2. order) :-0.3318603E-01  (-0.1437812E+00)
 number of electron      72.0000011 magnetization      -1.0368000
 augmentation part       27.1554652 magnetization      -1.0164914

 Free energy of the ion-electron system (eV)
  ---------------------------------------------------
  alpha Z        PSCENC =       236.66789905
  Ewald energy   TEWEN  =     -4863.29910036
  -Hartree energ DENC   =     -2615.50186039
  -exchange      EXHF   =       170.00032577
  -V(xc)+E(xc)   XCENC  =       131.63552707
  PAW double counting   =      7323.77937733    -8117.04000168
  entropy T*S    EENTRO =        -0.00000000
  eigenvalues    EBANDS =      -395.86506001
  atomic energy  EATOM  =      8093.15734121
  Solvation  Ediel_sol  =         0.00000000
  ---------------------------------------------------
  free energy    TOTEN  =       -36.46555202 eV

  energy without entropy =      -36.46555202  energy(sigma->0) =      -36.46555202
  exchange ACFDT corr.  =         0.00000000  see jH, gK, PRB 81, 115126


--------------------------------------------------------------------------------------------------------




--------------------------------------- Iteration      1(   8)  ---------------------------------------


    POTLOK:  cpu time      0.0405: real time      0.0532
    SETDIJ:  cpu time      1.1668: real time      1.1697
     EDDAV:  cpu time      0.1126: real time      0.1128
       DOS:  cpu time      0.0002: real time      0.0002
    CHARGE:  cpu time      0.0061: real time      0.0061
    MIXING:  cpu time      0.0002: real time      0.0002
    --------------------------------------------
      LOOP:  cpu time      1.3262: real time      1.3421

 eigenvalue-minimisations  :   264
 total energy-change (2. order) :-0.6828816E-01  (-0.3119227E-01)
 number of electron      72.0000012 magnetization       0.6220800
 augmentation part       27.1392272 magnetization       0.6233162

 Free energy of the ion-electron system (eV)
  ---------------------------------------------------
  alpha Z        PSCENC =       236.66789905
  Ewald energy   TEWEN  =     -4863.29910036
  -Hartree energ DENC   =     -2616.12929434
  -exchange      EXHF   =       170.13219796
  -V(xc)+E(xc)   XCENC  =       131.77949961
  PAW double counting   =      7601.50011874    -8398.64880504
  entropy T*S    EENTRO =        -0.00000000
  eigenvalues    EBANDS =      -391.69369701
  atomic energy  EATOM  =      8093.15734121
  Solvation  Ediel_sol  =         0.00000000
  ---------------------------------------------------
  free energy    TOTEN  =       -36.53384018 eV

  energy without entropy =      -36.53384018  energy(sigma->0) =      -36.53384018
  exchange ACFDT corr.  =         0.00000000  see jH, gK, PRB 81, 115126


--------------------------------------------------------------------------------------------------------




--------------------------------------- Iteration      1(   9)  ---------------------------------------


    POTLOK:  cpu time      0.0363: real time      0.0514
    SETDIJ:  cpu time      1.1670: real time      1.1700
     EDDAV:  cpu time      0.1117: real time      0.1119
       DOS:  cpu time      0.0002: real time      0.0002
    CHARGE:  cpu time      0.0060: real time      0.0062
    MIXING:  cpu time      0.0002: real time      0.0002
    --------------------------------------------
      LOOP:  cpu time      1.3214: real time      1.3399

 eigenvalue-minimisations  :   264
 total energy-change (2. order) :-0.1174369E-01  (-0.3602855E-02)
 number of electron      72.0000013 magnetization      -0.3732480
 augmentation part       27.1142868 magnetization      -0.3707822

 Free energy of the ion-electron system (eV)
  ---------------------------------------------------
  alpha Z        PSCENC =       236.66789905
  Ewald energy   TEWEN  =     -4863.29910036
  -Hartree energ DENC   =     -2615.42117247
  -exchange      EXHF   =       169.89563322
  -V(xc)+E(xc)   XCENC  =       131.82231993
  PAW double counting   =      7796.62502042    -8595.54171821
  entropy T*S    EENTRO =        -0.00000000
  eigenvalues    EBANDS =      -390.45180666
  atomic energy  EATOM  =      8093.15734121
  Solvation  Ediel_sol  =         0.00000000
  ---------------------------------------------------
  free energy    TOTEN  =       -36.54558387 eV

  energy without entropy =      -36.54558387  energy(sigma->0) =      -36.54558387
  exchange ACFDT corr.  =         0.00000000  see jH, gK, PRB 81, 115126


--------------------------------------------------------------------------------------------------------




--------------------------------------- Iteration      1(  10)  ---------------------------------------


    POTLOK:  cpu time      0.0365: real time      0.0527
    SETDIJ:  cpu time      1.1660: real time      1.1689
     EDDAV:  cpu time      0.1139: real time      0.1142
       DOS:  cpu time      0.0001: real time      0.0001
    CHARGE:  cpu time      0.0060: real time      0.0060
    MIXING:  cpu time      0.0002: real time      0.0002
    --------------------------------------------
      LOOP:  cpu time      1.3227: real time      1.3421

 eigenvalue-minimisations  :   276
 total energy-change (2. order) :-0.3646254E-02  (-0.1468336E-02)
 number of electron      72.0000013 magnetization       0.2239488
 augmentation part       27.1166439 magnetization       0.2238727

 Free energy of the ion-electron system (eV)
  ---------------------------------------------------
  alpha Z        PSCENC =       236.66789905
  Ewald energy   TEWEN  =     -4863.29910036
  -Hartree energ DENC   =     -2614.12921029
  -exchange      EXHF   =       169.82229552
  -V(xc)+E(xc)   XCENC  =       131.82308871
  PAW double counting   =      7912.15263643    -8711.77898197
  entropy T*S    EENTRO =        -0.00000000
  eigenvalues    EBANDS =      -390.96519842
  atomic energy  EATOM  =      8093.15734121
  Solvation  Ediel_sol  =         0.00000000
  ---------------------------------------------------
  free energy    TOTEN  =       -36.54923013 eV

  energy without entropy =      -36.54923013  energy(sigma->0) =      -36.54923013
  exchange ACFDT corr.  =         0.00000000  see jH, gK, PRB 81, 115126


--------------------------------------------------------------------------------------------------------




--------------------------------------- Iteration      1(  11)  ---------------------------------------


    POTLOK:  cpu time      0.0366: real time      0.0518
    SETDIJ:  cpu time      1.1664: real time      1.1693
     EDDAV:  cpu time      0.1079: real time      0.1081
       DOS:  cpu time      0.0002: real time      0.0002
    CHARGE:  cpu time      0.0061: real time      0.0062
    MIXING:  cpu time      0.0002: real time      0.0002
    --------------------------------------------
      LOOP:  cpu time      1.3174: real time      1.3357

 eigenvalue-minimisations  :   240
 total energy-change (2. order) :-0.2125572E-02  (-0.4796727E-03)
 number of electron      72.0000014 magnetization      -0.1343693
 augmentation part       27.1147666 magnetization      -0.1340016

 Free energy of the ion-electron system (eV)
  ---------------------------------------------------
  alpha Z        PSCENC =       236.66789905
  Ewald energy   TEWEN  =     -4863.29910036
  -Hartree energ DENC   =     -2613.74012280
  -exchange      EXHF   =       169.87486584
  -V(xc)+E(xc)   XCENC  =       131.83927646
  PAW double counting   =      7974.96431026    -8775.10468204
  entropy T*S    EENTRO =        -0.00000000
  eigenvalues    EBANDS =      -390.91114330
  atomic energy  EATOM  =      8093.15734121
  Solvation  Ediel_sol  =         0.00000000
  ---------------------------------------------------
  free energy    TOTEN  =       -36.55135570 eV

  energy without entropy =      -36.55135570  energy(sigma->0) =      -36.55135570
  exchange ACFDT corr.  =         0.00000000  see jH, gK, PRB 81, 115126


--------------------------------------------------------------------------------------------------------




--------------------------------------- Iteration      1(  12)  ---------------------------------------


    POTLOK:  cpu time      0.0363: real time      0.0507
    SETDIJ:  cpu time      1.1657: real time      1.1686
     EDDAV:  cpu time      0.1116: real time      0.1120
       DOS:  cpu time      0.0001: real time      0.0001
    CHARGE:  cpu time      0.0061: real time      0.0061
    MIXING:  cpu time      0.0002: real time      0.0002
    --------------------------------------------
      LOOP:  cpu time      1.3201: real time      1.3378

 eigenvalue-minimisations  :   264
 total energy-change (2. order) :-0.9354894E-03  (-0.1782061E-03)
 number of electron      72.0000014 magnetization       0.0806216
 augmentation part       27.1113935 magnetization       0.0807552

 Free energy of the ion-electron system (eV)
  ---------------------------------------------------
  alpha Z        PSCENC =       236.66789905
  Ewald energy   TEWEN  =     -4863.29910036
  -Hartree energ DENC   =     -2613.59392812
  -exchange      EXHF   =       169.89287567
  -V(xc)+E(xc)   XCENC  =       131.85310716
  PAW double counting   =      8008.61620514    -8809.08250543
  entropy T*S    EENTRO =        -0.00000000
  eigenvalues    EBANDS =      -390.76418551
  atomic energy  EATOM  =      8093.15734121
  Solvation  Ediel_sol  =         0.00000000
  ---------------------------------------------------
  free energy    TOTEN  =       -36.55229119 eV

  energy without entropy =      -36.55229119  energy(sigma->0) =      -36.55229119
  exchange ACFDT corr.  =         0.00000000  see jH, gK, PRB 81, 115126


--------------------------------------------------------------------------------------------------------




--------------------------------------- Iteration      1(  13)  ---------------------------------------


    POTLOK:  cpu time      0.0358: real time      0.0552
    SETDIJ:  cpu time      1.1680: real time      1.1709
     EDDAV:  cpu time      0.1297: real time      0.1301
       DOS:  cpu time      0.0001: real time      0.0001
    CHARGE:  cpu time      0.0060: real time      0.0060
    MIXING:  cpu time      0.0002: real time      0.0002
    --------------------------------------------
      LOOP:  cpu time      1.3400: real time      1.3625

 eigenvalue-minimisations  :   276
 total energy-change (2. order) :-0.4073184E-03  (-0.5871893E-04)
 number of electron      72.0000014 magnetization      -0.0483729
 augmentation part       27.1106641 magnetization      -0.0482934

 Free energy of the ion-electron system (eV)
  ---------------------------------------------------
  alpha Z        PSCENC =       236.66789905
  Ewald energy   TEWEN  =     -4863.29910036
  -Hartree energ DENC   =     -2613.45497363
  -exchange      EXHF   =       169.89206624
  -V(xc)+E(xc)   XCENC  =       131.86001210
  PAW double counting   =      8026.19558241    -8826.83617760
  entropy T*S    EENTRO =        -0.00000000
  eigenvalues    EBANDS =      -390.73534791
  atomic energy  EATOM  =      8093.15734121
  Solvation  Ediel_sol  =         0.00000000
  ---------------------------------------------------
  free energy    TOTEN  =       -36.55269850 eV

  energy without entropy =      -36.55269850  energy(sigma->0) =      -36.55269850
  exchange ACFDT corr.  =         0.00000000  see jH, gK, PRB 81, 115126


--------------------------------------------------------------------------------------------------------




--------------------------------------- Iteration      1(  14)  ---------------------------------------


    POTLOK:  cpu time      0.0370: real time      0.0539
    SETDIJ:  cpu time      1.1651: real time      1.1680
     EDDAV:  cpu time      0.1202: real time      0.1205
       DOS:  cpu time      0.0001: real time      0.0001
    CHARGE:  cpu time      0.0062: real time      0.0063
    MIXING:  cpu time      0.0004: real time      0.0004
    --------------------------------------------
      LOOP:  cpu time      1.3291: real time      1.3493

 eigenvalue-minimisations  :   276
 total energy-change (2. order) :-0.1814191E-03  (-0.2008343E-04)
 number of electron      72.0000014 magnetization       0.0290238
 augmentation part       27.1106911 magnetization       0.0290172

 Free energy of the ion-electron system (eV)
  ---------------------------------------------------
  alpha Z        PSCENC =       236.66789905
  Ewald energy   TEWEN  =     -4863.29910036
  -Hartree energ DENC   =     -2613.39441328
  -exchange      EXHF   =       169.89380676
  -V(xc)+E(xc)   XCENC  =       131.86473708
  PAW double counting   =      8035.16853329    -8835.91596414
  entropy T*S    EENTRO =        -0.00000000
  eigenvalues    EBANDS =      -390.69571954
  atomic energy  EATOM  =      8093.15734121
  Solvation  Ediel_sol  =         0.00000000
  ---------------------------------------------------
  free energy    TOTEN  =       -36.55287992 eV

  energy without entropy =      -36.55287992  energy(sigma->0) =      -36.55287992
  exchange ACFDT corr.  =         0.00000000  see jH, gK, PRB 81, 115126


--------------------------------------------------------------------------------------------------------




--------------------------------------- Iteration      1(  15)  ---------------------------------------


    POTLOK:  cpu time      0.0402: real time      0.0544
    SETDIJ:  cpu time      1.1738: real time      1.1767
     EDDAV:  cpu time      0.1181: real time      0.1186
       DOS:  cpu time      0.0002: real time      0.0003
    CHARGE:  cpu time      0.0062: real time      0.0062
    MIXING:  cpu time      0.0007: real time      0.0007
    --------------------------------------------
      LOOP:  cpu time      1.3391: real time      1.3569

 eigenvalue-minimisations  :   252
 total energy-change (2. order) :-0.8473536E-04  (-0.7935624E-05)
 number of electron      72.0000014 magnetization      -0.0174143
 augmentation part       27.1104630 magnetization      -0.0174122

 Free energy of the ion-electron system (eV)
  ---------------------------------------------------
  alpha Z        PSCENC =       236.66789905
  Ewald energy   TEWEN  =     -4863.29910036
  -Hartree energ DENC   =     -2613.38715354
  -exchange      EXHF   =       169.89460150
  -V(xc)+E(xc)   XCENC  =       131.86826859
  PAW double counting   =      8039.93549223    -8840.75237954
  entropy T*S    EENTRO =        -0.00000000
  eigenvalues    EBANDS =      -390.63793380
  atomic energy  EATOM  =      8093.15734121
  Solvation  Ediel_sol  =         0.00000000
  ---------------------------------------------------
  free energy    TOTEN  =       -36.55296466 eV

  energy without entropy =      -36.55296466  energy(sigma->0) =      -36.55296466
  exchange ACFDT corr.  =         0.00000000  see jH, gK, PRB 81, 115126


--------------------------------------------------------------------------------------------------------




--------------------------------------- Iteration      1(  16)  ---------------------------------------


    POTLOK:  cpu time      0.0565: real time      0.0573
    SETDIJ:  cpu time      1.1694: real time      1.1723
     EDDAV:  cpu time      0.1135: real time      0.1138
       DOS:  cpu time      0.0001: real time      0.0003
    CHARGE:  cpu time      0.0076: real time      0.0077
    MIXING:  cpu time      0.0010: real time      0.0010
    --------------------------------------------
      LOOP:  cpu time      1.3482: real time      1.3522

 eigenvalue-minimisations  :   228
 total energy-change (2. order) :-0.4000207E-04  (-0.3014996E-05)
 number of electron      72.0000014 magnetization       0.0104486
 augmentation part       27.1102952 magnetization       0.0104695

 Free energy of the ion-electron system (eV)
  ---------------------------------------------------
  alpha Z        PSCENC =       236.66789905
  Ewald energy   TEWEN  =     -4863.29910036
  -Hartree energ DENC   =     -2613.38774895
  -exchange      EXHF   =       169.89369177
  -V(xc)+E(xc)   XCENC  =       131.87037407
  PAW double counting   =      8042.53448039    -8843.39171545
  entropy T*S    EENTRO =        -0.00000000
  eigenvalues    EBANDS =      -390.59822639
  atomic energy  EATOM  =      8093.15734121
  Solvation  Ediel_sol  =         0.00000000
  ---------------------------------------------------
  free energy    TOTEN  =       -36.55300466 eV

  energy without entropy =      -36.55300466  energy(sigma->0) =      -36.55300466
  exchange ACFDT corr.  =         0.00000000  see jH, gK, PRB 81, 115126


--------------------------------------------------------------------------------------------------------




--------------------------------------- Iteration      1(  17)  ---------------------------------------


    POTLOK:  cpu time      0.0432: real time      0.0560
    SETDIJ:  cpu time      1.1728: real time      1.1757
     EDDAV:  cpu time      0.1019: real time      0.1021
       DOS:  cpu time      0.0003: real time      0.0003
    CHARGE:  cpu time      0.0059: real time      0.0059
    MIXING:  cpu time      0.0002: real time      0.0002
    --------------------------------------------
      LOOP:  cpu time      1.3242: real time      1.3402

 eigenvalue-minimisations  :   180
 total energy-change (2. order) :-0.1883701E-04  (-0.1120688E-05)
 number of electron      72.0000014 magnetization      -0.0062691
 augmentation part       27.1103103 magnetization      -0.0062780

 Free energy of the ion-electron system (eV)
  ---------------------------------------------------
  alpha Z        PSCENC =       236.66789905
  Ewald energy   TEWEN  =     -4863.29910036
  -Hartree energ DENC   =     -2613.39106406
  -exchange      EXHF   =       169.89325041
  -V(xc)+E(xc)   XCENC  =       131.87163800
  PAW double counting   =      8043.90904691    -8844.78901508
  entropy T*S    EENTRO =        -0.00000000
  eigenvalues    EBANDS =      -390.57301957
  atomic energy  EATOM  =      8093.15734121
  Solvation  Ediel_sol  =         0.00000000
  ---------------------------------------------------
  free energy    TOTEN  =       -36.55302350 eV

  energy without entropy =      -36.55302350  energy(sigma->0) =      -36.55302350
  exchange ACFDT corr.  =         0.00000000  see jH, gK, PRB 81, 115126


--------------------------------------------------------------------------------------------------------




--------------------------------------- Iteration      1(  18)  ---------------------------------------


    POTLOK:  cpu time      0.0364: real time      0.0524
    SETDIJ:  cpu time      1.1652: real time      1.1681
     EDDAV:  cpu time      0.1062: real time      0.1067
       DOS:  cpu time      0.0002: real time      0.0002
    --------------------------------------------
      LOOP:  cpu time      1.3080: real time      1.3274

 eigenvalue-minimisations  :   168
 total energy-change (2. order) :-0.8979833E-05  (-0.5585251E-06)
 number of electron      72.0000014 magnetization      -0.0062691
 augmentation part       27.1103103 magnetization      -0.0062780

 Free energy of the ion-electron system (eV)
  ---------------------------------------------------
  alpha Z        PSCENC =       236.66789905
  Ewald energy   TEWEN  =     -4863.29910036
  -Hartree energ DENC   =     -2613.39944992
  -exchange      EXHF   =       169.89339247
  -V(xc)+E(xc)   XCENC  =       131.87256936
  PAW double counting   =      8044.64593993    -8845.54010388
  entropy T*S    EENTRO =        -0.00000000
  eigenvalues    EBANDS =      -390.55152033
  atomic energy  EATOM  =      8093.15734121
  Solvation  Ediel_sol  =         0.00000000
  ---------------------------------------------------
  free energy    TOTEN  =       -36.55303248 eV

  energy without entropy =      -36.55303248  energy(sigma->0) =      -36.55303248
  exchange ACFDT corr.  =         0.00000000  see jH, gK, PRB 81, 115126


--------------------------------------------------------------------------------------------------------




 average (electrostatic) potential at core
  the test charge radii are     1.0314  0.9430  1.0808
  (the norm of the test charge is              1.0000)
       1 -60.3003       2 -60.3004       3 -58.6325       4 -58.6325       5 -50.8282
       6 -50.8282       7 -50.8282       8 -50.8282
 
 
 
 E-fermi :   3.1767     XC(G=0):  -7.9542     alpha+bet : -9.2592

 Fermi energy:         3.1767176739

 spin component 1

 k-point     1 :       0.0000    0.0000    0.0000
  band No.  band energies     occupation 
      1     -14.8174      1.00000
      2     -14.8174      1.00000
      3     -14.8074      1.00000
      4     -14.7252      1.00000
      5     -14.7232      1.00000
      6     -14.7232      1.00000
      7     -14.6654      1.00000
      8     -14.6629      1.00000
      9     -14.6556      1.00000
     10     -14.6535      1.00000
     11     -12.3080      1.00000
     12     -10.6027      1.00000
     13     -10.6027      1.00000
     14     -10.5708      1.00000
     15      -4.7843      1.00000
     16      -3.2734      1.00000
     17      -1.8392      1.00000
     18      -1.6425      1.00000
     19      -1.6076      1.00000
     20      -1.1423      1.00000
     21      -1.1423      1.00000
     22      -0.6614      1.00000
     23      -0.6614      1.00000
     24      -0.4921      1.00000
     25      -0.4921      1.00000
     26      -0.4479      1.00000
     27       0.4052      1.00000
     28       0.4483      1.00000
     29       0.5334      1.00000
     30       0.8230      1.00000
     31       0.9642      1.00000
     32       0.9642      1.00000
     33       1.0474      1.00000
     34       2.9738      1.00000
     35       2.9738      1.00000
     36       3.1193      1.00000
     37       4.8799      0.00000
     38       6.3126      0.00000
     39       6.7679      0.00000
     40       8.4836      0.00000
     41       8.4836      0.00000
     42       8.9189      0.00000
     43       9.3014      0.00000
     44       9.3014      0.00000
     45       9.5513      0.00000
     46       9.9061      0.00000
     47      11.1687      0.00000
     48      11.2014      0.00000
 Fermi energy:         3.1767176739

 spin component 2

 k-point     1 :       0.0000    0.0000    0.0000
  band No.  band energies     occupation 
      1     -14.8177      1.00000
      2     -14.8177      1.00000
      3     -14.8077      1.00000
      4     -14.7255      1.00000
      5     -14.7235      1.00000
      6     -14.7235      1.00000
      7     -14.6657      1.00000
      8     -14.6632      1.00000
      9     -14.6559      1.00000
     10     -14.6537      1.00000
     11     -12.3085      1.00000
     12     -10.6031      1.00000
     13     -10.6031      1.00000
     14     -10.5711      1.00000
     15      -4.7848      1.00000
     16      -3.2739      1.00000
     17      -1.8397      1.00000
     18      -1.6430      1.00000
     19      -1.6081      1.00000
     20      -1.1428      1.00000
     21      -1.1428      1.00000
     22      -0.6617      1.00000
     23      -0.6617      1.00000
     24      -0.4925      1.00000
     25      -0.4925      1.00000
     26      -0.4483      1.00000
     27       0.4049      1.00000
     28       0.4480      1.00000
     29       0.5331      1.00000
     30       0.8227      1.00000
     31       0.9638      1.00000
     32       0.9638      1.00000
     33       1.0471      1.00000
     34       2.9734      1.00000
     35       2.9734      1.00000
     36       3.1189      1.00000
     37       4.8793      0.00000
     38       6.3117      0.00000
     39       6.7673      0.00000
     40       8.4830      0.00000
     41       8.4830      0.00000
     42       8.9183      0.00000
     43       9.3005      0.00000
     44       9.3005      0.00000
     45       9.5507      0.00000
     46       9.9056      0.00000
     47      11.1681      0.00000
     48      11.1876      0.00000


--------------------------------------------------------------------------------------------------------


 soft charge-density along one line, spin component           1
         0         1         2         3         4         5         6         7         8         9
 total charge-density along one line
 
 soft charge-density along one line, spin component           2
         0         1         2         3         4         5         6         7         8         9
 total charge-density along one line
 
 pseudopotential strength for first ion, spin component:           1
-12.174  -0.001   0.002  -0.002   0.000   0.748   0.000  -0.002
 -0.001 -12.176  -0.000  -0.000   0.003   0.000   0.748  -0.000
  0.002  -0.000 -12.178  -0.000  -0.000  -0.002  -0.000   0.750
 -0.002  -0.000  -0.000 -12.176  -0.003   0.001  -0.000  -0.000
  0.000   0.003  -0.000  -0.003 -12.172  -0.000  -0.003   0.000
  0.748   0.000  -0.002   0.001  -0.000   4.746  -0.000   0.001
  0.000   0.748  -0.000  -0.000  -0.003  -0.000   4.745   0.000
 -0.002  -0.000   0.750  -0.000   0.000   0.001   0.000   4.745
  0.001  -0.000  -0.000   0.748   0.003  -0.001   0.000  -0.000
 -0.000  -0.003   0.000   0.003   0.746   0.000   0.000  -0.000
  0.000   0.001   0.001   0.001  -0.000   0.000   0.001   0.001
  0.000   0.001   0.001   0.001  -0.000  -0.000  -0.000  -0.000
  0.001  -0.001  -0.001   0.001   0.000  -0.006   0.003   0.003
  0.001  -0.001   0.001  -0.001  -0.000  -0.003   0.004  -0.006
  0.001   0.001  -0.001  -0.001  -0.001  -0.003  -0.003   0.002
 -0.013   0.006   0.007  -0.007  -0.003   0.006  -0.002  -0.003
 -0.007   0.008  -0.013   0.006   0.002   0.003  -0.004   0.005
 -0.008  -0.007   0.005   0.009   0.010   0.003   0.003  -0.002
 pseudopotential strength for first ion, spin component:           2
-12.174  -0.001   0.002  -0.002   0.000   0.748   0.000  -0.002
 -0.001 -12.176  -0.000  -0.000   0.003   0.000   0.748  -0.000
  0.002  -0.000 -12.178  -0.000  -0.000  -0.002  -0.000   0.750
 -0.002  -0.000  -0.000 -12.176  -0.003   0.001  -0.000  -0.000
  0.000   0.003  -0.000  -0.003 -12.172  -0.000  -0.003   0.000
  0.748   0.000  -0.002   0.001  -0.000   4.746  -0.000   0.001
  0.000   0.748  -0.000  -0.000  -0.003  -0.000   4.745  -0.000
 -0.002  -0.000   0.750  -0.000   0.000   0.001  -0.000   4.745
  0.001  -0.000  -0.000   0.748   0.003  -0.001   0.000  -0.000
 -0.000  -0.003   0.000   0.003   0.746   0.000   0.000  -0.000
  0.000   0.001   0.001   0.001  -0.000   0.000   0.001   0.001
  0.000   0.001   0.001   0.001  -0.000  -0.000  -0.000  -0.000
  0.001  -0.001  -0.001   0.001   0.000  -0.006   0.003   0.003
  0.001  -0.001   0.001  -0.001  -0.000  -0.003   0.004  -0.006
  0.001   0.001  -0.001  -0.001  -0.001  -0.003  -0.003   0.002
 -0.013   0.006   0.007  -0.007  -0.003   0.006  -0.002  -0.003
 -0.007   0.008  -0.013   0.006   0.002   0.003  -0.004   0.005
 -0.008  -0.007   0.005   0.009   0.010   0.003   0.003  -0.002
 total augmentation occupancy for first ion, spin component:           1
  1.993  -0.001  -0.000  -0.000  -0.000   0.001  -0.004  -0.002  -0.001  -0.002   0.000  -0.000   0.017   0.009   0.010   0.002
 -0.001   1.992  -0.001  -0.001  -0.001  -0.004  -0.005  -0.005  -0.002  -0.003   0.000  -0.000  -0.008  -0.011   0.010  -0.001
 -0.000  -0.001   1.993  -0.001   0.000  -0.002  -0.005  -0.001  -0.004   0.000   0.000  -0.000  -0.010   0.017  -0.007  -0.001
 -0.000  -0.001  -0.001   1.992   0.001  -0.001  -0.002  -0.004  -0.004   0.005   0.000  -0.000   0.010  -0.008  -0.012   0.001
 -0.000  -0.001   0.000   0.001   1.991  -0.002  -0.003   0.000   0.005  -0.006  -0.000   0.000   0.005  -0.002  -0.013   0.001
  0.001  -0.004  -0.002  -0.001  -0.002   0.061  -0.014  -0.009  -0.004  -0.007   0.002  -0.000   0.119   0.065   0.071   0.002
 -0.004  -0.005  -0.005  -0.002  -0.003  -0.014   0.039  -0.019  -0.011  -0.011   0.004  -0.000  -0.052  -0.073   0.063  -0.001
 -0.002  -0.005  -0.001  -0.004   0.000  -0.009  -0.019   0.054  -0.015   0.001   0.003  -0.000  -0.063   0.115  -0.048  -0.001
 -0.001  -0.002  -0.004  -0.004   0.005  -0.004  -0.011  -0.015   0.042   0.020   0.003  -0.000   0.062  -0.057  -0.080   0.001
 -0.002  -0.003   0.000   0.005  -0.006  -0.007  -0.011   0.001   0.020   0.038  -0.000   0.000   0.034  -0.013  -0.089   0.001
  0.000   0.000   0.000   0.000  -0.000   0.002   0.004   0.003   0.003  -0.000   1.345   0.040  -0.000   0.000  -0.000  -0.000
 -0.000  -0.000  -0.000  -0.000   0.000  -0.000  -0.000  -0.000  -0.000   0.000   0.040   0.002   0.000  -0.000  -0.000   0.000
  0.017  -0.008  -0.010   0.010   0.005   0.119  -0.052  -0.063   0.062   0.034  -0.000   0.000   0.809  -0.036  -0.016   0.017
  0.009  -0.011   0.017  -0.008  -0.002   0.065  -0.073   0.115  -0.057  -0.013   0.000  -0.000  -0.036   0.763  -0.029  -0.001
  0.010   0.010  -0.007  -0.012  -0.013   0.071   0.063  -0.048  -0.080  -0.089  -0.000  -0.000  -0.016  -0.029   0.815  -0.000
  0.002  -0.001  -0.001   0.001   0.001   0.002  -0.001  -0.001   0.001   0.001  -0.000   0.000   0.017  -0.001  -0.000   0.000
  0.001  -0.001   0.002  -0.001  -0.000   0.001  -0.001   0.002  -0.001  -0.000   0.000   0.000  -0.001   0.017  -0.001  -0.000
  0.001   0.001  -0.001  -0.001  -0.002   0.002   0.001  -0.001  -0.002  -0.002   0.000  -0.000  -0.000  -0.001   0.017  -0.000
 total augmentation occupancy for first ion, spin component:           2
 -0.000   0.000  -0.000   0.000   0.000  -0.000   0.000  -0.000   0.000   0.000  -0.000  -0.000  -0.000   0.000  -0.000  -0.000
  0.000  -0.000   0.000   0.000   0.000   0.000  -0.000   0.000   0.000   0.000  -0.000  -0.000   0.000   0.000  -0.000   0.000
 -0.000   0.000   0.000   0.000  -0.000  -0.000   0.000  -0.000   0.000  -0.000  -0.000  -0.000   0.000  -0.000   0.000   0.000
  0.000   0.000   0.000  -0.000  -0.000   0.000   0.000   0.000  -0.000  -0.000  -0.000   0.000  -0.000   0.000   0.000  -0.000
  0.000   0.000  -0.000  -0.000  -0.000   0.000   0.000  -0.000  -0.000  -0.000   0.000   0.000  -0.000   0.000   0.000  -0.000
 -0.000   0.000  -0.000   0.000   0.000  -0.000   0.000   0.000   0.000   0.000  -0.000   0.000  -0.000  -0.000  -0.000  -0.000
  0.000  -0.000   0.000   0.000   0.000   0.000  -0.000   0.000   0.000   0.000  -0.000  -0.000   0.000   0.000  -0.000  -0.000
 -0.000   0.000  -0.000   0.000  -0.000   0.000   0.000  -0.000   0.000  -0.000  -0.000  -0.000   0.000  -0.000   0.000   0.000
  0.000   0.000   0.000  -0.000  -0.000   0.000   0.000   0.000  -0.000  -0.000   0.000   0.000  -0.000   0.000   0.000  -0.000
  0.000   0.000  -0.000  -0.000  -0.000   0.000   0.000  -0.000  -0.000  -0.000   0.000  -0.000  -0.000  -0.000   0.000  -0.000
 -0.000  -0.000  -0.000  -0.000   0.000  -0.000  -0.000  -0.000   0.000   0.000   0.000   0.000   0.000  -0.000  -0.000   0.000
 -0.000  -0.000  -0.000   0.000   0.000   0.000  -0.000  -0.000   0.000  -0.000   0.000   0.000   0.000   0.000  -0.000   0.000
 -0.000   0.000   0.000  -0.000  -0.000  -0.000   0.000   0.000  -0.000  -0.000   0.000   0.000  -0.000  -0.000  -0.000   0.000
  0.000   0.000  -0.000   0.000   0.000  -0.000   0.000  -0.000   0.000  -0.000  -0.000   0.000  -0.000  -0.000   0.000   0.000
 -0.000  -0.000   0.000   0.000   0.000  -0.000  -0.000   0.000   0.000   0.000  -0.000  -0.000  -0.000   0.000   0.000   0.000
 -0.000   0.000   0.000  -0.000  -0.000  -0.000  -0.000   0.000  -0.000  -0.000   0.000   0.000   0.000   0.000   0.000   0.000
  0.000  -0.000  -0.000  -0.000   0.000   0.000  -0.000  -0.000   0.000  -0.000  -0.000   0.000   0.000   0.000  -0.000   0.000
 -0.000   0.000   0.000   0.000   0.000   0.000  -0.000   0.000   0.000   0.000  -0.000  -0.000   0.000   0.000   0.000  -0.000


------------------------ aborting loop because EDIFF is reached ----------------------------------------





 total charge

# of ion       s       p       d       tot
------------------------------------------
    1        0.801   0.675  10.061  11.537
    2        0.801   0.675  10.061  11.537
    3        0.313   0.327   9.381  10.020
    4        0.313   0.327   9.381  10.020
    5        1.415   2.522   0.043   3.980
    6        1.415   2.522   0.043   3.980
    7        1.415   2.522   0.043   3.980
    8        1.415   2.522   0.043   3.980
--------------------------------------------------
tot          7.886  12.092  39.057  59.035



 magnetization (x)

# of ion       s       p       d       tot
------------------------------------------
    1       -0.000   0.000   0.000  -0.000
    2       -0.000   0.000   0.000  -0.000
    3        0.000   0.000   0.000   0.000
    4        0.000   0.000   0.000   0.000
    5        0.000   0.000  -0.000   0.000
    6        0.000   0.000  -0.000   0.000
    7        0.000   0.000  -0.000   0.000
    8        0.000   0.000  -0.000   0.000
--------------------------------------------------
tot         -0.000   0.000   0.000   0.000
 
    CHARGE:  cpu time      0.0065: real time      0.0065
    FORLOC:  cpu time      0.0018: real time      0.0018
    FORHF :  cpu time      0.0584: real time      0.0586
    FORNL :  cpu time      0.0150: real time      0.0152
    FORCOR:  cpu time      1.1893: real time      1.1923
    FORHAR:  cpu time      0.0051: real time      0.0053
    MIXING:  cpu time      0.0003: real time      0.0003
    OFIELD:  cpu time      0.0008: real time      0.0011

 VOLUME and BASIS-vectors are now :
 -----------------------------------------------------------------------------
  energy-cutoff  :      680.00
  volume of cell :      174.38
      direct lattice vectors                 reciprocal lattice vectors
     5.108740358  0.000000000 -2.300308688     0.195742968  0.040527070  0.000000000
    -1.035758519  5.002642575 -2.300309163     0.000000000  0.199894353  0.000000000
     0.000000000  0.000000000  6.823138370     0.065991517  0.081054136  0.146560123

  length of vectors
     5.602735770  5.602736000  6.823138370     0.199894354  0.199894353  0.180012563


 FORCES acting on ions
    electron-ion (+dipol)            ewald-force                    non-local-force                 convergence-correction
 -----------------------------------------------------------------------------------------------
   0.304E-04 -.169E-05 -.459E-04   -.241E-04 -.786E-05 0.140E-04   0.206E-21 0.172E-20 0.126E-20   0.288E-04 0.350E-05 0.967E-04
   0.190E-06 0.263E-04 -.739E-05   -.269E-04 -.466E-05 0.104E-04   0.749E-21 -.145E-20 0.298E-21   -.143E-04 -.329E-04 -.235E-04
   -.829E-05 0.309E-04 0.297E-04   -.234E-04 -.412E-05 0.911E-05   0.183E-20 -.272E-20 0.943E-21   0.655E-04 0.112E-04 -.492E-04
   0.298E-04 0.331E-04 0.601E-05   -.211E-04 -.680E-05 0.122E-04   -.855E-21 0.159E-20 -.114E-20   0.379E-04 0.168E-04 0.254E-04
   0.159E+02 -.584E-04 -.716E+01   -.184E+02 0.557E-05 0.829E+01   0.256E+01 -.285E-21 -.115E+01   -.911E-03 0.155E-04 0.314E-03
   0.322E+01 -.156E+02 0.716E+01   -.373E+01 0.180E+02 -.829E+01   0.519E+00 -.251E+01 0.115E+01   -.121E-03 0.894E-03 -.382E-03
   -.322E+01 0.156E+02 -.716E+01   0.373E+01 -.180E+02 0.829E+01   -.519E+00 0.251E+01 -.115E+01   0.148E-03 -.854E-03 0.457E-03
   -.159E+02 0.601E-04 0.716E+01   0.184E+02 0.615E-05 -.829E+01   -.256E+01 -.262E-21 0.115E+01   0.833E-03 -.741E-04 -.417E-03
 -----------------------------------------------------------------------------------------------
   0.544E-04 0.183E-04 0.418E-04   0.178E-13 -.997E-14 -.249E-13   0.000E+00 -.262E-21 0.222E-15   0.668E-04 -.207E-04 0.227E-04
 
 
 POSITION                                       TOTAL-FORCE (eV/Angst)
 -----------------------------------------------------------------------------------
      2.03649      2.50132     -2.30031         0.000000     -0.000000      0.000000
      3.57262      1.25066      1.11126        -0.000000     -0.000000      0.000000
      0.00000      0.00000      0.00000         0.000000     -0.000000      0.000000
      0.50037      3.75198      1.11126         0.000000     -0.000000      0.000000
      1.50804      1.87599     -0.01074         0.419270     -0.000000     -0.188784
     -0.01268      3.14558      3.38342         0.085004     -0.410563      0.188784
      3.06741      0.60640      3.40083        -0.085004      0.410563     -0.188784
      3.58319      4.37731     -2.32846        -0.419270     -0.000000      0.188784
 -----------------------------------------------------------------------------------
    total drift:                                0.000121     -0.000002      0.000065


--------------------------------------------------------------------------------------------------------



  FREE ENERGIE OF THE ION-ELECTRON SYSTEM (eV)
  ---------------------------------------------------
  free  energy   TOTEN  =       -36.55303248 eV

  energy  without entropy=      -36.55303248  energy(sigma->0) =      -36.55303248
 


--------------------------------------------------------------------------------------------------------


    POTLOK:  cpu time      1.1957: real time      1.1991


--------------------------------------------------------------------------------------------------------


 writing wavefunctions
     LOOP+:  cpu time     23.9365: real time     25.2913
    4ORBIT:  cpu time      0.0000: real time      0.0000



 total charge

# of ion       s       p       d       tot
------------------------------------------
    1        0.801   0.675  10.061  11.537
    2        0.801   0.675  10.061  11.537
    3        0.313   0.327   9.381  10.020
    4        0.313   0.327   9.381  10.020
    5        1.415   2.522   0.043   3.980
    6        1.415   2.522   0.043   3.980
    7        1.415   2.522   0.043   3.980
    8        1.415   2.522   0.043   3.980
--------------------------------------------------
tot          7.886  12.092  39.057  59.035



 magnetization (x)

# of ion       s       p       d       tot
------------------------------------------
    1       -0.000   0.000   0.000  -0.000
    2       -0.000   0.000   0.000  -0.000
    3        0.000   0.000   0.000   0.000
    4        0.000   0.000   0.000   0.000
    5        0.000   0.000  -0.000   0.000
    6        0.000   0.000  -0.000   0.000
    7        0.000   0.000  -0.000   0.000
    8        0.000   0.000  -0.000   0.000
--------------------------------------------------
tot         -0.000   0.000   0.000   0.000
 

 total amount of memory used by VASP MPI-rank0    39157. kBytes
=======================================================================

   base      :      30000. kBytes
   nonl-proj :        396. kBytes
   fftplans  :        960. kBytes
   grid      :       2187. kBytes
   one-center:         31. kBytes
   HF        :         64. kBytes
   nonlr-proj:        984. kBytes
   wavefun   :         93. kBytes
   fock_wrk  :       4442. kBytes
 
  
  
 General timing and accounting informations for this job:
 ========================================================
  
                  Total CPU time used (sec):       39.792
                            User time (sec):       36.800
                          System time (sec):        2.992
                         Elapsed time (sec):       42.805
  
                   Maximum memory used (kb):      286840.
                   Average memory used (kb):          N/A
  
                          Minor page faults:        39359
                          Major page faults:            0
                 Voluntary context switches:         2496
