<?xml version="1.0" encoding="ISO-8859-1"?>
<modeling>
 <generator>
  <i name="program" type="string">vasp </i>
  <i name="version" type="string">6.4.2  </i>
  <i name="subversion" type="string">20Jul23 (build Mar 15 2024 16:31:38) complex                          parallel </i>
  <i name="platform" type="string">LinuxIFC </i>
  <i name="date" type="string">2025 03 26 </i>
  <i name="time" type="string">18:47:06 </i>
 </generator>
 <incar>
  <i type="string" name="PREC">Accurate</i>
  <i type="string" name="ALGO">Normal</i>
  <i type="int" name="ISPIN">     2</i>
  <i type="int" name="NELM">   200</i>
  <i name="EDIFF">      0.00001000</i>
  <i type="int" name="NSW">     0</i>
  <i name="ENCUT">    680.00000000</i>
  <i name="ENAUG">   1360.00000000</i>
  <v name="MAGMOM">      0.60000000      0.60000000      0.60000000      0.60000000      0.60000000      0.60000000      0.60000000      0.60000000      0.60000000      0.60000000      0.60000000      0.60000000      0.60000000      0.60000000      0.60000000      0.60000000</v>
  <i type="logical" name="LREAL"> F  </i>
  <i type="int" name="ISMEAR">    -5</i>
  <i name="SIGMA">      0.20000000</i>
  <i type="int" name="LMAXMIX">     4</i>
  <i type="logical" name="LWAVE"> T  </i>
  <i type="logical" name="LCHARG"> T  </i>
  <i type="logical" name="LVTOT"> T  </i>
  <i type="int" name="LORBIT">    11</i>
  <i type="logical" name="LELF"> F  </i>
  <i type="logical" name="LASPH"> T  </i>
  <i type="logical" name="LAECHG"> T  </i>
  <i name="HFSCREEN">      0.20000000</i>
  <i type="logical" name="LHFCALC"> T  </i>
  <i type="string" name="GGA">Pe</i>
  <i type="string" name="PRECFOCK">Accurate</i>
  <i type="logical" name="LDAU"> F  </i>
  <i type="logical" name="LMIXTAU"> T  </i>
 </incar>
 <primitive_cell>
  <structure name="primitive_cell" >
   <crystal>
    <varray name="basis" >
     <v>       3.80157474       0.00000000       0.00000000 </v>
     <v>      -0.00000000       6.07432056       0.00000000 </v>
     <v>       0.00000000       0.00000000      14.49176048 </v>
    </varray>
    <i name="volume">    334.64349539 </i>
    <varray name="rec_basis" >
     <v>       0.26304889       0.00000000       0.00000000 </v>
     <v>       0.00000000       0.16462747       0.00000000 </v>
     <v>      -0.00000000      -0.00000000       0.06900473 </v>
    </varray>
   </crystal>
   <varray name="positions" >
    <v>       0.25000000       0.25010162       0.82821842 </v>
    <v>       0.25000000       0.75010162       0.67178158 </v>
    <v>       0.75000000       0.74989838       0.17178158 </v>
    <v>       0.75000000       0.24989838       0.32821842 </v>
    <v>       0.25000000       0.72881200       0.43458741 </v>
    <v>       0.75000000       0.27118800       0.56541259 </v>
    <v>       0.25000000       0.22881200       0.06541259 </v>
    <v>       0.75000000       0.77118800       0.93458741 </v>
    <v>       0.25000000       0.12368586       0.40104516 </v>
    <v>       0.75000000       0.87631414       0.59895484 </v>
    <v>       0.25000000       0.62368586       0.09895484 </v>
    <v>       0.75000000       0.37631414       0.90104516 </v>
    <v>       0.75000000       0.62427265       0.32157721 </v>
    <v>       0.25000000       0.87572735       0.82157721 </v>
    <v>       0.75000000       0.12427265       0.17842279 </v>
    <v>       0.25000000       0.37572735       0.67842279 </v>
   </varray>
  </structure>
  <varray name="primitive_index" >
   <v type="int" >        1 </v>
   <v type="int" >        2 </v>
   <v type="int" >        3 </v>
   <v type="int" >        4 </v>
   <v type="int" >        5 </v>
   <v type="int" >        6 </v>
   <v type="int" >        7 </v>
   <v type="int" >        8 </v>
   <v type="int" >        9 </v>
   <v type="int" >       10 </v>
   <v type="int" >       11 </v>
   <v type="int" >       12 </v>
   <v type="int" >       13 </v>
   <v type="int" >       14 </v>
   <v type="int" >       15 </v>
   <v type="int" >       16 </v>
  </varray>
 </primitive_cell>
 <kpoints>
  <generation param="Gamma">
   <v type="int" name="divisions">       6        4        1 </v>
   <v name="usershift">      0.00000000       0.00000000       0.00000000 </v>
   <v name="genvec1">      0.16666667      -0.00000000       0.00000000 </v>
   <v name="genvec2">      0.00000000       0.25000000       0.00000000 </v>
   <v name="genvec3">      0.00000000      -0.00000000       1.00000000 </v>
   <v name="shift">      0.00000000       0.00000000       0.00000000 </v>
  </generation>
  <varray name="kpointlist" >
   <v>       0.00000000       0.00000000       0.00000000 </v>
   <v>       0.16666667       0.00000000       0.00000000 </v>
   <v>       0.33333333       0.00000000       0.00000000 </v>
   <v>       0.50000000       0.00000000       0.00000000 </v>
   <v>       0.00000000       0.25000000       0.00000000 </v>
   <v>       0.16666667       0.25000000       0.00000000 </v>
   <v>       0.33333333       0.25000000       0.00000000 </v>
   <v>       0.50000000       0.25000000       0.00000000 </v>
   <v>       0.00000000       0.50000000       0.00000000 </v>
   <v>       0.16666667       0.50000000       0.00000000 </v>
   <v>       0.33333333       0.50000000       0.00000000 </v>
   <v>       0.50000000       0.50000000       0.00000000 </v>
  </varray>
  <varray name="weights" >
   <v>       0.04166667 </v>
   <v>       0.08333333 </v>
   <v>       0.08333333 </v>
   <v>       0.04166667 </v>
   <v>       0.08333333 </v>
   <v>       0.16666667 </v>
   <v>       0.16666667 </v>
   <v>       0.08333333 </v>
   <v>       0.04166667 </v>
   <v>       0.08333333 </v>
   <v>       0.08333333 </v>
   <v>       0.04166667 </v>
  </varray>
  <varray name="tetrahedronlist"  type="int" >
   <v type="int" >        2        3        6        6        7 </v>
   <v type="int" >        2        2        3        6        6 </v>
   <v type="int" >        2        2        2        3        6 </v>
   <v type="int" >        2        3        6        7        7 </v>
   <v type="int" >        2        3        3        6        7 </v>
   <v type="int" >        2        2        3        3        6 </v>
   <v type="int" >        2        6        7        7       10 </v>
   <v type="int" >        2        7        7       10       11 </v>
   <v type="int" >        2        7       10       11       11 </v>
   <v type="int" >        2        6        6        7       10 </v>
   <v type="int" >        2        6        7       10       10 </v>
   <v type="int" >        2        7       10       10       11 </v>
   <v type="int" >        2        1        2        2        5 </v>
   <v type="int" >        2        2        2        5        6 </v>
   <v type="int" >        2        2        5        6        6 </v>
   <v type="int" >        2        1        1        2        5 </v>
   <v type="int" >        2        1        2        5        5 </v>
   <v type="int" >        2        2        5        5        6 </v>
   <v type="int" >        2        8       11       11       12 </v>
   <v type="int" >        2        7        8       11       11 </v>
   <v type="int" >        2        7        7        8       11 </v>
   <v type="int" >        2        8       11       12       12 </v>
   <v type="int" >        2        8        8       11       12 </v>
   <v type="int" >        2        7        8        8       11 </v>
   <v type="int" >        2        1        5        6        6 </v>
   <v type="int" >        2        1        2        6        6 </v>
   <v type="int" >        2        1        2        2        6 </v>
   <v type="int" >        2        1        5        5        6 </v>
   <v type="int" >        2        1        1        5        6 </v>
   <v type="int" >        2        1        1        2        6 </v>
   <v type="int" >        2        7        7        8       12 </v>
   <v type="int" >        2        7        7       11       12 </v>
   <v type="int" >        2        7       11       11       12 </v>
   <v type="int" >        2        7        8        8       12 </v>
   <v type="int" >        2        7        8       12       12 </v>
   <v type="int" >        2        7       11       12       12 </v>
   <v type="int" >        2        3        4        4        7 </v>
   <v type="int" >        2        4        4        7        8 </v>
   <v type="int" >        2        4        7        8        8 </v>
   <v type="int" >        2        3        3        4        7 </v>
   <v type="int" >        2        3        4        7        7 </v>
   <v type="int" >        2        4        7        7        8 </v>
   <v type="int" >        2        6        9        9       10 </v>
   <v type="int" >        2        5        6        9        9 </v>
   <v type="int" >        2        5        5        6        9 </v>
   <v type="int" >        2        6        9       10       10 </v>
   <v type="int" >        2        6        6        9       10 </v>
   <v type="int" >        2        5        6        6        9 </v>
   <v type="int" >        2        6        6        7       11 </v>
   <v type="int" >        2        6        6       10       11 </v>
   <v type="int" >        2        6       10       10       11 </v>
   <v type="int" >        2        6        7        7       11 </v>
   <v type="int" >        2        6        7       11       11 </v>
   <v type="int" >        2        6       10       11       11 </v>
   <v type="int" >        2        2        6        7        7 </v>
   <v type="int" >        2        2        3        7        7 </v>
   <v type="int" >        2        2        3        3        7 </v>
   <v type="int" >        2        2        6        6        7 </v>
   <v type="int" >        2        2        2        6        7 </v>
   <v type="int" >        2        2        2        3        7 </v>
   <v type="int" >        2        5        9       10       10 </v>
   <v type="int" >        2        5        6       10       10 </v>
   <v type="int" >        2        5        6        6       10 </v>
   <v type="int" >        2        5        9        9       10 </v>
   <v type="int" >        2        5        5        9       10 </v>
   <v type="int" >        2        5        5        6       10 </v>
   <v type="int" >        2        3        3        4        8 </v>
   <v type="int" >        2        3        3        7        8 </v>
   <v type="int" >        2        3        7        7        8 </v>
   <v type="int" >        2        3        4        4        8 </v>
   <v type="int" >        2        3        4        8        8 </v>
   <v type="int" >        2        3        7        8        8 </v>
  </varray>
  <i name="volumeweight">      0.00694444 </i>
 </kpoints>
 <parameters>
  <separator name="general" >
   <i type="string" name="SYSTEM">unknown system</i>
   <i type="logical" name="LCOMPAT"> F  </i>
  </separator>
  <separator name="electronic" >
   <i type="string" name="PREC">accura</i>
   <i name="ENMAX">    680.00000000</i>
   <i name="ENAUG">   1360.00000000</i>
   <i name="EDIFF">      0.00001000</i>
   <i type="int" name="IALGO">    38</i>
   <i type="int" name="IWAVPR">    10</i>
   <i type="int" name="NBANDS">    72</i>
   <i type="int" name="NBANDSLOW">    -1</i>
   <i type="int" name="NBANDSHIGH">    -1</i>
   <i name="NELECT">    112.00000000</i>
   <i type="int" name="TURBO">     0</i>
   <i type="int" name="IRESTART">     0</i>
   <i type="int" name="NREBOOT">     0</i>
   <i type="int" name="NMIN">     0</i>
   <i name="EREF">      0.00000000</i>
   <separator name="electronic smearing" >
    <i type="int" name="ISMEAR">    -5</i>
    <i name="SIGMA">      0.20000000</i>
    <i name="KSPACING">      0.50000000</i>
    <i type="logical" name="KGAMMA"> T  </i>
    <i type="logical" name="KBLOWUP"> T  </i>
   </separator>
   <separator name="electronic projectors" >
    <i type="logical" name="LREAL"> F  </i>
    <v name="ROPT">      0.00000000      0.00000000      0.00000000</v>
    <i type="int" name="LMAXPAW">  -100</i>
    <i type="int" name="LMAXMIX">     4</i>
    <i type="logical" name="NLSPLINE"> F  </i>
   </separator>
   <separator name="electronic startup" >
    <i type="int" name="ISTART">     0</i>
    <i type="int" name="ICHARG">     2</i>
    <i type="int" name="INIWAV">     1</i>
   </separator>
   <separator name="electronic spin" >
    <i type="int" name="ISPIN">     2</i>
    <i type="logical" name="LNONCOLLINEAR"> F  </i>
    <v name="MAGMOM">      0.60000000      0.60000000      0.60000000      0.60000000      0.60000000      0.60000000      0.60000000      0.60000000      0.60000000      0.60000000      0.60000000      0.60000000      0.60000000      0.60000000      0.60000000      0.60000000</v>
    <i name="NUPDOWN">     -1.00000000</i>
    <i type="logical" name="LSORBIT"> F  </i>
    <v name="SAXIS">      0.00000000      0.00000000      1.00000000</v>
    <i type="logical" name="LSPIRAL"> F  </i>
    <v name="QSPIRAL">      0.00000000      0.00000000      0.00000000</v>
    <i type="logical" name="LZEROZ"> F  </i>
   </separator>
   <separator name="electronic exchange-correlation" >
    <i type="logical" name="LASPH"> T  </i>
    <i type="logical" name="LMETAGGA"> F  </i>
   </separator>
   <separator name="electronic convergence" >
    <i type="int" name="NELM">   200</i>
    <i type="int" name="NELMDL">    -5</i>
    <i type="int" name="NELMIN">     2</i>
    <i name="ENINI">    680.00000000</i>
    <separator name="electronic convergence detail" >
     <i type="logical" name="LDIAG"> T  </i>
     <i type="logical" name="LSUBROT"> F  </i>
     <i name="WEIMIN">      0.00000000</i>
     <i name="EBREAK">      0.00000003</i>
     <i name="DEPER">      0.30000000</i>
     <i type="int" name="NRMM">     4</i>
     <i name="TIME">      0.40000000</i>
    </separator>
   </separator>
   <separator name="electronic mixer" >
    <i name="AMIX">      0.40000000</i>
    <i name="BMIX">      1.00000000</i>
    <i name="AMIN">      0.10000000</i>
    <i name="AMIX_MAG">      1.60000000</i>
    <i name="BMIX_MAG">      1.00000000</i>
    <separator name="electronic mixer details" >
     <i type="int" name="IMIX">     1</i>
     <i type="logical" name="MIXFIRST"> F  </i>
     <i type="int" name="MAXMIX">   -45</i>
     <i name="WC">    100.00000000</i>
     <i type="int" name="INIMIX">     1</i>
     <i type="int" name="MIXPRE">     1</i>
     <i type="int" name="MREMOVE">     5</i>
    </separator>
   </separator>
   <separator name="electronic dipolcorrection" >
    <i type="logical" name="LDIPOL"> F  </i>
    <i type="logical" name="LMONO"> F  </i>
    <i type="int" name="IDIPOL">     0</i>
    <i name="EPSILON">      1.00000000</i>
    <v name="DIPOL">   -100.00000000   -100.00000000   -100.00000000</v>
    <i name="EFIELD">      0.00000000</i>
   </separator>
  </separator>
  <separator name="grids" >
   <i type="int" name="NGX">    32</i>
   <i type="int" name="NGY">    54</i>
   <i type="int" name="NGZ">   126</i>
   <i type="int" name="NGXF">    64</i>
   <i type="int" name="NGYF">   108</i>
   <i type="int" name="NGZF">   252</i>
   <i type="logical" name="ADDGRID"> F  </i>
  </separator>
  <separator name="ionic" >
   <i type="int" name="NSW">     0</i>
   <i type="int" name="IBRION">    -1</i>
   <i type="int" name="MDALGO">     0</i>
   <i type="int" name="ISIF">     0</i>
   <i name="PSTRESS">      0.00000000</i>
   <i name="EDIFFG">      0.00010000</i>
   <i type="int" name="NFREE">     0</i>
   <i name="POTIM">      0.50000000</i>
   <i name="SMASS">     -3.00000000</i>
   <i name="SCALEE">      1.00000000</i>
  </separator>
  <separator name="ionic md" >
   <i name="TEBEG">      0.00010000</i>
   <i name="TEEND">      0.00010000</i>
   <i type="int" name="NBLOCK">     1</i>
   <i type="int" name="KBLOCK">     1</i>
   <i type="int" name="NPACO">   256</i>
   <i name="APACO">     10.00000000</i>
  </separator>
  <separator name="symmetry" >
   <i type="int" name="ISYM">     3</i>
   <i name="SYMPREC">      0.00001000</i>
  </separator>
  <separator name="dos" >
   <i type="int" name="LORBIT">    11</i>
   <v name="RWIGS">     -1.00000000     -1.00000000     -1.00000000</v>
   <i type="int" name="NEDOS">   301</i>
   <i name="EMIN">     10.00000000</i>
   <i name="EMAX">    -10.00000000</i>
   <i name="EFERMI">      0.00000000</i>
  </separator>
  <separator name="writing" >
   <i type="int" name="NWRITE">     2</i>
   <i type="logical" name="LWAVE"> T  </i>
   <i type="logical" name="LDOWNSAMPLE"> F  </i>
   <i type="logical" name="LCHARG"> T  </i>
   <i type="logical" name="LPARD"> F  </i>
   <i type="logical" name="LVTOT"> T  </i>
   <i type="logical" name="LVHAR"> F  </i>
   <i type="logical" name="LELF"> F  </i>
   <i type="logical" name="LOPTICS"> F  </i>
   <v name="STM">      0.00000000      0.00000000      0.00000000      0.00000000      0.00000000      0.00000000      0.00000000</v>
  </separator>
  <separator name="performance" >
   <i type="int" name="NPAR">    12</i>
   <i type="int" name="NSIM">     4</i>
   <i type="int" name="NBLK">    -1</i>
   <i type="logical" name="LPLANE"> T  </i>
   <i type="logical" name="LSCALAPACK"> T  </i>
   <i type="logical" name="LSCAAWARE"> F  </i>
   <i type="logical" name="LSCALU"> F  </i>
   <i type="logical" name="LASYNC"> F  </i>
   <i type="logical" name="LORBITALREAL"> F  </i>
  </separator>
  <separator name="miscellaneous" >
   <i type="int" name="IDIOT">     3</i>
   <i type="int" name="PHON_NSTRUCT">    -1</i>
   <i type="logical" name="LMUSIC"> F  </i>
   <v name="POMASS">     63.54600000    121.75000000     32.06600000</v>
   <v name="DARWINR">      0.00000000      0.00000000      0.00000000</v>
   <v name="DARWINV">      1.00000000      1.00000000      1.00000000</v>
   <i type="logical" name="LCORR"> T  </i>
  </separator>
  <i type="logical" name="GGA_COMPAT"> T  </i>
  <i type="logical" name="LBERRY"> F  </i>
  <i type="int" name="ICORELEVEL">     0</i>
  <i type="logical" name="LDAU"> F  </i>
  <i type="int" name="I_CONSTRAINED_M">     0</i>
  <separator name="electronic exchange-correlation" >
   <i type="string" name="GGA">PE</i>
   <i type="int" name="VOSKOWN">     0</i>
   <i type="logical" name="LHFCALC"> T  </i>
   <i type="string" name="PRECFOCK">accur.</i>
   <i type="logical" name="LSYMGRAD"> F  </i>
   <i type="logical" name="LHFONE"> F  </i>
   <i type="logical" name="LRHFCALC"> F  </i>
   <i type="logical" name="LTHOMAS"> F  </i>
   <i type="logical" name="LMODELHF"> F  </i>
   <i type="logical" name="LFOCKACE"> T  </i>
   <i name="ENCUT4O">     -1.00000000</i>
   <i type="int" name="EXXOEP">     0</i>
   <i type="int" name="FOURORBIT">     0</i>
   <i name="AEXX">      0.25000000</i>
   <i name="HFALPHA">     -1.00000000</i>
   <i name="MCALPHA">      0.00000000</i>
   <i name="ALDAX">      0.75000000</i>
   <i name="AGGAX">      0.75000000</i>
   <i name="ALDAC">      1.00000000</i>
   <i name="AGGAC">      1.00000000</i>
   <i type="int" name="NKREDX">     1</i>
   <i type="int" name="NKREDY">     1</i>
   <i type="int" name="NKREDZ">     1</i>
   <i type="logical" name="SHIFTRED"> F  </i>
   <i type="logical" name="ODDONLY"> F  </i>
   <i type="logical" name="EVENONLY"> F  </i>
   <i type="int" name="LMAXFOCK">     4</i>
   <i type="int" name="NMAXFOCKAE">     1</i>
   <i type="logical" name="LFOCKAEDFT"> F  </i>
   <i name="HFSCREEN">      0.20000000</i>
   <i name="HFSCREENC">      0.20000000</i>
   <i type="int" name="NBANDSGWLOW">     1</i>
  </separator>
  <separator name="vdW DFT" >
   <i type="logical" name="LUSE_VDW"> F  </i>
   <i type="int" name="IVDW_NL">     1</i>
   <i type="logical" name="LSPIN_VDW"> F  </i>
   <i name="Zab_VDW">     -0.84910000</i>
   <i name="PARAM1">      0.12340000</i>
   <i name="PARAM2">      1.00000000</i>
   <i name="PARAM3">      0.00000000</i>
  </separator>
  <separator name="model GW" >
   <i type="int" name="MODEL_GW">     0</i>
   <i name="MODEL_EPS0">     12.54913108</i>
   <i name="MODEL_ALPHA">      1.00000000</i>
  </separator>
  <separator name="linear response parameters" >
   <i type="logical" name="LEPSILON"> F  </i>
   <i type="logical" name="LRPA"> F  </i>
   <i type="logical" name="LNABLA"> F  </i>
   <i type="logical" name="LVEL"> F  </i>
   <i name="CSHIFT">      0.10000000</i>
   <i name="OMEGAMAX">     -1.00000000</i>
   <i name="DEG_THRESHOLD">      0.00200000</i>
   <i name="RTIME">     -0.10000000</i>
   <i name="WPLASMAI">      0.00000000</i>
   <v name="DFIELD">      0.00000000      0.00000000      0.00000000</v>
   <v name="WPLASMA">      0.00000000      0.00000000      0.00000000      0.00000000      0.00000000      0.00000000      0.00000000      0.00000000      0.00000000</v>
  </separator>
  <separator name="orbital magnetization" >
   <i type="logical" name="NUCIND"> F  </i>
   <v name="MAGPOS">      0.00000000      0.00000000      0.00000000</v>
   <i type="logical" name="LNICSALL"> T  </i>
   <i type="logical" name="ORBITALMAG"> F  </i>
   <i type="logical" name="LMAGBLOCH"> F  </i>
   <i type="logical" name="LCHIMAG"> F  </i>
   <i type="logical" name="LGAUGE"> T  </i>
   <i type="int" name="MAGATOM">     0</i>
   <v name="MAGDIPOL">      0.00000000      0.00000000      0.00000000</v>
   <v name="AVECCONST">      0.00000000      0.00000000      0.00000000</v>
  </separator>
  <separator name="response functions" >
   <i type="logical" name="LALL_IN_ONE"> F  </i>
   <i type="int" name="IALL_IN_ONE">    -1</i>
   <i type="int" name="NBANDS_WAVE">    -1</i>
   <i type="logical" name="LFINITE_TEMPERATURE"> F  </i>
   <i type="logical" name="LADDER"> F  </i>
   <i type="logical" name="LRPAFORCE"> F  </i>
   <i type="logical" name="LFXC"> F  </i>
   <i type="logical" name="LHARTREE"> T  </i>
   <i type="int" name="IBSE">     0</i>
   <v type="int" name="KPOINT">    -1     0     0     0</v>
   <i type="logical" name="LTCTC"> F  </i>
   <i type="logical" name="LTCTE"> F  </i>
   <i type="logical" name="LTETE"> F  </i>
   <i type="logical" name="LTRIPLET"> F  </i>
   <i type="logical" name="LFXCEPS"> F  </i>
   <i type="logical" name="LFXHEG"> F  </i>
   <i type="int" name="NATURALO">     2</i>
   <i type="logical" name="LHOLEGF"> F  </i>
   <i type="logical" name="L2ORDER"> F  </i>
   <i type="logical" name="LDMP1"> F  </i>
   <i type="logical" name="LMP2LT"> F  </i>
   <i type="logical" name="LSMP2LT"> F  </i>
   <i type="logical" name="LGWLF"> F  </i>
   <i name="ENCUTGW">     -1.60000002</i>
   <i name="ENCUTGWSOFT">     -1.60000002</i>
   <i name="ENCUTLF">     -1.00000000</i>
   <i type="logical" name="LESF_SPLINES"> F  </i>
   <i type="int" name="LMAXMP2">    -1</i>
   <i name="SCISSOR">      0.00000000</i>
   <i type="int" name="NOMEGA">     0</i>
   <i type="int" name="NOMEGAR">     0</i>
   <i type="int" name="NBANDSGW">    -1</i>
   <i type="int" name="NBANDSO">    -1</i>
   <i type="int" name="NBANDSV">    -1</i>
   <i type="int" name="NELMGW">     1</i>
   <i type="int" name="NELMHF">     1</i>
   <i type="int" name="DIM">     3</i>
   <i type="int" name="IESPILON">     4</i>
   <i type="int" name="ANTIRES">     0</i>
   <i name="OMEGAMAX">    -30.00000000</i>
   <i name="OMEGAMIN">    -30.00000000</i>
   <i name="OMEGATL">   -200.00000000</i>
   <i type="int" name="OMEGAGRID">     0</i>
   <i name="CSHIFT">     -0.10000000</i>
   <i type="logical" name="LSELFENERGY"> F  </i>
   <i type="logical" name="LSPECTRAL"> F  </i>
   <i type="logical" name="LSPECTRALGW"> F  </i>
   <i type="logical" name="LSINGLES"> F  </i>
   <i type="logical" name="LFERMIGW"> F  </i>
   <i type="logical" name="ODDONLYGW"> F  </i>
   <i type="logical" name="EVENONLYGW"> F  </i>
   <i type="int" name="NKREDLFX">     1</i>
   <i type="int" name="NKREDLFY">     1</i>
   <i type="int" name="NKREDLFZ">     1</i>
   <i type="int" name="MAXMEM">  2800</i>
   <i type="int" name="TELESCOPE">     0</i>
   <i type="int" name="NTAUPAR">    -1</i>
   <i type="int" name="NOMEGAPAR">    -1</i>
   <i name="DAMP_NEWTON">      0.80000001</i>
   <i name="LAMBDA">      1.00000000</i>
  </separator>
  <separator name="External order field" >
   <i name="OFIELD_KAPPA">      0.00000000</i>
   <v name="OFIELD_K">      0.00000000      0.00000000      0.00000000</v>
   <i name="OFIELD_Q6_NEAR">      0.00000000</i>
   <i name="OFIELD_Q6_FAR">      0.00000000</i>
   <i name="OFIELD_A">      0.00000000</i>
  </separator>
  <separator name="optional k-points parameters" >
   <i type="int" name="KPOINTS_OPT_MODE">     1</i>
   <i type="logical" name="LKPOINTS_OPT"> F  </i>
  </separator>
 </parameters>
 <atominfo>
  <atoms>      16 </atoms>
  <types>       3 </types>
  <array name="atoms" >
   <dimension dim="1">ion</dimension>
   <field type="string">element</field>
   <field type="int">atomtype</field>
   <set>
    <rc><c>Cu</c><c>   1</c></rc>
    <rc><c>Cu</c><c>   1</c></rc>
    <rc><c>Cu</c><c>   1</c></rc>
    <rc><c>Cu</c><c>   1</c></rc>
    <rc><c>Sb</c><c>   2</c></rc>
    <rc><c>Sb</c><c>   2</c></rc>
    <rc><c>Sb</c><c>   2</c></rc>
    <rc><c>Sb</c><c>   2</c></rc>
    <rc><c>S </c><c>   3</c></rc>
    <rc><c>S </c><c>   3</c></rc>
    <rc><c>S </c><c>   3</c></rc>
    <rc><c>S </c><c>   3</c></rc>
    <rc><c>S </c><c>   3</c></rc>
    <rc><c>S </c><c>   3</c></rc>
    <rc><c>S </c><c>   3</c></rc>
    <rc><c>S </c><c>   3</c></rc>
   </set>
  </array>
  <array name="atomtypes" >
   <dimension dim="1">type</dimension>
   <field type="int">atomspertype</field>
   <field type="string">element</field>
   <field>mass</field>
   <field>valence</field>
   <field type="string">pseudopotential</field>
   <set>
    <rc><c>   4</c><c>Cu</c><c>     63.54600000</c><c>     11.00000000</c><c>  PAW_PBE Cu 22Jun2005                  </c></rc>
    <rc><c>   4</c><c>Sb</c><c>    121.75000000</c><c>      5.00000000</c><c>  PAW_PBE Sb 06Sep2000                  </c></rc>
    <rc><c>   8</c><c>S </c><c>     32.06600000</c><c>      6.00000000</c><c>  PAW_PBE S 06Sep2000                   </c></rc>
   </set>
  </array>
 </atominfo>
 <structure name="initialpos" >
  <crystal>
   <varray name="basis" >
    <v>       3.80157474       0.00000000       0.00000000 </v>
    <v>      -0.00000000       6.07432056       0.00000000 </v>
    <v>       0.00000000       0.00000000      14.49176048 </v>
   </varray>
   <i name="volume">    334.64349539 </i>
   <varray name="rec_basis" >
    <v>       0.26304889       0.00000000       0.00000000 </v>
    <v>       0.00000000       0.16462747       0.00000000 </v>
    <v>      -0.00000000      -0.00000000       0.06900473 </v>
   </varray>
  </crystal>
  <varray name="positions" >
   <v>       0.25000000       0.25010162       0.82821842 </v>
   <v>       0.25000000       0.75010162       0.67178158 </v>
   <v>       0.75000000       0.74989838       0.17178158 </v>
   <v>       0.75000000       0.24989838       0.32821842 </v>
   <v>       0.25000000       0.72881200       0.43458741 </v>
   <v>       0.75000000       0.27118800       0.56541259 </v>
   <v>       0.25000000       0.22881200       0.06541259 </v>
   <v>       0.75000000       0.77118800       0.93458741 </v>
   <v>       0.25000000       0.12368586       0.40104516 </v>
   <v>       0.75000000       0.87631414       0.59895484 </v>
   <v>       0.25000000       0.62368586       0.09895484 </v>
   <v>       0.75000000       0.37631414       0.90104516 </v>
   <v>       0.75000000       0.62427265       0.32157721 </v>
   <v>       0.25000000       0.87572735       0.82157721 </v>
   <v>       0.75000000       0.12427265       0.17842279 </v>
   <v>       0.25000000       0.37572735       0.67842279 </v>
  </varray>
 </structure>
 <calculation>
  <scstep>
   <time name="dav">    1.11    1.14</time>
   <time name="total">    1.59    1.67</time>
   <energy>
    <i name="alphaZ">    140.40642575 </i>
    <i name="ewald">  -5671.52231121 </i>
    <i name="hartreedc">  -2980.89971617 </i>
    <i name="XCdc">     97.39382403 </i>
    <i name="pawpsdc">   7306.92580695 </i>
    <i name="pawaedc"> -14570.49902142 </i>
    <i name="eentropy">      0.00000000 </i>
    <i name="bandstr">   1132.70463185 </i>
    <i name="atom">   8349.84459897 </i>
    <i name="e_fr_energy">  -6195.64576126 </i>
    <i name="e_wo_entrp">  -6195.64576126 </i>
    <i name="e_0_energy">  -6195.64576126 </i>
   </energy>
  </scstep>
  <scstep>
   <time name="dav">    1.08    1.09</time>
   <time name="total">    1.10    1.10</time>
   <energy>
    <i name="e_fr_energy">  -7166.81180271 </i>
    <i name="e_wo_entrp">  -7166.81180271 </i>
    <i name="e_0_energy">  -7166.81180271 </i>
   </energy>
  </scstep>
  <scstep>
   <time name="dav">    1.33    1.35</time>
   <time name="total">    1.33    1.35</time>
   <energy>
    <i name="e_fr_energy">  -7363.79011272 </i>
    <i name="e_wo_entrp">  -7363.79011272 </i>
    <i name="e_0_energy">  -7363.79011272 </i>
   </energy>
  </scstep>
  <scstep>
   <time name="dav">    1.33    1.39</time>
   <time name="total">    1.34    1.40</time>
   <energy>
    <i name="e_fr_energy">  -7378.81615456 </i>
    <i name="e_wo_entrp">  -7378.81615456 </i>
    <i name="e_0_energy">  -7378.81615456 </i>
   </energy>
  </scstep>
  <scstep>
   <time name="dav">  322.89  323.73</time>
   <time name="total">  324.05  324.91</time>
   <energy>
    <i name="e_fr_energy">    -83.84697978 </i>
    <i name="e_wo_entrp">    -83.84697978 </i>
    <i name="e_0_energy">    -83.84697978 </i>
   </energy>
  </scstep>
  <scstep>
   <time name="dav">  326.37  327.18</time>
   <time name="total">  327.49  328.31</time>
   <energy>
    <i name="e_fr_energy">    -81.32373196 </i>
    <i name="e_wo_entrp">    -81.32373196 </i>
    <i name="e_0_energy">    -81.32373196 </i>
   </energy>
  </scstep>
  <scstep>
   <time name="dav">  325.87  326.66</time>
   <time name="total">  326.99  327.80</time>
   <energy>
    <i name="e_fr_energy">    -81.40753018 </i>
    <i name="e_wo_entrp">    -81.40753018 </i>
    <i name="e_0_energy">    -81.40753018 </i>
   </energy>
  </scstep>
  <scstep>
   <time name="dav">  326.60  327.40</time>
   <time name="total">  327.73  328.54</time>
   <energy>
    <i name="e_fr_energy">    -81.58785544 </i>
    <i name="e_wo_entrp">    -81.58785544 </i>
    <i name="e_0_energy">    -81.58785544 </i>
   </energy>
  </scstep>
  <scstep>
   <time name="dav">  326.44  327.24</time>
   <time name="total">  327.57  328.44</time>
   <energy>
    <i name="e_fr_energy">    -81.56667671 </i>
    <i name="e_wo_entrp">    -81.56667671 </i>
    <i name="e_0_energy">    -81.56667671 </i>
   </energy>
  </scstep>
  <scstep>
   <time name="dav">  325.52  326.31</time>
   <time name="total">  326.68  327.48</time>
   <energy>
    <i name="e_fr_energy">    -81.57476704 </i>
    <i name="e_wo_entrp">    -81.57476704 </i>
    <i name="e_0_energy">    -81.57476704 </i>
   </energy>
  </scstep>
  <scstep>
   <time name="dav">  326.41  327.20</time>
   <time name="total">  327.52  328.32</time>
   <energy>
    <i name="e_fr_energy">    -81.57930307 </i>
    <i name="e_wo_entrp">    -81.57930307 </i>
    <i name="e_0_energy">    -81.57930307 </i>
   </energy>
  </scstep>
  <scstep>
   <time name="dav">  325.74  326.53</time>
   <time name="total">  326.85  327.65</time>
   <energy>
    <i name="e_fr_energy">    -81.58027492 </i>
    <i name="e_wo_entrp">    -81.58027492 </i>
    <i name="e_0_energy">    -81.58027492 </i>
   </energy>
  </scstep>
  <scstep>
   <time name="dav">  326.71  327.50</time>
   <time name="total">  327.83  328.64</time>
   <energy>
    <i name="e_fr_energy">    -81.58083092 </i>
    <i name="e_wo_entrp">    -81.58083092 </i>
    <i name="e_0_energy">    -81.58083092 </i>
   </energy>
  </scstep>
  <scstep>
   <time name="dav">  326.15  326.96</time>
   <time name="total">  327.27  328.15</time>
   <energy>
    <i name="e_fr_energy">    -81.58108313 </i>
    <i name="e_wo_entrp">    -81.58108313 </i>
    <i name="e_0_energy">    -81.58108313 </i>
   </energy>
  </scstep>
  <scstep>
   <time name="dav">  325.18  325.96</time>
   <time name="total">  326.37  327.15</time>
   <energy>
    <i name="e_fr_energy">    -81.58119022 </i>
    <i name="e_wo_entrp">    -81.58119022 </i>
    <i name="e_0_energy">    -81.58119022 </i>
   </energy>
  </scstep>
  <scstep>
   <time name="dav">  327.59  330.28</time>
   <time name="total">  328.71  331.53</time>
   <energy>
    <i name="e_fr_energy">    -81.58123702 </i>
    <i name="e_wo_entrp">    -81.58123702 </i>
    <i name="e_0_energy">    -81.58123702 </i>
   </energy>
  </scstep>
  <scstep>
   <time name="dav">  325.42  326.21</time>
   <time name="total">  326.56  327.36</time>
   <energy>
    <i name="e_fr_energy">    -81.58125850 </i>
    <i name="e_wo_entrp">    -81.58125850 </i>
    <i name="e_0_energy">    -81.58125850 </i>
   </energy>
  </scstep>
  <scstep>
   <time name="dav">  325.87  326.65</time>
   <time name="total">  326.99  327.77</time>
   <energy>
    <i name="e_fr_energy">    -81.58126893 </i>
    <i name="e_wo_entrp">    -81.58126893 </i>
    <i name="e_0_energy">    -81.58126893 </i>
   </energy>
  </scstep>
  <scstep>
   <time name="dav">  326.53  327.30</time>
   <time name="total">  327.55  328.32</time>
   <energy>
    <i name="alphaZ">    140.40642575 </i>
    <i name="ewald">  -5671.52231121 </i>
    <i name="hartreedc">  -2985.08481538 </i>
    <i name="XCdc">     66.16394906 </i>
    <i name="pawpsdc">  20372.07974927 </i>
    <i name="pawaedc"> -20578.50905579 </i>
    <i name="eentropy">      0.00000000 </i>
    <i name="bandstr">     -8.50602734 </i>
    <i name="atom">   8349.84459897 </i>
    <i name="e_fr_energy">    -81.58127426 </i>
    <i name="e_wo_entrp">    -81.58127426 </i>
    <i name="e_0_energy">    -81.58127426 </i>
   </energy>
  </scstep>
  <structure>
   <crystal>
    <varray name="basis" >
     <v>       3.80157474       0.00000000       0.00000000 </v>
     <v>      -0.00000000       6.07432056       0.00000000 </v>
     <v>       0.00000000       0.00000000      14.49176048 </v>
    </varray>
    <i name="volume">    334.64349539 </i>
    <varray name="rec_basis" >
     <v>       0.26304889       0.00000000       0.00000000 </v>
     <v>       0.00000000       0.16462747       0.00000000 </v>
     <v>      -0.00000000      -0.00000000       0.06900473 </v>
    </varray>
   </crystal>
   <varray name="positions" >
    <v>       0.25000000       0.25010162       0.82821842 </v>
    <v>       0.25000000       0.75010162       0.67178158 </v>
    <v>       0.75000000       0.74989838       0.17178158 </v>
    <v>       0.75000000       0.24989838       0.32821842 </v>
    <v>       0.25000000       0.72881200       0.43458741 </v>
    <v>       0.75000000       0.27118800       0.56541259 </v>
    <v>       0.25000000       0.22881200       0.06541259 </v>
    <v>       0.75000000       0.77118800       0.93458741 </v>
    <v>       0.25000000       0.12368586       0.40104516 </v>
    <v>       0.75000000       0.87631414       0.59895484 </v>
    <v>       0.25000000       0.62368586       0.09895484 </v>
    <v>       0.75000000       0.37631414       0.90104516 </v>
    <v>       0.75000000       0.62427265       0.32157721 </v>
    <v>       0.25000000       0.87572735       0.82157721 </v>
    <v>       0.75000000       0.12427265       0.17842279 </v>
    <v>       0.25000000       0.37572735       0.67842279 </v>
   </varray>
  </structure>
  <varray name="forces" >
   <v>      -0.00000000       0.04445785       0.00180933 </v>
   <v>      -0.00000000       0.04445785      -0.00180933 </v>
   <v>       0.00000000      -0.04445785      -0.00180933 </v>
   <v>       0.00000000      -0.04445785       0.00180933 </v>
   <v>      -0.00000000       0.23389660      -0.33304112 </v>
   <v>       0.00000000      -0.23389660       0.33304112 </v>
   <v>      -0.00000000       0.23389660       0.33304112 </v>
   <v>       0.00000000      -0.23389660      -0.33304112 </v>
   <v>       0.00000000      -0.39476083       0.32201389 </v>
   <v>      -0.00000000       0.39476083      -0.32201389 </v>
   <v>       0.00000000      -0.39476083      -0.32201389 </v>
   <v>      -0.00000000       0.39476083       0.32201389 </v>
   <v>      -0.00000000       0.25062762       0.53442699 </v>
   <v>       0.00000000      -0.25062762       0.53442699 </v>
   <v>      -0.00000000       0.25062762      -0.53442699 </v>
   <v>       0.00000000      -0.25062762      -0.53442699 </v>
  </varray>
  <energy>
   <i name="e_fr_energy">    -81.58127426 </i>
   <i name="e_wo_entrp">    -81.58127426 </i>
   <i name="e_0_energy">    -81.58127426 </i>
  </energy>
  <time name="totalsc"> 5196.70 5213.38</time>
  <eigenvalues>
   <array>
    <dimension dim="1">band</dimension>
    <dimension dim="2">kpoint</dimension>
    <dimension dim="3">spin</dimension>
    <field>eigene</field>
    <field>occ</field>
    <set>
     <set comment="spin 1">
      <set comment="kpoint 1">
       <r>  -10.8432    1.0000 </r>
       <r>  -10.5298    1.0000 </r>
       <r>  -10.4164    1.0000 </r>
       <r>  -10.0008    1.0000 </r>
       <r>   -9.0960    1.0000 </r>
       <r>   -8.9687    1.0000 </r>
       <r>   -8.7940    1.0000 </r>
       <r>   -8.5985    1.0000 </r>
       <r>   -4.5808    1.0000 </r>
       <r>   -4.3992    1.0000 </r>
       <r>   -4.3578    1.0000 </r>
       <r>   -3.8961    1.0000 </r>
       <r>   -1.4986    1.0000 </r>
       <r>   -1.0701    1.0000 </r>
       <r>   -0.5634    1.0000 </r>
       <r>   -0.1545    1.0000 </r>
       <r>   -0.0601    1.0000 </r>
       <r>    0.4482    1.0000 </r>
       <r>    0.6955    1.0000 </r>
       <r>    0.7980    1.0000 </r>
       <r>    0.8926    1.0000 </r>
       <r>    1.0093    1.0000 </r>
       <r>    1.0256    1.0000 </r>
       <r>    1.0637    1.0000 </r>
       <r>    1.0715    1.0000 </r>
       <r>    1.1028    1.0000 </r>
       <r>    1.1791    1.0000 </r>
       <r>    1.2320    1.0000 </r>
       <r>    1.4268    1.0000 </r>
       <r>    1.4867    1.0000 </r>
       <r>    1.5063    1.0000 </r>
       <r>    1.5673    1.0000 </r>
       <r>    2.0601    1.0000 </r>
       <r>    2.2047    1.0000 </r>
       <r>    2.4577    1.0000 </r>
       <r>    2.4991    1.0000 </r>
       <r>    2.4998    1.0000 </r>
       <r>    2.5097    1.0000 </r>
       <r>    2.5496    1.0000 </r>
       <r>    2.7503    1.0000 </r>
       <r>    2.9991    1.0000 </r>
       <r>    3.0207    1.0000 </r>
       <r>    3.0377    1.0000 </r>
       <r>    3.1716    1.0000 </r>
       <r>    3.4694    1.0000 </r>
       <r>    3.4869    1.0000 </r>
       <r>    3.8131    1.0000 </r>
       <r>    4.2967    1.0000 </r>
       <r>    4.4542    1.0000 </r>
       <r>    4.8000    1.0000 </r>
       <r>    4.8258    1.0000 </r>
       <r>    4.9689    1.0000 </r>
       <r>    5.0363    1.0000 </r>
       <r>    5.1082    1.0000 </r>
       <r>    5.1115    1.0000 </r>
       <r>    5.2172    1.0000 </r>
       <r>    6.9213    0.0000 </r>
       <r>    7.2872    0.0000 </r>
       <r>    7.3124    0.0000 </r>
       <r>    7.6990    0.0000 </r>
       <r>    8.1833    0.0000 </r>
       <r>    8.4871    0.0000 </r>
       <r>    8.6722    0.0000 </r>
       <r>    8.8145    0.0000 </r>
       <r>    8.9021    0.0000 </r>
       <r>    8.9632    0.0000 </r>
       <r>    9.4056    0.0000 </r>
       <r>    9.5441    0.0000 </r>
       <r>   10.4967    0.0000 </r>
       <r>   10.7000    0.0000 </r>
       <r>   11.1696    0.0000 </r>
       <r>   11.7600    0.0000 </r>
      </set>
      <set comment="kpoint 2">
       <r>  -10.6337    1.0000 </r>
       <r>  -10.3283    1.0000 </r>
       <r>  -10.2294    1.0000 </r>
       <r>   -9.8209    1.0000 </r>
       <r>   -9.0092    1.0000 </r>
       <r>   -8.9212    1.0000 </r>
       <r>   -8.7610    1.0000 </r>
       <r>   -8.6007    1.0000 </r>
       <r>   -4.5936    1.0000 </r>
       <r>   -4.3817    1.0000 </r>
       <r>   -4.3303    1.0000 </r>
       <r>   -3.9607    1.0000 </r>
       <r>   -1.2816    1.0000 </r>
       <r>   -0.8737    1.0000 </r>
       <r>   -0.5113    1.0000 </r>
       <r>   -0.1232    1.0000 </r>
       <r>   -0.0785    1.0000 </r>
       <r>   -0.0137    1.0000 </r>
       <r>    0.0017    1.0000 </r>
       <r>    0.2730    1.0000 </r>
       <r>    0.5569    1.0000 </r>
       <r>    0.6896    1.0000 </r>
       <r>    0.7103    1.0000 </r>
       <r>    0.9114    1.0000 </r>
       <r>    1.0308    1.0000 </r>
       <r>    1.0471    1.0000 </r>
       <r>    1.0661    1.0000 </r>
       <r>    1.1272    1.0000 </r>
       <r>    1.1925    1.0000 </r>
       <r>    1.2078    1.0000 </r>
       <r>    1.3142    1.0000 </r>
       <r>    1.3472    1.0000 </r>
       <r>    2.0727    1.0000 </r>
       <r>    2.2761    1.0000 </r>
       <r>    2.4042    1.0000 </r>
       <r>    2.4150    1.0000 </r>
       <r>    2.5450    1.0000 </r>
       <r>    2.5454    1.0000 </r>
       <r>    2.6125    1.0000 </r>
       <r>    2.7142    1.0000 </r>
       <r>    2.8859    1.0000 </r>
       <r>    2.9736    1.0000 </r>
       <r>    3.0515    1.0000 </r>
       <r>    3.1223    1.0000 </r>
       <r>    3.4650    1.0000 </r>
       <r>    3.5131    1.0000 </r>
       <r>    3.6036    1.0000 </r>
       <r>    3.7926    1.0000 </r>
       <r>    4.0921    1.0000 </r>
       <r>    4.3128    1.0000 </r>
       <r>    4.5244    1.0000 </r>
       <r>    4.5639    1.0000 </r>
       <r>    4.8054    1.0000 </r>
       <r>    4.8254    1.0000 </r>
       <r>    4.9221    1.0000 </r>
       <r>    5.1260    1.0000 </r>
       <r>    7.8442    0.0000 </r>
       <r>    7.8930    0.0000 </r>
       <r>    7.9190    0.0000 </r>
       <r>    8.1332    0.0000 </r>
       <r>    8.2689    0.0000 </r>
       <r>    8.4875    0.0000 </r>
       <r>    8.5226    0.0000 </r>
       <r>    8.5686    0.0000 </r>
       <r>    8.9760    0.0000 </r>
       <r>    9.1122    0.0000 </r>
       <r>    9.7661    0.0000 </r>
       <r>    9.8100    0.0000 </r>
       <r>   11.1293    0.0000 </r>
       <r>   11.3570    0.0000 </r>
       <r>   11.7148    0.0000 </r>
       <r>   11.8816    0.0000 </r>
      </set>
      <set comment="kpoint 3">
       <r>  -10.0620    1.0000 </r>
       <r>   -9.7893    1.0000 </r>
       <r>   -9.7448    1.0000 </r>
       <r>   -9.3696    1.0000 </r>
       <r>   -8.8980    1.0000 </r>
       <r>   -8.8599    1.0000 </r>
       <r>   -8.7908    1.0000 </r>
       <r>   -8.7517    1.0000 </r>
       <r>   -4.6704    1.0000 </r>
       <r>   -4.5715    1.0000 </r>
       <r>   -4.3548    1.0000 </r>
       <r>   -4.2906    1.0000 </r>
       <r>   -1.0148    1.0000 </r>
       <r>   -0.8815    1.0000 </r>
       <r>   -0.8279    1.0000 </r>
       <r>   -0.6196    1.0000 </r>
       <r>   -0.4999    1.0000 </r>
       <r>   -0.4588    1.0000 </r>
       <r>   -0.4557    1.0000 </r>
       <r>   -0.2720    1.0000 </r>
       <r>    0.2517    1.0000 </r>
       <r>    0.3041    1.0000 </r>
       <r>    0.3201    1.0000 </r>
       <r>    0.6643    1.0000 </r>
       <r>    0.8426    1.0000 </r>
       <r>    0.9791    1.0000 </r>
       <r>    0.9893    1.0000 </r>
       <r>    1.0972    1.0000 </r>
       <r>    1.1920    1.0000 </r>
       <r>    1.2044    1.0000 </r>
       <r>    1.6319    1.0000 </r>
       <r>    1.6532    1.0000 </r>
       <r>    1.9576    1.0000 </r>
       <r>    2.1126    1.0000 </r>
       <r>    2.1932    1.0000 </r>
       <r>    2.3372    1.0000 </r>
       <r>    2.4501    1.0000 </r>
       <r>    2.5039    1.0000 </r>
       <r>    2.5150    1.0000 </r>
       <r>    2.5446    1.0000 </r>
       <r>    2.7282    1.0000 </r>
       <r>    2.7363    1.0000 </r>
       <r>    2.8435    1.0000 </r>
       <r>    2.8517    1.0000 </r>
       <r>    3.1269    1.0000 </r>
       <r>    3.2353    1.0000 </r>
       <r>    3.2747    1.0000 </r>
       <r>    3.5984    1.0000 </r>
       <r>    3.7100    1.0000 </r>
       <r>    3.7253    1.0000 </r>
       <r>    3.7864    1.0000 </r>
       <r>    4.0495    1.0000 </r>
       <r>    4.1127    1.0000 </r>
       <r>    4.2204    1.0000 </r>
       <r>    4.4891    1.0000 </r>
       <r>    4.7063    1.0000 </r>
       <r>    7.4407    0.0000 </r>
       <r>    7.6518    0.0000 </r>
       <r>    8.0416    0.0000 </r>
       <r>    8.4053    0.0000 </r>
       <r>    8.4386    0.0000 </r>
       <r>    8.5626    0.0000 </r>
       <r>    9.0112    0.0000 </r>
       <r>    9.3455    0.0000 </r>
       <r>    9.3525    0.0000 </r>
       <r>    9.5604    0.0000 </r>
       <r>    9.8762    0.0000 </r>
       <r>    9.9517    0.0000 </r>
       <r>   11.0012    0.0000 </r>
       <r>   11.5183    0.0000 </r>
       <r>   11.6148    0.0000 </r>
       <r>   11.7735    0.0000 </r>
      </set>
      <set comment="kpoint 4">
       <r>   -9.3871    1.0000 </r>
       <r>   -9.3871    1.0000 </r>
       <r>   -9.1545    1.0000 </r>
       <r>   -9.1544    1.0000 </r>
       <r>   -9.1008    1.0000 </r>
       <r>   -9.1008    1.0000 </r>
       <r>   -8.9400    1.0000 </r>
       <r>   -8.9400    1.0000 </r>
       <r>   -4.6670    1.0000 </r>
       <r>   -4.6670    1.0000 </r>
       <r>   -4.6156    1.0000 </r>
       <r>   -4.6156    1.0000 </r>
       <r>   -1.1202    1.0000 </r>
       <r>   -1.1202    1.0000 </r>
       <r>   -0.9329    1.0000 </r>
       <r>   -0.9329    1.0000 </r>
       <r>   -0.4441    1.0000 </r>
       <r>   -0.4441    1.0000 </r>
       <r>   -0.3746    1.0000 </r>
       <r>   -0.3746    1.0000 </r>
       <r>    0.3276    1.0000 </r>
       <r>    0.3276    1.0000 </r>
       <r>    0.3522    1.0000 </r>
       <r>    0.3522    1.0000 </r>
       <r>    0.8004    1.0000 </r>
       <r>    0.8004    1.0000 </r>
       <r>    0.9463    1.0000 </r>
       <r>    0.9463    1.0000 </r>
       <r>    1.2968    1.0000 </r>
       <r>    1.2968    1.0000 </r>
       <r>    1.6624    1.0000 </r>
       <r>    1.6624    1.0000 </r>
       <r>    2.0478    1.0000 </r>
       <r>    2.0478    1.0000 </r>
       <r>    2.1849    1.0000 </r>
       <r>    2.1849    1.0000 </r>
       <r>    2.5240    1.0000 </r>
       <r>    2.5240    1.0000 </r>
       <r>    2.5946    1.0000 </r>
       <r>    2.5946    1.0000 </r>
       <r>    2.6284    1.0000 </r>
       <r>    2.6284    1.0000 </r>
       <r>    2.7547    1.0000 </r>
       <r>    2.7547    1.0000 </r>
       <r>    2.8294    1.0000 </r>
       <r>    2.8294    1.0000 </r>
       <r>    3.2449    1.0000 </r>
       <r>    3.2449    1.0000 </r>
       <r>    3.3724    1.0000 </r>
       <r>    3.3724    1.0000 </r>
       <r>    3.5821    1.0000 </r>
       <r>    3.5821    1.0000 </r>
       <r>    4.1474    1.0000 </r>
       <r>    4.1474    1.0000 </r>
       <r>    4.2595    1.0000 </r>
       <r>    4.2595    1.0000 </r>
       <r>    7.8629    0.0000 </r>
       <r>    7.8629    0.0000 </r>
       <r>    7.9763    0.0000 </r>
       <r>    7.9763    0.0000 </r>
       <r>    8.5643    0.0000 </r>
       <r>    8.5643    0.0000 </r>
       <r>    8.8403    0.0000 </r>
       <r>    8.8403    0.0000 </r>
       <r>    9.5435    0.0000 </r>
       <r>    9.5435    0.0000 </r>
       <r>    9.7570    0.0000 </r>
       <r>    9.7570    0.0000 </r>
       <r>   10.8534    0.0000 </r>
       <r>   10.8534    0.0000 </r>
       <r>   11.5356    0.0000 </r>
       <r>   11.5356    0.0000 </r>
      </set>
      <set comment="kpoint 5">
       <r>  -10.6938    1.0000 </r>
       <r>  -10.4176    1.0000 </r>
       <r>  -10.3087    1.0000 </r>
       <r>  -10.0002    1.0000 </r>
       <r>   -9.2775    1.0000 </r>
       <r>   -9.1543    1.0000 </r>
       <r>   -8.9209    1.0000 </r>
       <r>   -8.7273    1.0000 </r>
       <r>   -4.9307    1.0000 </r>
       <r>   -4.6690    1.0000 </r>
       <r>   -4.0246    1.0000 </r>
       <r>   -3.7079    1.0000 </r>
       <r>   -1.0172    1.0000 </r>
       <r>   -0.4904    1.0000 </r>
       <r>   -0.4768    1.0000 </r>
       <r>   -0.0939    1.0000 </r>
       <r>   -0.0303    1.0000 </r>
       <r>    0.4141    1.0000 </r>
       <r>    0.6953    1.0000 </r>
       <r>    0.7627    1.0000 </r>
       <r>    0.8035    1.0000 </r>
       <r>    0.8818    1.0000 </r>
       <r>    0.9361    1.0000 </r>
       <r>    1.0313    1.0000 </r>
       <r>    1.0707    1.0000 </r>
       <r>    1.1519    1.0000 </r>
       <r>    1.2365    1.0000 </r>
       <r>    1.3777    1.0000 </r>
       <r>    1.4140    1.0000 </r>
       <r>    1.4730    1.0000 </r>
       <r>    1.6209    1.0000 </r>
       <r>    1.6724    1.0000 </r>
       <r>    2.2075    1.0000 </r>
       <r>    2.2304    1.0000 </r>
       <r>    2.3154    1.0000 </r>
       <r>    2.4795    1.0000 </r>
       <r>    2.5982    1.0000 </r>
       <r>    2.6087    1.0000 </r>
       <r>    2.6391    1.0000 </r>
       <r>    2.8446    1.0000 </r>
       <r>    2.9905    1.0000 </r>
       <r>    3.0250    1.0000 </r>
       <r>    3.0301    1.0000 </r>
       <r>    3.3151    1.0000 </r>
       <r>    3.5971    1.0000 </r>
       <r>    3.7411    1.0000 </r>
       <r>    3.7750    1.0000 </r>
       <r>    4.2368    1.0000 </r>
       <r>    4.3866    1.0000 </r>
       <r>    4.4403    1.0000 </r>
       <r>    4.5548    1.0000 </r>
       <r>    4.6669    1.0000 </r>
       <r>    4.7471    1.0000 </r>
       <r>    4.8152    1.0000 </r>
       <r>    5.0176    1.0000 </r>
       <r>    5.1522    1.0000 </r>
       <r>    6.8286    0.0000 </r>
       <r>    6.8359    0.0000 </r>
       <r>    7.5015    0.0000 </r>
       <r>    7.9061    0.0000 </r>
       <r>    8.0346    0.0000 </r>
       <r>    8.0776    0.0000 </r>
       <r>    8.2109    0.0000 </r>
       <r>    8.5141    0.0000 </r>
       <r>    9.1015    0.0000 </r>
       <r>    9.4100    0.0000 </r>
       <r>    9.5254    0.0000 </r>
       <r>    9.9522    0.0000 </r>
       <r>   10.2823    0.0000 </r>
       <r>   10.3821    0.0000 </r>
       <r>   11.1512    0.0000 </r>
       <r>   11.4731    0.0000 </r>
      </set>
      <set comment="kpoint 6">
       <r>  -10.4898    1.0000 </r>
       <r>  -10.2222    1.0000 </r>
       <r>  -10.1246    1.0000 </r>
       <r>   -9.8191    1.0000 </r>
       <r>   -9.1739    1.0000 </r>
       <r>   -9.0775    1.0000 </r>
       <r>   -8.8738    1.0000 </r>
       <r>   -8.7076    1.0000 </r>
       <r>   -4.9097    1.0000 </r>
       <r>   -4.6938    1.0000 </r>
       <r>   -4.0911    1.0000 </r>
       <r>   -3.8450    1.0000 </r>
       <r>   -0.8582    1.0000 </r>
       <r>   -0.5211    1.0000 </r>
       <r>   -0.3526    1.0000 </r>
       <r>   -0.1691    1.0000 </r>
       <r>   -0.0442    1.0000 </r>
       <r>    0.1189    1.0000 </r>
       <r>    0.2081    1.0000 </r>
       <r>    0.2695    1.0000 </r>
       <r>    0.5184    1.0000 </r>
       <r>    0.5748    1.0000 </r>
       <r>    0.7809    1.0000 </r>
       <r>    0.8733    1.0000 </r>
       <r>    0.9336    1.0000 </r>
       <r>    1.0036    1.0000 </r>
       <r>    1.0986    1.0000 </r>
       <r>    1.1219    1.0000 </r>
       <r>    1.3090    1.0000 </r>
       <r>    1.3269    1.0000 </r>
       <r>    1.4136    1.0000 </r>
       <r>    1.4553    1.0000 </r>
       <r>    2.0748    1.0000 </r>
       <r>    2.2042    1.0000 </r>
       <r>    2.4248    1.0000 </r>
       <r>    2.5015    1.0000 </r>
       <r>    2.5544    1.0000 </r>
       <r>    2.5989    1.0000 </r>
       <r>    2.6355    1.0000 </r>
       <r>    2.7698    1.0000 </r>
       <r>    2.9297    1.0000 </r>
       <r>    3.0037    1.0000 </r>
       <r>    3.0251    1.0000 </r>
       <r>    3.1648    1.0000 </r>
       <r>    3.5947    1.0000 </r>
       <r>    3.6224    1.0000 </r>
       <r>    3.6660    1.0000 </r>
       <r>    3.9474    1.0000 </r>
       <r>    3.9765    1.0000 </r>
       <r>    4.1682    1.0000 </r>
       <r>    4.2307    1.0000 </r>
       <r>    4.5635    1.0000 </r>
       <r>    4.6366    1.0000 </r>
       <r>    4.6829    1.0000 </r>
       <r>    4.7782    1.0000 </r>
       <r>    4.9419    1.0000 </r>
       <r>    7.3831    0.0000 </r>
       <r>    7.5877    0.0000 </r>
       <r>    7.8170    0.0000 </r>
       <r>    7.8673    0.0000 </r>
       <r>    8.2907    0.0000 </r>
       <r>    8.3006    0.0000 </r>
       <r>    8.6255    0.0000 </r>
       <r>    8.7061    0.0000 </r>
       <r>    8.8252    0.0000 </r>
       <r>    8.9418    0.0000 </r>
       <r>    9.6474    0.0000 </r>
       <r>    9.8144    0.0000 </r>
       <r>   11.1301    0.0000 </r>
       <r>   11.4035    0.0000 </r>
       <r>   11.4536    0.0000 </r>
       <r>   11.7594    0.0000 </r>
      </set>
      <set comment="kpoint 7">
       <r>   -9.9402    1.0000 </r>
       <r>   -9.7078    1.0000 </r>
       <r>   -9.6558    1.0000 </r>
       <r>   -9.3706    1.0000 </r>
       <r>   -8.9708    1.0000 </r>
       <r>   -8.9683    1.0000 </r>
       <r>   -8.8523    1.0000 </r>
       <r>   -8.7835    1.0000 </r>
       <r>   -4.9509    1.0000 </r>
       <r>   -4.8630    1.0000 </r>
       <r>   -4.4246    1.0000 </r>
       <r>   -4.3755    1.0000 </r>
       <r>   -1.0485    1.0000 </r>
       <r>   -0.9607    1.0000 </r>
       <r>   -0.9028    1.0000 </r>
       <r>   -0.5489    1.0000 </r>
       <r>   -0.2974    1.0000 </r>
       <r>   -0.1959    1.0000 </r>
       <r>   -0.0584    1.0000 </r>
       <r>    0.0376    1.0000 </r>
       <r>    0.1762    1.0000 </r>
       <r>    0.3686    1.0000 </r>
       <r>    0.4667    1.0000 </r>
       <r>    0.5603    1.0000 </r>
       <r>    0.8455    1.0000 </r>
       <r>    0.8838    1.0000 </r>
       <r>    1.0950    1.0000 </r>
       <r>    1.1571    1.0000 </r>
       <r>    1.3189    1.0000 </r>
       <r>    1.4613    1.0000 </r>
       <r>    1.6243    1.0000 </r>
       <r>    1.6884    1.0000 </r>
       <r>    1.9154    1.0000 </r>
       <r>    2.0000    1.0000 </r>
       <r>    2.2958    1.0000 </r>
       <r>    2.4118    1.0000 </r>
       <r>    2.5286    1.0000 </r>
       <r>    2.5464    1.0000 </r>
       <r>    2.6671    1.0000 </r>
       <r>    2.6887    1.0000 </r>
       <r>    2.7641    1.0000 </r>
       <r>    2.8097    1.0000 </r>
       <r>    2.8258    1.0000 </r>
       <r>    2.9720    1.0000 </r>
       <r>    3.1951    1.0000 </r>
       <r>    3.3303    1.0000 </r>
       <r>    3.4112    1.0000 </r>
       <r>    3.4538    1.0000 </r>
       <r>    3.4992    1.0000 </r>
       <r>    3.7491    1.0000 </r>
       <r>    3.7598    1.0000 </r>
       <r>    3.9554    1.0000 </r>
       <r>    4.2796    1.0000 </r>
       <r>    4.3330    1.0000 </r>
       <r>    4.5310    1.0000 </r>
       <r>    4.5866    1.0000 </r>
       <r>    7.1488    0.0000 </r>
       <r>    7.4777    0.0000 </r>
       <r>    7.7291    0.0000 </r>
       <r>    7.9910    0.0000 </r>
       <r>    8.2615    0.0000 </r>
       <r>    8.6087    0.0000 </r>
       <r>    8.7384    0.0000 </r>
       <r>    8.9392    0.0000 </r>
       <r>    9.3186    0.0000 </r>
       <r>    9.3285    0.0000 </r>
       <r>    9.4891    0.0000 </r>
       <r>    9.6094    0.0000 </r>
       <r>   10.7649    0.0000 </r>
       <r>   11.3480    0.0000 </r>
       <r>   11.5463    0.0000 </r>
       <r>   11.7872    0.0000 </r>
      </set>
      <set comment="kpoint 8">
       <r>   -9.3243    1.0000 </r>
       <r>   -9.3243    1.0000 </r>
       <r>   -9.1338    1.0000 </r>
       <r>   -9.1338    1.0000 </r>
       <r>   -9.0648    1.0000 </r>
       <r>   -9.0647    1.0000 </r>
       <r>   -8.9753    1.0000 </r>
       <r>   -8.9753    1.0000 </r>
       <r>   -4.9049    1.0000 </r>
       <r>   -4.9049    1.0000 </r>
       <r>   -4.8711    1.0000 </r>
       <r>   -4.8711    1.0000 </r>
       <r>   -1.2403    1.0000 </r>
       <r>   -1.2403    1.0000 </r>
       <r>   -0.9643    1.0000 </r>
       <r>   -0.9643    1.0000 </r>
       <r>   -0.3666    1.0000 </r>
       <r>   -0.3666    1.0000 </r>
       <r>   -0.0556    1.0000 </r>
       <r>   -0.0556    1.0000 </r>
       <r>    0.4151    1.0000 </r>
       <r>    0.4151    1.0000 </r>
       <r>    0.4464    1.0000 </r>
       <r>    0.4464    1.0000 </r>
       <r>    0.9043    1.0000 </r>
       <r>    0.9043    1.0000 </r>
       <r>    1.0478    1.0000 </r>
       <r>    1.0478    1.0000 </r>
       <r>    1.4220    1.0000 </r>
       <r>    1.4220    1.0000 </r>
       <r>    1.6609    1.0000 </r>
       <r>    1.6609    1.0000 </r>
       <r>    2.1502    1.0000 </r>
       <r>    2.1502    1.0000 </r>
       <r>    2.2942    1.0000 </r>
       <r>    2.2942    1.0000 </r>
       <r>    2.5560    1.0000 </r>
       <r>    2.5561    1.0000 </r>
       <r>    2.6166    1.0000 </r>
       <r>    2.6166    1.0000 </r>
       <r>    2.6635    1.0000 </r>
       <r>    2.6635    1.0000 </r>
       <r>    2.8062    1.0000 </r>
       <r>    2.8062    1.0000 </r>
       <r>    3.0829    1.0000 </r>
       <r>    3.0829    1.0000 </r>
       <r>    3.2933    1.0000 </r>
       <r>    3.2933    1.0000 </r>
       <r>    3.3438    1.0000 </r>
       <r>    3.3438    1.0000 </r>
       <r>    3.7129    1.0000 </r>
       <r>    3.7129    1.0000 </r>
       <r>    3.9914    1.0000 </r>
       <r>    3.9914    1.0000 </r>
       <r>    4.2441    1.0000 </r>
       <r>    4.2441    1.0000 </r>
       <r>    7.5914    0.0000 </r>
       <r>    7.5914    0.0000 </r>
       <r>    7.7909    0.0000 </r>
       <r>    7.7909    0.0000 </r>
       <r>    8.5452    0.0000 </r>
       <r>    8.5452    0.0000 </r>
       <r>    8.7528    0.0000 </r>
       <r>    8.7528    0.0000 </r>
       <r>    9.1062    0.0000 </r>
       <r>    9.1062    0.0000 </r>
       <r>    9.1231    0.0000 </r>
       <r>    9.1231    0.0000 </r>
       <r>   10.9017    0.0000 </r>
       <r>   10.9017    0.0000 </r>
       <r>   11.1062    0.0000 </r>
       <r>   11.1062    0.0000 </r>
      </set>
      <set comment="kpoint 9">
       <r>  -10.3647    1.0000 </r>
       <r>  -10.3647    1.0000 </r>
       <r>  -10.1328    1.0000 </r>
       <r>  -10.1328    1.0000 </r>
       <r>   -9.4162    1.0000 </r>
       <r>   -9.4161    1.0000 </r>
       <r>   -8.9600    1.0000 </r>
       <r>   -8.9599    1.0000 </r>
       <r>   -4.9617    1.0000 </r>
       <r>   -4.9617    1.0000 </r>
       <r>   -3.7589    1.0000 </r>
       <r>   -3.7589    1.0000 </r>
       <r>   -0.4390    1.0000 </r>
       <r>   -0.4390    1.0000 </r>
       <r>   -0.0515    1.0000 </r>
       <r>   -0.0515    1.0000 </r>
       <r>    0.2845    1.0000 </r>
       <r>    0.2845    1.0000 </r>
       <r>    0.7145    1.0000 </r>
       <r>    0.7145    1.0000 </r>
       <r>    0.8293    1.0000 </r>
       <r>    0.8293    1.0000 </r>
       <r>    1.0127    1.0000 </r>
       <r>    1.0127    1.0000 </r>
       <r>    1.1158    1.0000 </r>
       <r>    1.1158    1.0000 </r>
       <r>    1.4305    1.0000 </r>
       <r>    1.4305    1.0000 </r>
       <r>    1.4798    1.0000 </r>
       <r>    1.4798    1.0000 </r>
       <r>    1.7080    1.0000 </r>
       <r>    1.7080    1.0000 </r>
       <r>    2.2436    1.0000 </r>
       <r>    2.2436    1.0000 </r>
       <r>    2.5908    1.0000 </r>
       <r>    2.5908    1.0000 </r>
       <r>    2.6729    1.0000 </r>
       <r>    2.6729    1.0000 </r>
       <r>    2.8399    1.0000 </r>
       <r>    2.8399    1.0000 </r>
       <r>    2.9226    1.0000 </r>
       <r>    2.9226    1.0000 </r>
       <r>    3.1348    1.0000 </r>
       <r>    3.1348    1.0000 </r>
       <r>    3.3845    1.0000 </r>
       <r>    3.3845    1.0000 </r>
       <r>    3.9812    1.0000 </r>
       <r>    3.9812    1.0000 </r>
       <r>    4.1455    1.0000 </r>
       <r>    4.1455    1.0000 </r>
       <r>    4.2686    1.0000 </r>
       <r>    4.2686    1.0000 </r>
       <r>    4.7687    1.0000 </r>
       <r>    4.7687    1.0000 </r>
       <r>    4.9458    1.0000 </r>
       <r>    4.9458    1.0000 </r>
       <r>    6.9648    0.0000 </r>
       <r>    6.9648    0.0000 </r>
       <r>    7.4678    0.0000 </r>
       <r>    7.4678    0.0000 </r>
       <r>    7.9458    0.0000 </r>
       <r>    7.9458    0.0000 </r>
       <r>    8.2332    0.0000 </r>
       <r>    8.2332    0.0000 </r>
       <r>    9.4941    0.0000 </r>
       <r>    9.4941    0.0000 </r>
       <r>    9.5748    0.0000 </r>
       <r>    9.5748    0.0000 </r>
       <r>   10.1975    0.0000 </r>
       <r>   10.1975    0.0000 </r>
       <r>   11.1493    0.0000 </r>
       <r>   11.1493    0.0000 </r>
      </set>
      <set comment="kpoint 10">
       <r>  -10.1755    1.0000 </r>
       <r>  -10.1755    1.0000 </r>
       <r>   -9.9475    1.0000 </r>
       <r>   -9.9475    1.0000 </r>
       <r>   -9.3053    1.0000 </r>
       <r>   -9.3053    1.0000 </r>
       <r>   -8.9075    1.0000 </r>
       <r>   -8.9075    1.0000 </r>
       <r>   -4.9762    1.0000 </r>
       <r>   -4.9761    1.0000 </r>
       <r>   -3.9205    1.0000 </r>
       <r>   -3.9205    1.0000 </r>
       <r>   -0.3893    1.0000 </r>
       <r>   -0.3893    1.0000 </r>
       <r>   -0.3187    1.0000 </r>
       <r>   -0.3187    1.0000 </r>
       <r>    0.0740    1.0000 </r>
       <r>    0.0740    1.0000 </r>
       <r>    0.4426    1.0000 </r>
       <r>    0.4426    1.0000 </r>
       <r>    0.5415    1.0000 </r>
       <r>    0.5415    1.0000 </r>
       <r>    1.0048    1.0000 </r>
       <r>    1.0048    1.0000 </r>
       <r>    1.0284    1.0000 </r>
       <r>    1.0284    1.0000 </r>
       <r>    1.1176    1.0000 </r>
       <r>    1.1176    1.0000 </r>
       <r>    1.4079    1.0000 </r>
       <r>    1.4079    1.0000 </r>
       <r>    1.5854    1.0000 </r>
       <r>    1.5854    1.0000 </r>
       <r>    2.2583    1.0000 </r>
       <r>    2.2583    1.0000 </r>
       <r>    2.4499    1.0000 </r>
       <r>    2.4499    1.0000 </r>
       <r>    2.6426    1.0000 </r>
       <r>    2.6426    1.0000 </r>
       <r>    2.7144    1.0000 </r>
       <r>    2.7144    1.0000 </r>
       <r>    2.9266    1.0000 </r>
       <r>    2.9266    1.0000 </r>
       <r>    3.1478    1.0000 </r>
       <r>    3.1478    1.0000 </r>
       <r>    3.5119    1.0000 </r>
       <r>    3.5119    1.0000 </r>
       <r>    3.6693    1.0000 </r>
       <r>    3.6693    1.0000 </r>
       <r>    3.9442    1.0000 </r>
       <r>    3.9442    1.0000 </r>
       <r>    4.3727    1.0000 </r>
       <r>    4.3727    1.0000 </r>
       <r>    4.4726    1.0000 </r>
       <r>    4.4726    1.0000 </r>
       <r>    4.5708    1.0000 </r>
       <r>    4.5708    1.0000 </r>
       <r>    7.3775    0.0000 </r>
       <r>    7.3775    0.0000 </r>
       <r>    7.8456    0.0000 </r>
       <r>    7.8456    0.0000 </r>
       <r>    8.0237    0.0000 </r>
       <r>    8.0237    0.0000 </r>
       <r>    8.6083    0.0000 </r>
       <r>    8.6083    0.0000 </r>
       <r>    8.8826    0.0000 </r>
       <r>    8.8826    0.0000 </r>
       <r>    9.6196    0.0000 </r>
       <r>    9.6197    0.0000 </r>
       <r>   11.2288    0.0000 </r>
       <r>   11.2288    0.0000 </r>
       <r>   11.7659    0.0000 </r>
       <r>   11.7670    0.0000 </r>
      </set>
      <set comment="kpoint 11">
       <r>   -9.6825    1.0000 </r>
       <r>   -9.6825    1.0000 </r>
       <r>   -9.4900    1.0000 </r>
       <r>   -9.4900    1.0000 </r>
       <r>   -9.0798    1.0000 </r>
       <r>   -9.0798    1.0000 </r>
       <r>   -8.8653    1.0000 </r>
       <r>   -8.8653    1.0000 </r>
       <r>   -5.1137    1.0000 </r>
       <r>   -5.1137    1.0000 </r>
       <r>   -4.5123    1.0000 </r>
       <r>   -4.5123    1.0000 </r>
       <r>   -1.0403    1.0000 </r>
       <r>   -1.0403    1.0000 </r>
       <r>   -0.8029    1.0000 </r>
       <r>   -0.8029    1.0000 </r>
       <r>   -0.3057    1.0000 </r>
       <r>   -0.3057    1.0000 </r>
       <r>    0.2480    1.0000 </r>
       <r>    0.2480    1.0000 </r>
       <r>    0.4203    1.0000 </r>
       <r>    0.4203    1.0000 </r>
       <r>    0.6716    1.0000 </r>
       <r>    0.6716    1.0000 </r>
       <r>    0.9953    1.0000 </r>
       <r>    0.9953    1.0000 </r>
       <r>    1.2589    1.0000 </r>
       <r>    1.2589    1.0000 </r>
       <r>    1.5527    1.0000 </r>
       <r>    1.5527    1.0000 </r>
       <r>    1.7508    1.0000 </r>
       <r>    1.7508    1.0000 </r>
       <r>    1.9790    1.0000 </r>
       <r>    1.9790    1.0000 </r>
       <r>    2.4250    1.0000 </r>
       <r>    2.4250    1.0000 </r>
       <r>    2.5937    1.0000 </r>
       <r>    2.5937    1.0000 </r>
       <r>    2.7000    1.0000 </r>
       <r>    2.7000    1.0000 </r>
       <r>    2.8380    1.0000 </r>
       <r>    2.8380    1.0000 </r>
       <r>    3.0560    1.0000 </r>
       <r>    3.0560    1.0000 </r>
       <r>    3.2522    1.0000 </r>
       <r>    3.2522    1.0000 </r>
       <r>    3.4061    1.0000 </r>
       <r>    3.4061    1.0000 </r>
       <r>    3.8040    1.0000 </r>
       <r>    3.8040    1.0000 </r>
       <r>    3.8567    1.0000 </r>
       <r>    3.8567    1.0000 </r>
       <r>    4.1417    1.0000 </r>
       <r>    4.1417    1.0000 </r>
       <r>    4.3200    1.0000 </r>
       <r>    4.3200    1.0000 </r>
       <r>    7.0872    0.0000 </r>
       <r>    7.0872    0.0000 </r>
       <r>    7.4182    0.0000 </r>
       <r>    7.4182    0.0000 </r>
       <r>    8.1959    0.0000 </r>
       <r>    8.1959    0.0000 </r>
       <r>    8.3900    0.0000 </r>
       <r>    8.3900    0.0000 </r>
       <r>    9.3198    0.0000 </r>
       <r>    9.3198    0.0000 </r>
       <r>    9.6986    0.0000 </r>
       <r>    9.6986    0.0000 </r>
       <r>   11.2785    0.0000 </r>
       <r>   11.2785    0.0000 </r>
       <r>   11.5932    0.0000 </r>
       <r>   11.5934    0.0000 </r>
      </set>
      <set comment="kpoint 12">
       <r>   -9.1898    1.0000 </r>
       <r>   -9.1898    1.0000 </r>
       <r>   -9.1898    1.0000 </r>
       <r>   -9.1898    1.0000 </r>
       <r>   -9.0154    1.0000 </r>
       <r>   -9.0154    1.0000 </r>
       <r>   -9.0154    1.0000 </r>
       <r>   -9.0154    1.0000 </r>
       <r>   -5.1074    1.0000 </r>
       <r>   -5.1074    1.0000 </r>
       <r>   -5.1074    1.0000 </r>
       <r>   -5.1074    1.0000 </r>
       <r>   -1.2049    1.0000 </r>
       <r>   -1.2049    1.0000 </r>
       <r>   -1.2049    1.0000 </r>
       <r>   -1.2049    1.0000 </r>
       <r>   -0.1722    1.0000 </r>
       <r>   -0.1722    1.0000 </r>
       <r>   -0.1722    1.0000 </r>
       <r>   -0.1722    1.0000 </r>
       <r>    0.5878    1.0000 </r>
       <r>    0.5878    1.0000 </r>
       <r>    0.5878    1.0000 </r>
       <r>    0.5878    1.0000 </r>
       <r>    1.1489    1.0000 </r>
       <r>    1.1489    1.0000 </r>
       <r>    1.1489    1.0000 </r>
       <r>    1.1489    1.0000 </r>
       <r>    1.6927    1.0000 </r>
       <r>    1.6927    1.0000 </r>
       <r>    1.6927    1.0000 </r>
       <r>    1.6928    1.0000 </r>
       <r>    2.3302    1.0000 </r>
       <r>    2.3302    1.0000 </r>
       <r>    2.3302    1.0000 </r>
       <r>    2.3302    1.0000 </r>
       <r>    2.5666    1.0000 </r>
       <r>    2.5666    1.0000 </r>
       <r>    2.5666    1.0000 </r>
       <r>    2.5666    1.0000 </r>
       <r>    2.8937    1.0000 </r>
       <r>    2.8937    1.0000 </r>
       <r>    2.8938    1.0000 </r>
       <r>    2.8938    1.0000 </r>
       <r>    3.0756    1.0000 </r>
       <r>    3.0756    1.0000 </r>
       <r>    3.0756    1.0000 </r>
       <r>    3.0756    1.0000 </r>
       <r>    3.7465    1.0000 </r>
       <r>    3.7465    1.0000 </r>
       <r>    3.7465    1.0000 </r>
       <r>    3.7465    1.0000 </r>
       <r>    4.1313    1.0000 </r>
       <r>    4.1313    1.0000 </r>
       <r>    4.1314    1.0000 </r>
       <r>    4.1314    1.0000 </r>
       <r>    7.0415    0.0000 </r>
       <r>    7.0415    0.0000 </r>
       <r>    7.0415    0.0000 </r>
       <r>    7.0415    0.0000 </r>
       <r>    8.3008    0.0000 </r>
       <r>    8.3008    0.0000 </r>
       <r>    8.3008    0.0000 </r>
       <r>    8.3008    0.0000 </r>
       <r>    9.2107    0.0000 </r>
       <r>    9.2107    0.0000 </r>
       <r>    9.2107    0.0000 </r>
       <r>    9.2107    0.0000 </r>
       <r>   11.1780    0.0000 </r>
       <r>   11.1780    0.0000 </r>
       <r>   11.1780    0.0000 </r>
       <r>   11.1780    0.0000 </r>
      </set>
     </set>
     <set comment="spin 2">
      <set comment="kpoint 1">
       <r>  -10.8429    1.0000 </r>
       <r>  -10.5296    1.0000 </r>
       <r>  -10.4161    1.0000 </r>
       <r>  -10.0006    1.0000 </r>
       <r>   -9.0957    1.0000 </r>
       <r>   -8.9685    1.0000 </r>
       <r>   -8.7937    1.0000 </r>
       <r>   -8.5983    1.0000 </r>
       <r>   -4.5806    1.0000 </r>
       <r>   -4.3990    1.0000 </r>
       <r>   -4.3576    1.0000 </r>
       <r>   -3.8958    1.0000 </r>
       <r>   -1.4983    1.0000 </r>
       <r>   -1.0697    1.0000 </r>
       <r>   -0.5631    1.0000 </r>
       <r>   -0.1542    1.0000 </r>
       <r>   -0.0598    1.0000 </r>
       <r>    0.4485    1.0000 </r>
       <r>    0.6957    1.0000 </r>
       <r>    0.7982    1.0000 </r>
       <r>    0.8928    1.0000 </r>
       <r>    1.0095    1.0000 </r>
       <r>    1.0259    1.0000 </r>
       <r>    1.0639    1.0000 </r>
       <r>    1.0717    1.0000 </r>
       <r>    1.1030    1.0000 </r>
       <r>    1.1793    1.0000 </r>
       <r>    1.2323    1.0000 </r>
       <r>    1.4271    1.0000 </r>
       <r>    1.4869    1.0000 </r>
       <r>    1.5065    1.0000 </r>
       <r>    1.5676    1.0000 </r>
       <r>    2.0603    1.0000 </r>
       <r>    2.2049    1.0000 </r>
       <r>    2.4579    1.0000 </r>
       <r>    2.4993    1.0000 </r>
       <r>    2.5000    1.0000 </r>
       <r>    2.5099    1.0000 </r>
       <r>    2.5498    1.0000 </r>
       <r>    2.7506    1.0000 </r>
       <r>    2.9993    1.0000 </r>
       <r>    3.0209    1.0000 </r>
       <r>    3.0379    1.0000 </r>
       <r>    3.1719    1.0000 </r>
       <r>    3.4697    1.0000 </r>
       <r>    3.4871    1.0000 </r>
       <r>    3.8134    1.0000 </r>
       <r>    4.2970    1.0000 </r>
       <r>    4.4544    1.0000 </r>
       <r>    4.8002    1.0000 </r>
       <r>    4.8260    1.0000 </r>
       <r>    4.9691    1.0000 </r>
       <r>    5.0366    1.0000 </r>
       <r>    5.1085    1.0000 </r>
       <r>    5.1118    1.0000 </r>
       <r>    5.2174    1.0000 </r>
       <r>    6.9217    0.0000 </r>
       <r>    7.2875    0.0000 </r>
       <r>    7.3128    0.0000 </r>
       <r>    7.6993    0.0000 </r>
       <r>    8.1836    0.0000 </r>
       <r>    8.4874    0.0000 </r>
       <r>    8.6725    0.0000 </r>
       <r>    8.8148    0.0000 </r>
       <r>    8.9024    0.0000 </r>
       <r>    8.9635    0.0000 </r>
       <r>    9.4060    0.0000 </r>
       <r>    9.5444    0.0000 </r>
       <r>   10.4970    0.0000 </r>
       <r>   10.7005    0.0000 </r>
       <r>   11.1700    0.0000 </r>
       <r>   11.7605    0.0000 </r>
      </set>
      <set comment="kpoint 2">
       <r>  -10.6335    1.0000 </r>
       <r>  -10.3280    1.0000 </r>
       <r>  -10.2292    1.0000 </r>
       <r>   -9.8207    1.0000 </r>
       <r>   -9.0090    1.0000 </r>
       <r>   -8.9209    1.0000 </r>
       <r>   -8.7608    1.0000 </r>
       <r>   -8.6005    1.0000 </r>
       <r>   -4.5934    1.0000 </r>
       <r>   -4.3815    1.0000 </r>
       <r>   -4.3300    1.0000 </r>
       <r>   -3.9605    1.0000 </r>
       <r>   -1.2813    1.0000 </r>
       <r>   -0.8734    1.0000 </r>
       <r>   -0.5110    1.0000 </r>
       <r>   -0.1229    1.0000 </r>
       <r>   -0.0782    1.0000 </r>
       <r>   -0.0135    1.0000 </r>
       <r>    0.0020    1.0000 </r>
       <r>    0.2733    1.0000 </r>
       <r>    0.5571    1.0000 </r>
       <r>    0.6898    1.0000 </r>
       <r>    0.7106    1.0000 </r>
       <r>    0.9116    1.0000 </r>
       <r>    1.0310    1.0000 </r>
       <r>    1.0473    1.0000 </r>
       <r>    1.0663    1.0000 </r>
       <r>    1.1274    1.0000 </r>
       <r>    1.1927    1.0000 </r>
       <r>    1.2080    1.0000 </r>
       <r>    1.3145    1.0000 </r>
       <r>    1.3474    1.0000 </r>
       <r>    2.0729    1.0000 </r>
       <r>    2.2763    1.0000 </r>
       <r>    2.4044    1.0000 </r>
       <r>    2.4152    1.0000 </r>
       <r>    2.5452    1.0000 </r>
       <r>    2.5457    1.0000 </r>
       <r>    2.6127    1.0000 </r>
       <r>    2.7144    1.0000 </r>
       <r>    2.8861    1.0000 </r>
       <r>    2.9739    1.0000 </r>
       <r>    3.0517    1.0000 </r>
       <r>    3.1225    1.0000 </r>
       <r>    3.4653    1.0000 </r>
       <r>    3.5134    1.0000 </r>
       <r>    3.6038    1.0000 </r>
       <r>    3.7928    1.0000 </r>
       <r>    4.0923    1.0000 </r>
       <r>    4.3131    1.0000 </r>
       <r>    4.5246    1.0000 </r>
       <r>    4.5642    1.0000 </r>
       <r>    4.8056    1.0000 </r>
       <r>    4.8257    1.0000 </r>
       <r>    4.9223    1.0000 </r>
       <r>    5.1262    1.0000 </r>
       <r>    7.8445    0.0000 </r>
       <r>    7.8933    0.0000 </r>
       <r>    7.9193    0.0000 </r>
       <r>    8.1335    0.0000 </r>
       <r>    8.2692    0.0000 </r>
       <r>    8.4878    0.0000 </r>
       <r>    8.5229    0.0000 </r>
       <r>    8.5689    0.0000 </r>
       <r>    8.9763    0.0000 </r>
       <r>    9.1125    0.0000 </r>
       <r>    9.7664    0.0000 </r>
       <r>    9.8103    0.0000 </r>
       <r>   11.1296    0.0000 </r>
       <r>   11.3574    0.0000 </r>
       <r>   11.7145    0.0000 </r>
       <r>   11.8709    0.0000 </r>
      </set>
      <set comment="kpoint 3">
       <r>  -10.0617    1.0000 </r>
       <r>   -9.7891    1.0000 </r>
       <r>   -9.7446    1.0000 </r>
       <r>   -9.3694    1.0000 </r>
       <r>   -8.8978    1.0000 </r>
       <r>   -8.8597    1.0000 </r>
       <r>   -8.7906    1.0000 </r>
       <r>   -8.7514    1.0000 </r>
       <r>   -4.6702    1.0000 </r>
       <r>   -4.5713    1.0000 </r>
       <r>   -4.3545    1.0000 </r>
       <r>   -4.2904    1.0000 </r>
       <r>   -1.0145    1.0000 </r>
       <r>   -0.8812    1.0000 </r>
       <r>   -0.8276    1.0000 </r>
       <r>   -0.6193    1.0000 </r>
       <r>   -0.4996    1.0000 </r>
       <r>   -0.4585    1.0000 </r>
       <r>   -0.4554    1.0000 </r>
       <r>   -0.2717    1.0000 </r>
       <r>    0.2520    1.0000 </r>
       <r>    0.3044    1.0000 </r>
       <r>    0.3204    1.0000 </r>
       <r>    0.6646    1.0000 </r>
       <r>    0.8428    1.0000 </r>
       <r>    0.9793    1.0000 </r>
       <r>    0.9895    1.0000 </r>
       <r>    1.0974    1.0000 </r>
       <r>    1.1923    1.0000 </r>
       <r>    1.2046    1.0000 </r>
       <r>    1.6322    1.0000 </r>
       <r>    1.6534    1.0000 </r>
       <r>    1.9578    1.0000 </r>
       <r>    2.1128    1.0000 </r>
       <r>    2.1934    1.0000 </r>
       <r>    2.3375    1.0000 </r>
       <r>    2.4504    1.0000 </r>
       <r>    2.5041    1.0000 </r>
       <r>    2.5152    1.0000 </r>
       <r>    2.5448    1.0000 </r>
       <r>    2.7284    1.0000 </r>
       <r>    2.7365    1.0000 </r>
       <r>    2.8437    1.0000 </r>
       <r>    2.8520    1.0000 </r>
       <r>    3.1272    1.0000 </r>
       <r>    3.2355    1.0000 </r>
       <r>    3.2750    1.0000 </r>
       <r>    3.5987    1.0000 </r>
       <r>    3.7102    1.0000 </r>
       <r>    3.7255    1.0000 </r>
       <r>    3.7866    1.0000 </r>
       <r>    4.0498    1.0000 </r>
       <r>    4.1130    1.0000 </r>
       <r>    4.2207    1.0000 </r>
       <r>    4.4894    1.0000 </r>
       <r>    4.7065    1.0000 </r>
       <r>    7.4410    0.0000 </r>
       <r>    7.6522    0.0000 </r>
       <r>    8.0419    0.0000 </r>
       <r>    8.4056    0.0000 </r>
       <r>    8.4389    0.0000 </r>
       <r>    8.5629    0.0000 </r>
       <r>    9.0116    0.0000 </r>
       <r>    9.3458    0.0000 </r>
       <r>    9.3528    0.0000 </r>
       <r>    9.5607    0.0000 </r>
       <r>    9.8765    0.0000 </r>
       <r>    9.9520    0.0000 </r>
       <r>   11.0016    0.0000 </r>
       <r>   11.5185    0.0000 </r>
       <r>   11.6177    0.0000 </r>
       <r>   11.7376    0.0000 </r>
      </set>
      <set comment="kpoint 4">
       <r>   -9.3868    1.0000 </r>
       <r>   -9.3868    1.0000 </r>
       <r>   -9.1542    1.0000 </r>
       <r>   -9.1542    1.0000 </r>
       <r>   -9.1006    1.0000 </r>
       <r>   -9.1006    1.0000 </r>
       <r>   -8.9397    1.0000 </r>
       <r>   -8.9397    1.0000 </r>
       <r>   -4.6668    1.0000 </r>
       <r>   -4.6668    1.0000 </r>
       <r>   -4.6154    1.0000 </r>
       <r>   -4.6154    1.0000 </r>
       <r>   -1.1199    1.0000 </r>
       <r>   -1.1199    1.0000 </r>
       <r>   -0.9325    1.0000 </r>
       <r>   -0.9325    1.0000 </r>
       <r>   -0.4438    1.0000 </r>
       <r>   -0.4438    1.0000 </r>
       <r>   -0.3743    1.0000 </r>
       <r>   -0.3743    1.0000 </r>
       <r>    0.3278    1.0000 </r>
       <r>    0.3278    1.0000 </r>
       <r>    0.3525    1.0000 </r>
       <r>    0.3525    1.0000 </r>
       <r>    0.8006    1.0000 </r>
       <r>    0.8006    1.0000 </r>
       <r>    0.9465    1.0000 </r>
       <r>    0.9465    1.0000 </r>
       <r>    1.2970    1.0000 </r>
       <r>    1.2970    1.0000 </r>
       <r>    1.6627    1.0000 </r>
       <r>    1.6627    1.0000 </r>
       <r>    2.0481    1.0000 </r>
       <r>    2.0481    1.0000 </r>
       <r>    2.1852    1.0000 </r>
       <r>    2.1852    1.0000 </r>
       <r>    2.5242    1.0000 </r>
       <r>    2.5242    1.0000 </r>
       <r>    2.5948    1.0000 </r>
       <r>    2.5949    1.0000 </r>
       <r>    2.6286    1.0000 </r>
       <r>    2.6286    1.0000 </r>
       <r>    2.7550    1.0000 </r>
       <r>    2.7550    1.0000 </r>
       <r>    2.8297    1.0000 </r>
       <r>    2.8297    1.0000 </r>
       <r>    3.2452    1.0000 </r>
       <r>    3.2452    1.0000 </r>
       <r>    3.3726    1.0000 </r>
       <r>    3.3726    1.0000 </r>
       <r>    3.5823    1.0000 </r>
       <r>    3.5823    1.0000 </r>
       <r>    4.1477    1.0000 </r>
       <r>    4.1477    1.0000 </r>
       <r>    4.2597    1.0000 </r>
       <r>    4.2597    1.0000 </r>
       <r>    7.8632    0.0000 </r>
       <r>    7.8632    0.0000 </r>
       <r>    7.9767    0.0000 </r>
       <r>    7.9767    0.0000 </r>
       <r>    8.5647    0.0000 </r>
       <r>    8.5647    0.0000 </r>
       <r>    8.8406    0.0000 </r>
       <r>    8.8406    0.0000 </r>
       <r>    9.5438    0.0000 </r>
       <r>    9.5438    0.0000 </r>
       <r>    9.7572    0.0000 </r>
       <r>    9.7572    0.0000 </r>
       <r>   10.8538    0.0000 </r>
       <r>   10.8538    0.0000 </r>
       <r>   11.5359    0.0000 </r>
       <r>   11.5359    0.0000 </r>
      </set>
      <set comment="kpoint 5">
       <r>  -10.6935    1.0000 </r>
       <r>  -10.4174    1.0000 </r>
       <r>  -10.3084    1.0000 </r>
       <r>   -9.9999    1.0000 </r>
       <r>   -9.2773    1.0000 </r>
       <r>   -9.1540    1.0000 </r>
       <r>   -8.9207    1.0000 </r>
       <r>   -8.7271    1.0000 </r>
       <r>   -4.9305    1.0000 </r>
       <r>   -4.6687    1.0000 </r>
       <r>   -4.0243    1.0000 </r>
       <r>   -3.7076    1.0000 </r>
       <r>   -1.0169    1.0000 </r>
       <r>   -0.4901    1.0000 </r>
       <r>   -0.4765    1.0000 </r>
       <r>   -0.0936    1.0000 </r>
       <r>   -0.0300    1.0000 </r>
       <r>    0.4144    1.0000 </r>
       <r>    0.6955    1.0000 </r>
       <r>    0.7629    1.0000 </r>
[...]
        <r>  0.0546  0.0430  0.0154  0.0000  0.0000  0.0000  0.0000  0.0000  0.0000 </r>
        <r>  0.0000  0.0000  0.0000  0.0033  0.0000  0.0000  0.0000  0.0000  0.0000 </r>
        <r>  0.0001  0.0007  0.0013  0.0000  0.0000  0.0000  0.0000  0.0000  0.0000 </r>
        <r>  0.0102  0.0002  0.0567  0.0000  0.0000  0.0000  0.0000  0.0000  0.0000 </r>
        <r>  0.0000  0.0000  0.0000  0.0013  0.0000  0.0000  0.0000  0.0000  0.0000 </r>
        <r>  0.0000  0.0015  0.0015  0.0000  0.0000  0.0000  0.0000  0.0000  0.0000 </r>
        <r>  0.0000  0.0000  0.0000  0.0083  0.0000  0.0000  0.0000  0.0000  0.0000 </r>
       </set>
       <set comment="band 61">
        <r>  0.0000  0.0000  0.0000  0.0003  0.0101  0.0000  0.0000  0.0026  0.0000 </r>
        <r>  0.0000  0.0000  0.0000  0.0001  0.0001  0.0000  0.0000  0.0053  0.0000 </r>
        <r>  0.0060  0.0028  0.0004  0.0000  0.0000  0.0023  0.0023  0.0000  0.0019 </r>
        <r>  0.0067  0.0048  0.0056  0.0000  0.0000  0.0011  0.0001  0.0000  0.0001 </r>
        <r>  0.0000  0.0000  0.0000  0.0035  0.0002  0.0000  0.0000  0.0000  0.0000 </r>
        <r>  0.0006  0.0009  0.0016  0.0000  0.0000  0.0000  0.0004  0.0000  0.0001 </r>
        <r>  0.0000  0.0000  0.0000  0.1094  0.0054  0.0000  0.0000  0.0020  0.0000 </r>
        <r>  0.0000  0.1198  0.0100  0.0000  0.0000  0.0002  0.0040  0.0000  0.0030 </r>
        <r>  0.0000  0.0000  0.0000  0.0005  0.0000  0.0000  0.0000  0.0000  0.0000 </r>
        <r>  0.0000  0.0000  0.0091  0.0000  0.0000  0.0000  0.0000  0.0000  0.0000 </r>
        <r>  0.0000  0.0000  0.0000  0.0000  0.0000  0.0000  0.0000  0.0000  0.0000 </r>
        <r>  0.0028  0.0336  0.0161  0.0000  0.0000  0.0000  0.0000  0.0000  0.0000 </r>
        <r>  0.0000  0.0013  0.0023  0.0000  0.0000  0.0000  0.0000  0.0000  0.0000 </r>
        <r>  0.0000  0.0000  0.0000  0.0375  0.0000  0.0000  0.0000  0.0000  0.0000 </r>
        <r>  0.0255  0.0087  0.0465  0.0000  0.0000  0.0000  0.0000  0.0000  0.0000 </r>
        <r>  0.0000  0.0000  0.0000  0.0023  0.0000  0.0000  0.0000  0.0000  0.0000 </r>
       </set>
       <set comment="band 62">
        <r>  0.0060  0.0028  0.0004  0.0000  0.0000  0.0023  0.0023  0.0000  0.0019 </r>
        <r>  0.0067  0.0048  0.0056  0.0000  0.0000  0.0011  0.0001  0.0000  0.0001 </r>
        <r>  0.0000  0.0000  0.0000  0.0003  0.0101  0.0000  0.0000  0.0026  0.0000 </r>
        <r>  0.0000  0.0000  0.0000  0.0001  0.0001  0.0000  0.0000  0.0053  0.0000 </r>
        <r>  0.0006  0.0010  0.0016  0.0000  0.0000  0.0000  0.0004  0.0000  0.0001 </r>
        <r>  0.0000  0.0000  0.0000  0.0034  0.0002  0.0000  0.0000  0.0000  0.0000 </r>
        <r>  0.0000  0.1197  0.0099  0.0000  0.0000  0.0002  0.0040  0.0000  0.0030 </r>
        <r>  0.0000  0.0000  0.0000  0.1094  0.0054  0.0000  0.0000  0.0020  0.0000 </r>
        <r>  0.0000  0.0000  0.0091  0.0000  0.0000  0.0000  0.0000  0.0000  0.0000 </r>
        <r>  0.0000  0.0000  0.0000  0.0005  0.0000  0.0000  0.0000  0.0000  0.0000 </r>
        <r>  0.0028  0.0336  0.0161  0.0000  0.0000  0.0000  0.0000  0.0000  0.0000 </r>
        <r>  0.0000  0.0000  0.0000  0.0000  0.0000  0.0000  0.0000  0.0000  0.0000 </r>
        <r>  0.0000  0.0000  0.0000  0.0024  0.0000  0.0000  0.0000  0.0000  0.0000 </r>
        <r>  0.0255  0.0087  0.0466  0.0000  0.0000  0.0000  0.0000  0.0000  0.0000 </r>
        <r>  0.0000  0.0000  0.0000  0.0375  0.0000  0.0000  0.0000  0.0000  0.0000 </r>
        <r>  0.0000  0.0013  0.0022  0.0000  0.0000  0.0000  0.0000  0.0000  0.0000 </r>
       </set>
       <set comment="band 63">
        <r>  0.0067  0.0048  0.0056  0.0000  0.0000  0.0011  0.0001  0.0000  0.0001 </r>
        <r>  0.0060  0.0028  0.0004  0.0000  0.0000  0.0022  0.0023  0.0000  0.0019 </r>
        <r>  0.0000  0.0000  0.0000  0.0001  0.0001  0.0000  0.0000  0.0053  0.0000 </r>
        <r>  0.0000  0.0000  0.0000  0.0003  0.0101  0.0000  0.0000  0.0026  0.0000 </r>
        <r>  0.0000  0.1196  0.0099  0.0001  0.0000  0.0002  0.0040  0.0000  0.0030 </r>
        <r>  0.0000  0.0001  0.0000  0.1093  0.0054  0.0000  0.0000  0.0020  0.0000 </r>
        <r>  0.0006  0.0010  0.0016  0.0000  0.0000  0.0000  0.0004  0.0000  0.0001 </r>
        <r>  0.0000  0.0000  0.0000  0.0034  0.0002  0.0000  0.0000  0.0000  0.0000 </r>
        <r>  0.0028  0.0336  0.0161  0.0000  0.0000  0.0000  0.0000  0.0000  0.0000 </r>
        <r>  0.0000  0.0000  0.0000  0.0000  0.0000  0.0000  0.0000  0.0000  0.0000 </r>
        <r>  0.0000  0.0000  0.0090  0.0000  0.0000  0.0000  0.0000  0.0000  0.0000 </r>
        <r>  0.0000  0.0000  0.0000  0.0005  0.0000  0.0000  0.0000  0.0000  0.0000 </r>
        <r>  0.0000  0.0000  0.0000  0.0375  0.0000  0.0000  0.0000  0.0000  0.0000 </r>
        <r>  0.0000  0.0013  0.0022  0.0000  0.0000  0.0000  0.0000  0.0000  0.0000 </r>
        <r>  0.0000  0.0000  0.0000  0.0023  0.0000  0.0000  0.0000  0.0000  0.0000 </r>
        <r>  0.0255  0.0087  0.0465  0.0000  0.0000  0.0000  0.0000  0.0000  0.0000 </r>
       </set>
       <set comment="band 64">
        <r>  0.0000  0.0000  0.0000  0.0001  0.0001  0.0000  0.0000  0.0053  0.0000 </r>
        <r>  0.0000  0.0000  0.0000  0.0003  0.0101  0.0000  0.0000  0.0026  0.0000 </r>
        <r>  0.0067  0.0047  0.0056  0.0000  0.0000  0.0011  0.0001  0.0000  0.0001 </r>
        <r>  0.0060  0.0028  0.0004  0.0000  0.0000  0.0023  0.0023  0.0000  0.0019 </r>
        <r>  0.0000  0.0001  0.0000  0.1093  0.0054  0.0000  0.0000  0.0020  0.0000 </r>
        <r>  0.0000  0.1197  0.0099  0.0001  0.0000  0.0002  0.0040  0.0000  0.0030 </r>
        <r>  0.0000  0.0000  0.0000  0.0035  0.0002  0.0000  0.0000  0.0000  0.0000 </r>
        <r>  0.0006  0.0009  0.0016  0.0000  0.0000  0.0000  0.0004  0.0000  0.0001 </r>
        <r>  0.0000  0.0000  0.0000  0.0000  0.0000  0.0000  0.0000  0.0000  0.0000 </r>
        <r>  0.0028  0.0336  0.0161  0.0000  0.0000  0.0000  0.0000  0.0000  0.0000 </r>
        <r>  0.0000  0.0000  0.0000  0.0005  0.0000  0.0000  0.0000  0.0000  0.0000 </r>
        <r>  0.0000  0.0000  0.0091  0.0000  0.0000  0.0000  0.0000  0.0000  0.0000 </r>
        <r>  0.0255  0.0087  0.0465  0.0000  0.0000  0.0000  0.0000  0.0000  0.0000 </r>
        <r>  0.0000  0.0000  0.0000  0.0023  0.0000  0.0000  0.0000  0.0000  0.0000 </r>
        <r>  0.0000  0.0013  0.0023  0.0000  0.0000  0.0000  0.0000  0.0000  0.0000 </r>
        <r>  0.0000  0.0000  0.0000  0.0375  0.0000  0.0000  0.0000  0.0000  0.0000 </r>
       </set>
       <set comment="band 65">
        <r>  0.0215  0.0043  0.0002  0.0000  0.0000  0.0044  0.0100  0.0000  0.0021 </r>
        <r>  0.0050  0.0002  0.0009  0.0000  0.0000  0.0000  0.0000  0.0000  0.0000 </r>
        <r>  0.0000  0.0000  0.0000  0.0002  0.0173  0.0000  0.0000  0.0001  0.0000 </r>
        <r>  0.0000  0.0000  0.0000  0.0013  0.0008  0.0000  0.0000  0.0167  0.0000 </r>
        <r>  0.0014  0.0033  0.0017  0.0000  0.0000  0.0000  0.0000  0.0000  0.0002 </r>
        <r>  0.0000  0.0000  0.0000  0.0010  0.0031  0.0000  0.0000  0.0003  0.0000 </r>
        <r>  0.0147  0.0071  0.2020  0.0000  0.0000  0.0013  0.0017  0.0000  0.0001 </r>
        <r>  0.0000  0.0000  0.0000  0.0291  0.0007  0.0000  0.0000  0.0003  0.0000 </r>
        <r>  0.0015  0.0023  0.0057  0.0000  0.0000  0.0000  0.0000  0.0000  0.0000 </r>
        <r>  0.0000  0.0000  0.0000  0.0001  0.0000  0.0000  0.0000  0.0000  0.0000 </r>
        <r>  0.0004  0.0085  0.0396  0.0000  0.0000  0.0000  0.0000  0.0000  0.0000 </r>
        <r>  0.0000  0.0000  0.0000  0.0203  0.0000  0.0000  0.0000  0.0000  0.0000 </r>
        <r>  0.0000  0.0000  0.0000  0.0000  0.0000  0.0000  0.0000  0.0000  0.0000 </r>
        <r>  0.0039  0.0005  0.0051  0.0000  0.0000  0.0000  0.0000  0.0000  0.0000 </r>
        <r>  0.0000  0.0000  0.0000  0.0837  0.0000  0.0000  0.0000  0.0000  0.0000 </r>
        <r>  0.0007  0.0003  0.0137  0.0000  0.0000  0.0000  0.0000  0.0000  0.0000 </r>
       </set>
       <set comment="band 66">
        <r>  0.0000  0.0000  0.0000  0.0002  0.0173  0.0000  0.0000  0.0001  0.0000 </r>
        <r>  0.0000  0.0000  0.0000  0.0013  0.0008  0.0000  0.0000  0.0168  0.0000 </r>
        <r>  0.0213  0.0043  0.0002  0.0000  0.0000  0.0044  0.0100  0.0000  0.0021 </r>
        <r>  0.0052  0.0002  0.0009  0.0000  0.0000  0.0000  0.0000  0.0000  0.0000 </r>
        <r>  0.0000  0.0000  0.0000  0.0011  0.0031  0.0000  0.0000  0.0003  0.0000 </r>
        <r>  0.0015  0.0032  0.0014  0.0000  0.0000  0.0000  0.0000  0.0000  0.0002 </r>
        <r>  0.0000  0.0000  0.0000  0.0290  0.0007  0.0000  0.0000  0.0003  0.0000 </r>
        <r>  0.0146  0.0072  0.2023  0.0000  0.0000  0.0013  0.0017  0.0000  0.0001 </r>
        <r>  0.0000  0.0000  0.0000  0.0001  0.0000  0.0000  0.0000  0.0000  0.0000 </r>
        <r>  0.0015  0.0024  0.0054  0.0000  0.0000  0.0000  0.0000  0.0000  0.0000 </r>
        <r>  0.0000  0.0000  0.0000  0.0204  0.0000  0.0000  0.0000  0.0000  0.0000 </r>
        <r>  0.0004  0.0084  0.0399  0.0000  0.0000  0.0000  0.0000  0.0000  0.0000 </r>
        <r>  0.0007  0.0003  0.0139  0.0000  0.0000  0.0000  0.0000  0.0000  0.0000 </r>
        <r>  0.0000  0.0000  0.0000  0.0837  0.0000  0.0000  0.0000  0.0000  0.0000 </r>
        <r>  0.0039  0.0005  0.0050  0.0000  0.0000  0.0000  0.0000  0.0000  0.0000 </r>
        <r>  0.0000  0.0000  0.0000  0.0000  0.0000  0.0000  0.0000  0.0000  0.0000 </r>
       </set>
       <set comment="band 67">
        <r>  0.0050  0.0002  0.0009  0.0000  0.0000  0.0000  0.0000  0.0000  0.0000 </r>
        <r>  0.0215  0.0043  0.0002  0.0000  0.0000  0.0044  0.0100  0.0000  0.0021 </r>
        <r>  0.0000  0.0000  0.0000  0.0013  0.0008  0.0000  0.0000  0.0167  0.0000 </r>
        <r>  0.0000  0.0000  0.0000  0.0002  0.0173  0.0000  0.0000  0.0001  0.0000 </r>
        <r>  0.0147  0.0071  0.2019  0.0000  0.0000  0.0013  0.0017  0.0000  0.0001 </r>
        <r>  0.0000  0.0000  0.0001  0.0291  0.0007  0.0000  0.0000  0.0003  0.0000 </r>
        <r>  0.0014  0.0032  0.0017  0.0000  0.0000  0.0000  0.0000  0.0000  0.0002 </r>
        <r>  0.0000  0.0000  0.0000  0.0010  0.0031  0.0000  0.0000  0.0003  0.0000 </r>
        <r>  0.0004  0.0085  0.0396  0.0000  0.0000  0.0000  0.0000  0.0000  0.0000 </r>
        <r>  0.0000  0.0000  0.0000  0.0203  0.0000  0.0000  0.0000  0.0000  0.0000 </r>
        <r>  0.0015  0.0023  0.0057  0.0000  0.0000  0.0000  0.0000  0.0000  0.0000 </r>
        <r>  0.0000  0.0000  0.0000  0.0001  0.0000  0.0000  0.0000  0.0000  0.0000 </r>
        <r>  0.0000  0.0000  0.0000  0.0837  0.0000  0.0000  0.0000  0.0000  0.0000 </r>
        <r>  0.0007  0.0003  0.0137  0.0000  0.0000  0.0000  0.0000  0.0000  0.0000 </r>
        <r>  0.0000  0.0000  0.0000  0.0000  0.0000  0.0000  0.0000  0.0000  0.0000 </r>
        <r>  0.0039  0.0005  0.0051  0.0000  0.0000  0.0000  0.0000  0.0000  0.0000 </r>
       </set>
       <set comment="band 68">
        <r>  0.0000  0.0000  0.0000  0.0013  0.0008  0.0000  0.0000  0.0168  0.0000 </r>
        <r>  0.0000  0.0000  0.0000  0.0002  0.0173  0.0000  0.0000  0.0001  0.0000 </r>
        <r>  0.0052  0.0002  0.0009  0.0000  0.0000  0.0000  0.0000  0.0000  0.0000 </r>
        <r>  0.0213  0.0042  0.0002  0.0000  0.0000  0.0044  0.0100  0.0000  0.0021 </r>
        <r>  0.0000  0.0000  0.0001  0.0290  0.0007  0.0000  0.0000  0.0003  0.0000 </r>
        <r>  0.0146  0.0072  0.2022  0.0000  0.0000  0.0013  0.0017  0.0000  0.0001 </r>
        <r>  0.0000  0.0000  0.0000  0.0011  0.0031  0.0000  0.0000  0.0003  0.0000 </r>
        <r>  0.0015  0.0032  0.0014  0.0000  0.0000  0.0000  0.0000  0.0000  0.0002 </r>
        <r>  0.0000  0.0000  0.0000  0.0203  0.0000  0.0000  0.0000  0.0000  0.0000 </r>
        <r>  0.0004  0.0084  0.0399  0.0000  0.0000  0.0000  0.0000  0.0000  0.0000 </r>
        <r>  0.0000  0.0000  0.0000  0.0001  0.0000  0.0000  0.0000  0.0000  0.0000 </r>
        <r>  0.0015  0.0024  0.0054  0.0000  0.0000  0.0000  0.0000  0.0000  0.0000 </r>
        <r>  0.0039  0.0005  0.0050  0.0000  0.0000  0.0000  0.0000  0.0000  0.0000 </r>
        <r>  0.0000  0.0000  0.0000  0.0000  0.0000  0.0000  0.0000  0.0000  0.0000 </r>
        <r>  0.0007  0.0003  0.0139  0.0000  0.0000  0.0000  0.0000  0.0000  0.0000 </r>
        <r>  0.0000  0.0000  0.0000  0.0837  0.0000  0.0000  0.0000  0.0000  0.0000 </r>
       </set>
       <set comment="band 69">
        <r>  0.0002  0.0001  0.0000  0.0032  0.0011  0.0000  0.0000  0.0001  0.0000 </r>
        <r>  0.0000  0.0000  0.0000  0.0000  0.0000  0.0000  0.0000  0.0000  0.0000 </r>
        <r>  0.1189  0.0260  0.0062  0.0000  0.0000  0.0024  0.0027  0.0000  0.0124 </r>
        <r>  0.0035  0.0014  0.0001  0.0000  0.0000  0.0120  0.0002  0.0000  0.0010 </r>
        <r>  0.0000  0.0000  0.0000  0.0004  0.0002  0.0000  0.0000  0.0001  0.0000 </r>
        <r>  0.0000  0.0023  0.0021  0.0000  0.0000  0.0001  0.0000  0.0000  0.0000 </r>
        <r>  0.0000  0.0000  0.0000  0.0193  0.0300  0.0000  0.0000  0.0070  0.0000 </r>
        <r>  0.0000  0.0059  0.0000  0.0000  0.0001  0.0025  0.0018  0.0000  0.0001 </r>
        <r>  0.0000  0.0000  0.0000  0.0089  0.0000  0.0000  0.0000  0.0000  0.0000 </r>
        <r>  0.0001  0.0000  0.0002  0.0000  0.0000  0.0000  0.0000  0.0000  0.0000 </r>
        <r>  0.0000  0.0000  0.0000  0.0006  0.0000  0.0000  0.0000  0.0000  0.0000 </r>
        <r>  0.0004  0.0072  0.0000  0.0000  0.0000  0.0000  0.0000  0.0000  0.0000 </r>
        <r>  0.0000  0.0014  0.0008  0.0000  0.0000  0.0000  0.0000  0.0000  0.0000 </r>
        <r>  0.0000  0.0000  0.0000  0.0032  0.0000  0.0000  0.0000  0.0000  0.0000 </r>
        <r>  0.0073  0.0131  0.0023  0.0000  0.0000  0.0000  0.0000  0.0000  0.0000 </r>
        <r>  0.0000  0.0000  0.0000  0.0022  0.0000  0.0000  0.0000  0.0000  0.0000 </r>
       </set>
       <set comment="band 70">
        <r>  0.1194  0.0258  0.0062  0.0000  0.0000  0.0025  0.0027  0.0000  0.0123 </r>
        <r>  0.0029  0.0016  0.0002  0.0000  0.0000  0.0118  0.0002  0.0000  0.0012 </r>
        <r>  0.0002  0.0001  0.0000  0.0032  0.0011  0.0000  0.0000  0.0001  0.0000 </r>
        <r>  0.0000  0.0000  0.0000  0.0000  0.0000  0.0000  0.0000  0.0000  0.0000 </r>
        <r>  0.0000  0.0024  0.0021  0.0000  0.0000  0.0001  0.0000  0.0000  0.0000 </r>
        <r>  0.0000  0.0000  0.0000  0.0004  0.0002  0.0000  0.0000  0.0002  0.0000 </r>
        <r>  0.0000  0.0058  0.0000  0.0000  0.0001  0.0025  0.0018  0.0000  0.0001 </r>
        <r>  0.0000  0.0000  0.0000  0.0194  0.0299  0.0000  0.0000  0.0069  0.0000 </r>
        <r>  0.0001  0.0000  0.0002  0.0000  0.0000  0.0000  0.0000  0.0000  0.0000 </r>
        <r>  0.0000  0.0000  0.0000  0.0088  0.0000  0.0000  0.0000  0.0000  0.0000 </r>
        <r>  0.0004  0.0072  0.0000  0.0000  0.0000  0.0000  0.0000  0.0000  0.0000 </r>
        <r>  0.0000  0.0000  0.0000  0.0007  0.0000  0.0000  0.0000  0.0000  0.0000 </r>
        <r>  0.0000  0.0000  0.0000  0.0023  0.0000  0.0000  0.0000  0.0000  0.0000 </r>
        <r>  0.0073  0.0129  0.0023  0.0000  0.0000  0.0000  0.0000  0.0000  0.0000 </r>
        <r>  0.0000  0.0000  0.0000  0.0031  0.0000  0.0000  0.0000  0.0000  0.0000 </r>
        <r>  0.0000  0.0015  0.0007  0.0000  0.0000  0.0000  0.0000  0.0000  0.0000 </r>
       </set>
       <set comment="band 71">
        <r>  0.0000  0.0000  0.0000  0.0000  0.0000  0.0000  0.0000  0.0000  0.0000 </r>
        <r>  0.0000  0.0000  0.0000  0.0032  0.0011  0.0000  0.0000  0.0001  0.0000 </r>
        <r>  0.0035  0.0014  0.0001  0.0000  0.0000  0.0120  0.0002  0.0000  0.0010 </r>
        <r>  0.1191  0.0260  0.0062  0.0000  0.0000  0.0024  0.0027  0.0000  0.0124 </r>
        <r>  0.0000  0.0000  0.0000  0.0193  0.0300  0.0000  0.0000  0.0070  0.0000 </r>
        <r>  0.0000  0.0059  0.0000  0.0000  0.0000  0.0025  0.0018  0.0000  0.0001 </r>
        <r>  0.0000  0.0000  0.0000  0.0004  0.0002  0.0000  0.0000  0.0001  0.0000 </r>
        <r>  0.0000  0.0023  0.0021  0.0000  0.0000  0.0001  0.0000  0.0000  0.0000 </r>
        <r>  0.0000  0.0000  0.0000  0.0006  0.0000  0.0000  0.0000  0.0000  0.0000 </r>
        <r>  0.0004  0.0072  0.0000  0.0000  0.0000  0.0000  0.0000  0.0000  0.0000 </r>
        <r>  0.0000  0.0000  0.0000  0.0089  0.0000  0.0000  0.0000  0.0000  0.0000 </r>
        <r>  0.0001  0.0000  0.0002  0.0000  0.0000  0.0000  0.0000  0.0000  0.0000 </r>
        <r>  0.0073  0.0131  0.0023  0.0000  0.0000  0.0000  0.0000  0.0000  0.0000 </r>
        <r>  0.0000  0.0000  0.0000  0.0022  0.0000  0.0000  0.0000  0.0000  0.0000 </r>
        <r>  0.0000  0.0014  0.0008  0.0000  0.0000  0.0000  0.0000  0.0000  0.0000 </r>
        <r>  0.0000  0.0000  0.0000  0.0032  0.0000  0.0000  0.0000  0.0000  0.0000 </r>
       </set>
       <set comment="band 72">
        <r>  0.0030  0.0016  0.0002  0.0000  0.0000  0.0119  0.0002  0.0000  0.0012 </r>
        <r>  0.1197  0.0259  0.0062  0.0000  0.0000  0.0025  0.0027  0.0000  0.0123 </r>
        <r>  0.0000  0.0000  0.0000  0.0000  0.0000  0.0000  0.0000  0.0000  0.0000 </r>
        <r>  0.0000  0.0000  0.0000  0.0032  0.0011  0.0000  0.0000  0.0001  0.0000 </r>
        <r>  0.0000  0.0058  0.0000  0.0000  0.0000  0.0025  0.0018  0.0000  0.0001 </r>
        <r>  0.0000  0.0000  0.0000  0.0194  0.0300  0.0000  0.0000  0.0069  0.0000 </r>
        <r>  0.0000  0.0024  0.0021  0.0000  0.0000  0.0001  0.0000  0.0000  0.0000 </r>
        <r>  0.0000  0.0000  0.0000  0.0004  0.0002  0.0000  0.0000  0.0002  0.0000 </r>
        <r>  0.0004  0.0072  0.0000  0.0000  0.0000  0.0000  0.0000  0.0000  0.0000 </r>
        <r>  0.0000  0.0000  0.0000  0.0007  0.0000  0.0000  0.0000  0.0000  0.0000 </r>
        <r>  0.0001  0.0000  0.0002  0.0000  0.0000  0.0000  0.0000  0.0000  0.0000 </r>
        <r>  0.0000  0.0000  0.0000  0.0089  0.0000  0.0000  0.0000  0.0000  0.0000 </r>
        <r>  0.0000  0.0000  0.0000  0.0031  0.0000  0.0000  0.0000  0.0000  0.0000 </r>
        <r>  0.0000  0.0015  0.0007  0.0000  0.0000  0.0000  0.0000  0.0000  0.0000 </r>
        <r>  0.0000  0.0000  0.0000  0.0023  0.0000  0.0000  0.0000  0.0000  0.0000 </r>
        <r>  0.0073  0.0130  0.0023  0.0000  0.0000  0.0000  0.0000  0.0000  0.0000 </r>
       </set>
      </set>
     </set>
    </set>
   </array>
  </projected>
 </calculation>
 <structure name="finalpos" >
  <crystal>
   <varray name="basis" >
    <v>       3.80157474       0.00000000       0.00000000 </v>
    <v>      -0.00000000       6.07432056       0.00000000 </v>
    <v>       0.00000000       0.00000000      14.49176048 </v>
   </varray>
   <i name="volume">    334.64349539 </i>
   <varray name="rec_basis" >
    <v>       0.26304889       0.00000000       0.00000000 </v>
    <v>       0.00000000       0.16462747       0.00000000 </v>
    <v>      -0.00000000      -0.00000000       0.06900473 </v>
   </varray>
  </crystal>
  <varray name="positions" >
   <v>       0.25000000       0.25010162       0.82821842 </v>
   <v>       0.25000000       0.75010162       0.67178158 </v>
   <v>       0.75000000       0.74989838       0.17178158 </v>
   <v>       0.75000000       0.24989838       0.32821842 </v>
   <v>       0.25000000       0.72881200       0.43458741 </v>
   <v>       0.75000000       0.27118800       0.56541259 </v>
   <v>       0.25000000       0.22881200       0.06541259 </v>
   <v>       0.75000000       0.77118800       0.93458741 </v>
   <v>       0.25000000       0.12368586       0.40104516 </v>
   <v>       0.75000000       0.87631414       0.59895484 </v>
   <v>       0.25000000       0.62368586       0.09895484 </v>
   <v>       0.75000000       0.37631414       0.90104516 </v>
   <v>       0.75000000       0.62427265       0.32157721 </v>
   <v>       0.25000000       0.87572735       0.82157721 </v>
   <v>       0.75000000       0.12427265       0.17842279 </v>
   <v>       0.25000000       0.37572735       0.67842279 </v>
  </varray>
 </structure>
</modeling>
