<?xml version="1.0" encoding="ISO-8859-1"?>
<modeling>
 <generator>
  <i name="program" type="string">vasp </i>
  <i name="version" type="string">6.4.2  </i>
  <i name="subversion" type="string">20Jul23 (build Mar 15 2024 16:31:38) complex                          parallel </i>
  <i name="platform" type="string">LinuxIFC </i>
  <i name="date" type="string">2025 03 19 </i>
  <i name="time" type="string">11:24:35 </i>
 </generator>
 <incar>
  <i type="string" name="PREC">Accurate</i>
  <i type="string" name="ALGO">Normal</i>
  <i type="int" name="ISPIN">     2</i>
  <i type="int" name="NELM">   200</i>
  <i name="EDIFF">      0.00001000</i>
  <i type="int" name="NSW">     0</i>
  <i name="ENCUT">    680.00000000</i>
  <i name="ENAUG">   1360.00000000</i>
  <v name="MAGMOM">      0.60000000      0.60000000      0.60000000      0.60000000      0.60000000      0.60000000      0.60000000      0.60000000</v>
  <i type="logical" name="LREAL"> F  </i>
  <i type="int" name="ISMEAR">    -5</i>
  <i name="SIGMA">      0.20000000</i>
  <i type="int" name="LMAXMIX">     4</i>
  <i type="logical" name="LWAVE"> T  </i>
  <i type="logical" name="LCHARG"> T  </i>
  <i type="logical" name="LVTOT"> T  </i>
  <i type="int" name="LORBIT">    11</i>
  <i type="logical" name="LELF"> F  </i>
  <i type="logical" name="LASPH"> T  </i>
  <i type="logical" name="LAECHG"> T  </i>
  <i name="HFSCREEN">      0.20000000</i>
  <i type="logical" name="LHFCALC"> T  </i>
  <i type="string" name="GGA">Pe</i>
  <i type="string" name="PRECFOCK">Fast</i>
  <i type="logical" name="LDAU"> F  </i>
  <i type="logical" name="LMIXTAU"> T  </i>
 </incar>
 <primitive_cell>
  <structure name="primitive_cell" >
   <crystal>
    <varray name="basis" >
     <v>       3.95685521       0.00000000       0.00000000 </v>
     <v>      -0.00000000       4.53281069       0.00000000 </v>
     <v>       0.00000000       0.00000000      11.39201851 </v>
    </varray>
    <i name="volume">    204.32354836 </i>
    <varray name="rec_basis" >
     <v>       0.25272595       0.00000000       0.00000000 </v>
     <v>       0.00000000       0.22061367       0.00000000 </v>
     <v>      -0.00000000      -0.00000000       0.08778076 </v>
    </varray>
   </crystal>
   <varray name="positions" >
    <v>       0.25000000       0.36953984       0.62163275 </v>
    <v>       0.75000000       0.63046016       0.37836725 </v>
    <v>       0.75000000       0.86953984       0.87836725 </v>
    <v>       0.25000000       0.13046016       0.12163275 </v>
    <v>       0.25000000       0.01059680       0.34749746 </v>
    <v>       0.75000000       0.98940320       0.65250254 </v>
    <v>       0.75000000       0.51059680       0.15250254 </v>
    <v>       0.25000000       0.48940320       0.84749746 </v>
   </varray>
  </structure>
  <varray name="primitive_index" >
   <v type="int" >        1 </v>
   <v type="int" >        2 </v>
   <v type="int" >        3 </v>
   <v type="int" >        4 </v>
   <v type="int" >        5 </v>
   <v type="int" >        6 </v>
   <v type="int" >        7 </v>
   <v type="int" >        8 </v>
  </varray>
 </primitive_cell>
 <kpoints>
  <generation param="Gamma">
   <v type="int" name="divisions">       6        5        2 </v>
   <v name="usershift">      0.00000000       0.00000000       0.00000000 </v>
   <v name="genvec1">      0.16666667      -0.00000000       0.00000000 </v>
   <v name="genvec2">      0.00000000       0.20000000       0.00000000 </v>
   <v name="genvec3">      0.00000000      -0.00000000       0.50000000 </v>
   <v name="shift">      0.00000000       0.00000000       0.00000000 </v>
  </generation>
  <varray name="kpointlist" >
   <v>       0.00000000       0.00000000       0.00000000 </v>
   <v>       0.16666667      -0.00000000       0.00000000 </v>
   <v>       0.33333333      -0.00000000       0.00000000 </v>
   <v>       0.50000000      -0.00000000       0.00000000 </v>
   <v>       0.00000000       0.20000000       0.00000000 </v>
   <v>       0.16666667       0.20000000       0.00000000 </v>
   <v>       0.33333333       0.20000000       0.00000000 </v>
   <v>       0.50000000       0.20000000       0.00000000 </v>
   <v>       0.00000000       0.40000000       0.00000000 </v>
   <v>       0.16666667       0.40000000       0.00000000 </v>
   <v>       0.33333333       0.40000000       0.00000000 </v>
   <v>       0.50000000       0.40000000       0.00000000 </v>
   <v>      -0.00000000       0.00000000       0.50000000 </v>
   <v>       0.16666667      -0.00000000       0.50000000 </v>
   <v>       0.33333333      -0.00000000       0.50000000 </v>
   <v>       0.50000000      -0.00000000       0.50000000 </v>
   <v>      -0.00000000       0.20000000       0.50000000 </v>
   <v>       0.16666667       0.20000000       0.50000000 </v>
   <v>       0.33333333       0.20000000       0.50000000 </v>
   <v>       0.50000000       0.20000000       0.50000000 </v>
   <v>      -0.00000000       0.40000000       0.50000000 </v>
   <v>       0.16666667       0.40000000       0.50000000 </v>
   <v>       0.33333333       0.40000000       0.50000000 </v>
   <v>       0.50000000       0.40000000       0.50000000 </v>
  </varray>
  <varray name="weights" >
   <v>       0.01666667 </v>
   <v>       0.03333333 </v>
   <v>       0.03333333 </v>
   <v>       0.01666667 </v>
   <v>       0.03333333 </v>
   <v>       0.06666667 </v>
   <v>       0.06666667 </v>
   <v>       0.03333333 </v>
   <v>       0.03333333 </v>
   <v>       0.06666667 </v>
   <v>       0.06666667 </v>
   <v>       0.03333333 </v>
   <v>       0.01666667 </v>
   <v>       0.03333333 </v>
   <v>       0.03333333 </v>
   <v>       0.01666667 </v>
   <v>       0.03333333 </v>
   <v>       0.06666667 </v>
   <v>       0.06666667 </v>
   <v>       0.03333333 </v>
   <v>       0.03333333 </v>
   <v>       0.06666667 </v>
   <v>       0.06666667 </v>
   <v>       0.03333333 </v>
  </varray>
  <varray name="tetrahedronlist"  type="int" >
   <v type="int" >        2        3        6        7       18 </v>
   <v type="int" >        2        2        3        6       18 </v>
   <v type="int" >        2        2        3       14       18 </v>
   <v type="int" >        2        3        7       18       19 </v>
   <v type="int" >        2        3       15       18       19 </v>
   <v type="int" >        2        3       14       15       18 </v>
   <v type="int" >        2        6       15       18       19 </v>
   <v type="int" >        2        6       14       15       18 </v>
   <v type="int" >        2        2        6       14       15 </v>
   <v type="int" >        2        6        7       15       19 </v>
   <v type="int" >        2        3        6        7       15 </v>
   <v type="int" >        2        2        3        6       15 </v>
   <v type="int" >        2       11       20       23       24 </v>
   <v type="int" >        2       11       19       20       23 </v>
   <v type="int" >        2        7       11       19       20 </v>
   <v type="int" >        2       11       12       20       24 </v>
   <v type="int" >        2        8       11       12       20 </v>
   <v type="int" >        2        7        8       11       20 </v>
   <v type="int" >        2        8       11       12       23 </v>
   <v type="int" >        2        7        8       11       23 </v>
   <v type="int" >        2        7        8       19       23 </v>
   <v type="int" >        2        8       12       23       24 </v>
   <v type="int" >        2        8       20       23       24 </v>
   <v type="int" >        2        8       19       20       23 </v>
   <v type="int" >        2       11       11       12       24 </v>
   <v type="int" >        2       11       12       12       24 </v>
   <v type="int" >        2       11       12       24       24 </v>
   <v type="int" >        2       11       11       23       24 </v>
   <v type="int" >        2       11       23       23       24 </v>
   <v type="int" >        2       11       23       24       24 </v>
   <v type="int" >        2       12       23       23       24 </v>
   <v type="int" >        2       12       23       24       24 </v>
   <v type="int" >        2       12       12       23       24 </v>
   <v type="int" >        2       11       12       23       23 </v>
   <v type="int" >        2       11       11       12       23 </v>
   <v type="int" >        2       11       12       12       23 </v>
   <v type="int" >        2        7       18       19       22 </v>
   <v type="int" >        2        7       19       22       23 </v>
   <v type="int" >        2        7       11       22       23 </v>
   <v type="int" >        2        6        7       18       22 </v>
   <v type="int" >        2        6        7       10       22 </v>
   <v type="int" >        2        7       10       11       22 </v>
   <v type="int" >        2        6        7       10       19 </v>
   <v type="int" >        2        7       10       11       19 </v>
   <v type="int" >        2       10       11       19       23 </v>
   <v type="int" >        2        6       10       18       19 </v>
   <v type="int" >        2       10       18       19       22 </v>
   <v type="int" >        2       10       19       22       23 </v>
   <v type="int" >        2        1        2        5       14 </v>
   <v type="int" >        2        2        5        6       14 </v>
   <v type="int" >        2        5        6       14       18 </v>
   <v type="int" >        2        1        5       13       14 </v>
   <v type="int" >        2        5       13       14       17 </v>
   <v type="int" >        2        5       14       17       18 </v>
   <v type="int" >        2        2       13       14       17 </v>
   <v type="int" >        2        2       14       17       18 </v>
   <v type="int" >        2        2        6       17       18 </v>
   <v type="int" >        2        1        2       13       17 </v>
   <v type="int" >        2        1        2        5       17 </v>
   <v type="int" >        2        2        5        6       17 </v>
   <v type="int" >        2        1        5        6       18 </v>
   <v type="int" >        2        1        2        6       18 </v>
   <v type="int" >        2        1        2       14       18 </v>
   <v type="int" >        2        1        5       17       18 </v>
   <v type="int" >        2        1       13       17       18 </v>
   <v type="int" >        2        1       13       14       18 </v>
   <v type="int" >        2        6       13       17       18 </v>
   <v type="int" >        2        6       13       14       18 </v>
   <v type="int" >        2        2        6       13       14 </v>
   <v type="int" >        2        5        6       13       17 </v>
   <v type="int" >        2        1        5        6       13 </v>
   <v type="int" >        2        1        2        6       13 </v>
   <v type="int" >        2        9       18       21       22 </v>
   <v type="int" >        2        9       17       18       21 </v>
   <v type="int" >        2        5        9       17       18 </v>
   <v type="int" >        2        9       10       18       22 </v>
   <v type="int" >        2        6        9       10       18 </v>
   <v type="int" >        2        5        6        9       18 </v>
   <v type="int" >        2        6        9       10       21 </v>
   <v type="int" >        2        5        6        9       21 </v>
   <v type="int" >        2        5        6       17       21 </v>
   <v type="int" >        2        6       10       21       22 </v>
   <v type="int" >        2        6       18       21       22 </v>
   <v type="int" >        2        6       17       18       21 </v>
   <v type="int" >        2       10       11       11       22 </v>
   <v type="int" >        2       10       10       11       22 </v>
   <v type="int" >        2       10       11       22       22 </v>
   <v type="int" >        2       11       11       22       23 </v>
   <v type="int" >        2       11       22       23       23 </v>
   <v type="int" >        2       11       22       22       23 </v>
   <v type="int" >        2       10       22       23       23 </v>
   <v type="int" >        2       10       22       22       23 </v>
   <v type="int" >        2       10       10       22       23 </v>
   <v type="int" >        2       10       11       23       23 </v>
   <v type="int" >        2       10       11       11       23 </v>
   <v type="int" >        2       10       10       11       23 </v>
   <v type="int" >        2        7       19       20       24 </v>
   <v type="int" >        2        7       19       23       24 </v>
   <v type="int" >        2        7       11       23       24 </v>
   <v type="int" >        2        7        8       20       24 </v>
   <v type="int" >        2        7        8       12       24 </v>
   <v type="int" >        2        7       11       12       24 </v>
   <v type="int" >        2        7        8       12       19 </v>
   <v type="int" >        2        7       11       12       19 </v>
   <v type="int" >        2       11       12       19       23 </v>
   <v type="int" >        2        8       12       19       20 </v>
   <v type="int" >        2       12       19       20       24 </v>
   <v type="int" >        2       12       19       23       24 </v>
   <v type="int" >        2        3        4        7       16 </v>
   <v type="int" >        2        4        7        8       16 </v>
   <v type="int" >        2        7        8       16       20 </v>
   <v type="int" >        2        3        7       15       16 </v>
   <v type="int" >        2        7       15       16       19 </v>
   <v type="int" >        2        7       16       19       20 </v>
   <v type="int" >        2        4       15       16       19 </v>
   <v type="int" >        2        4       16       19       20 </v>
   <v type="int" >        2        4        8       19       20 </v>
   <v type="int" >        2        3        4       15       19 </v>
   <v type="int" >        2        3        4        7       19 </v>
   <v type="int" >        2        4        7        8       19 </v>
   <v type="int" >        2        7       14       18       19 </v>
   <v type="int" >        2        7       14       15       19 </v>
   <v type="int" >        2        3        7       14       15 </v>
   <v type="int" >        2        6        7       14       18 </v>
   <v type="int" >        2        2        6        7       14 </v>
   <v type="int" >        2        2        3        7       14 </v>
   <v type="int" >        2        2        6        7       19 </v>
   <v type="int" >        2        2        3        7       19 </v>
   <v type="int" >        2        2        3       15       19 </v>
   <v type="int" >        2        2        6       18       19 </v>
   <v type="int" >        2        2       14       18       19 </v>
   <v type="int" >        2        2       14       15       19 </v>
   <v type="int" >        2        5        9       10       22 </v>
   <v type="int" >        2        5        6       10       22 </v>
   <v type="int" >        2        5        6       18       22 </v>
   <v type="int" >        2        5        9       21       22 </v>
   <v type="int" >        2        5       17       21       22 </v>
   <v type="int" >        2        5       17       18       22 </v>
   <v type="int" >        2       10       17       21       22 </v>
   <v type="int" >        2       10       17       18       22 </v>
   <v type="int" >        2        6       10       17       18 </v>
   <v type="int" >        2        9       10       17       21 </v>
   <v type="int" >        2        5        9       10       17 </v>
   <v type="int" >        2        5        6       10       17 </v>
   <v type="int" >        2        9       21       22       22 </v>
   <v type="int" >        2        9       21       21       22 </v>
   <v type="int" >        2        9        9       21       22 </v>
   <v type="int" >        2        9       10       22       22 </v>
   <v type="int" >        2        9       10       10       22 </v>
   <v type="int" >        2        9        9       10       22 </v>
   <v type="int" >        2        9       10       10       21 </v>
   <v type="int" >        2        9        9       10       21 </v>
   <v type="int" >        2        9       10       21       21 </v>
   <v type="int" >        2       10       10       21       22 </v>
   <v type="int" >        2       10       21       22       22 </v>
   <v type="int" >        2       10       21       21       22 </v>
   <v type="int" >        2        6        7       11       18 </v>
   <v type="int" >        2        6       10       11       18 </v>
   <v type="int" >        2       10       11       18       22 </v>
   <v type="int" >        2        7       11       18       19 </v>
   <v type="int" >        2       11       18       19       23 </v>
   <v type="int" >        2       11       18       22       23 </v>
   <v type="int" >        2        6       18       19       23 </v>
   <v type="int" >        2        6       18       22       23 </v>
   <v type="int" >        2        6       10       22       23 </v>
   <v type="int" >        2        6        7       19       23 </v>
   <v type="int" >        2        6        7       11       23 </v>
   <v type="int" >        2        6       10       11       23 </v>
   <v type="int" >        2        3       15       16       20 </v>
   <v type="int" >        2        3       15       19       20 </v>
   <v type="int" >        2        3        7       19       20 </v>
   <v type="int" >        2        3        4       16       20 </v>
   <v type="int" >        2        3        4        8       20 </v>
   <v type="int" >        2        3        7        8       20 </v>
   <v type="int" >        2        3        4        8       15 </v>
   <v type="int" >        2        3        7        8       15 </v>
   <v type="int" >        2        7        8       15       19 </v>
   <v type="int" >        2        4        8       15       16 </v>
   <v type="int" >        2        8       15       16       20 </v>
   <v type="int" >        2        8       15       19       20 </v>
  </varray>
  <i name="volumeweight">      0.00277778 </i>
 </kpoints>
 <parameters>
  <separator name="general" >
   <i type="string" name="SYSTEM">unknown system</i>
   <i type="logical" name="LCOMPAT"> F  </i>
  </separator>
  <separator name="electronic" >
   <i type="string" name="PREC">accura</i>
   <i name="ENMAX">    680.00000000</i>
   <i name="ENAUG">   1360.00000000</i>
   <i name="EDIFF">      0.00001000</i>
   <i type="int" name="IALGO">    38</i>
   <i type="int" name="IWAVPR">    10</i>
   <i type="int" name="NBANDS">    60</i>
   <i type="int" name="NBANDSLOW">    -1</i>
   <i type="int" name="NBANDSHIGH">    -1</i>
   <i name="NELECT">     80.00000000</i>
   <i type="int" name="TURBO">     0</i>
   <i type="int" name="IRESTART">     0</i>
   <i type="int" name="NREBOOT">     0</i>
   <i type="int" name="NMIN">     0</i>
   <i name="EREF">      0.00000000</i>
   <separator name="electronic smearing" >
    <i type="int" name="ISMEAR">    -5</i>
    <i name="SIGMA">      0.20000000</i>
    <i name="KSPACING">      0.50000000</i>
    <i type="logical" name="KGAMMA"> T  </i>
    <i type="logical" name="KBLOWUP"> T  </i>
   </separator>
   <separator name="electronic projectors" >
    <i type="logical" name="LREAL"> F  </i>
    <v name="ROPT">      0.00000000      0.00000000</v>
    <i type="int" name="LMAXPAW">  -100</i>
    <i type="int" name="LMAXMIX">     4</i>
    <i type="logical" name="NLSPLINE"> F  </i>
   </separator>
   <separator name="electronic startup" >
    <i type="int" name="ISTART">     0</i>
    <i type="int" name="ICHARG">     2</i>
    <i type="int" name="INIWAV">     1</i>
   </separator>
   <separator name="electronic spin" >
    <i type="int" name="ISPIN">     2</i>
    <i type="logical" name="LNONCOLLINEAR"> F  </i>
    <v name="MAGMOM">      0.60000000      0.60000000      0.60000000      0.60000000      0.60000000      0.60000000      0.60000000      0.60000000</v>
    <i name="NUPDOWN">     -1.00000000</i>
    <i type="logical" name="LSORBIT"> F  </i>
    <v name="SAXIS">      0.00000000      0.00000000      1.00000000</v>
    <i type="logical" name="LSPIRAL"> F  </i>
    <v name="QSPIRAL">      0.00000000      0.00000000      0.00000000</v>
    <i type="logical" name="LZEROZ"> F  </i>
   </separator>
   <separator name="electronic exchange-correlation" >
    <i type="logical" name="LASPH"> T  </i>
    <i type="logical" name="LMETAGGA"> F  </i>
   </separator>
   <separator name="electronic convergence" >
    <i type="int" name="NELM">   200</i>
    <i type="int" name="NELMDL">    -5</i>
    <i type="int" name="NELMIN">     2</i>
    <i name="ENINI">    680.00000000</i>
    <separator name="electronic convergence detail" >
     <i type="logical" name="LDIAG"> T  </i>
     <i type="logical" name="LSUBROT"> F  </i>
     <i name="WEIMIN">      0.00000000</i>
     <i name="EBREAK">      0.00000004</i>
     <i name="DEPER">      0.30000000</i>
     <i type="int" name="NRMM">     4</i>
     <i name="TIME">      0.40000000</i>
    </separator>
   </separator>
   <separator name="electronic mixer" >
    <i name="AMIX">      0.40000000</i>
    <i name="BMIX">      1.00000000</i>
    <i name="AMIN">      0.10000000</i>
    <i name="AMIX_MAG">      1.60000000</i>
    <i name="BMIX_MAG">      1.00000000</i>
    <separator name="electronic mixer details" >
     <i type="int" name="IMIX">     1</i>
     <i type="logical" name="MIXFIRST"> F  </i>
     <i type="int" name="MAXMIX">   -45</i>
     <i name="WC">    100.00000000</i>
     <i type="int" name="INIMIX">     1</i>
     <i type="int" name="MIXPRE">     1</i>
     <i type="int" name="MREMOVE">     5</i>
    </separator>
   </separator>
   <separator name="electronic dipolcorrection" >
    <i type="logical" name="LDIPOL"> F  </i>
    <i type="logical" name="LMONO"> F  </i>
    <i type="int" name="IDIPOL">     0</i>
    <i name="EPSILON">      1.00000000</i>
    <v name="DIPOL">   -100.00000000   -100.00000000   -100.00000000</v>
    <i name="EFIELD">      0.00000000</i>
   </separator>
  </separator>
  <separator name="grids" >
   <i type="int" name="NGX">    36</i>
   <i type="int" name="NGY">    40</i>
   <i type="int" name="NGZ">    98</i>
   <i type="int" name="NGXF">    72</i>
   <i type="int" name="NGYF">    80</i>
   <i type="int" name="NGZF">   196</i>
   <i type="logical" name="ADDGRID"> F  </i>
  </separator>
  <separator name="ionic" >
   <i type="int" name="NSW">     0</i>
   <i type="int" name="IBRION">    -1</i>
   <i type="int" name="MDALGO">     0</i>
   <i type="int" name="ISIF">     0</i>
   <i name="PSTRESS">      0.00000000</i>
   <i name="EDIFFG">      0.00010000</i>
   <i type="int" name="NFREE">     0</i>
   <i name="POTIM">      0.50000000</i>
   <i name="SMASS">     -3.00000000</i>
   <i name="SCALEE">      1.00000000</i>
  </separator>
  <separator name="ionic md" >
   <i name="TEBEG">      0.00010000</i>
   <i name="TEEND">      0.00010000</i>
   <i type="int" name="NBLOCK">     1</i>
   <i type="int" name="KBLOCK">     1</i>
   <i type="int" name="NPACO">   256</i>
   <i name="APACO">     10.00000000</i>
  </separator>
  <separator name="symmetry" >
   <i type="int" name="ISYM">     3</i>
   <i name="SYMPREC">      0.00001000</i>
  </separator>
  <separator name="dos" >
   <i type="int" name="LORBIT">    11</i>
   <v name="RWIGS">     -1.00000000     -1.00000000</v>
   <i type="int" name="NEDOS">   301</i>
   <i name="EMIN">     10.00000000</i>
   <i name="EMAX">    -10.00000000</i>
   <i name="EFERMI">      0.00000000</i>
  </separator>
  <separator name="writing" >
   <i type="int" name="NWRITE">     2</i>
   <i type="logical" name="LWAVE"> T  </i>
   <i type="logical" name="LDOWNSAMPLE"> F  </i>
   <i type="logical" name="LCHARG"> T  </i>
   <i type="logical" name="LPARD"> F  </i>
   <i type="logical" name="LVTOT"> T  </i>
   <i type="logical" name="LVHAR"> F  </i>
   <i type="logical" name="LELF"> F  </i>
   <i type="logical" name="LOPTICS"> F  </i>
   <v name="STM">      0.00000000      0.00000000      0.00000000      0.00000000      0.00000000      0.00000000      0.00000000</v>
  </separator>
  <separator name="performance" >
   <i type="int" name="NPAR">    12</i>
   <i type="int" name="NSIM">     4</i>
   <i type="int" name="NBLK">    -1</i>
   <i type="logical" name="LPLANE"> T  </i>
   <i type="logical" name="LSCALAPACK"> T  </i>
   <i type="logical" name="LSCAAWARE"> F  </i>
   <i type="logical" name="LSCALU"> F  </i>
   <i type="logical" name="LASYNC"> F  </i>
   <i type="logical" name="LORBITALREAL"> F  </i>
  </separator>
  <separator name="miscellaneous" >
   <i type="int" name="IDIOT">     3</i>
   <i type="int" name="PHON_NSTRUCT">    -1</i>
   <i type="logical" name="LMUSIC"> F  </i>
   <v name="POMASS">    118.71000000     32.06600000</v>
   <v name="DARWINR">      0.00000000      0.00000000</v>
   <v name="DARWINV">      1.00000000      1.00000000</v>
   <i type="logical" name="LCORR"> T  </i>
  </separator>
  <i type="logical" name="GGA_COMPAT"> T  </i>
  <i type="logical" name="LBERRY"> F  </i>
  <i type="int" name="ICORELEVEL">     0</i>
  <i type="logical" name="LDAU"> F  </i>
  <i type="int" name="I_CONSTRAINED_M">     0</i>
  <separator name="electronic exchange-correlation" >
   <i type="string" name="GGA">PE</i>
   <i type="int" name="VOSKOWN">     0</i>
   <i type="logical" name="LHFCALC"> T  </i>
   <i type="string" name="PRECFOCK">fast</i>
   <i type="logical" name="LSYMGRAD"> F  </i>
   <i type="logical" name="LHFONE"> F  </i>
   <i type="logical" name="LRHFCALC"> F  </i>
   <i type="logical" name="LTHOMAS"> F  </i>
   <i type="logical" name="LMODELHF"> F  </i>
   <i type="logical" name="LFOCKACE"> T  </i>
   <i name="ENCUT4O">     -1.00000000</i>
   <i type="int" name="EXXOEP">     0</i>
   <i type="int" name="FOURORBIT">     0</i>
   <i name="AEXX">      0.25000000</i>
   <i name="HFALPHA">     -1.00000000</i>
   <i name="MCALPHA">      0.00000000</i>
   <i name="ALDAX">      0.75000000</i>
   <i name="AGGAX">      0.75000000</i>
   <i name="ALDAC">      1.00000000</i>
   <i name="AGGAC">      1.00000000</i>
   <i type="int" name="NKREDX">     1</i>
   <i type="int" name="NKREDY">     1</i>
   <i type="int" name="NKREDZ">     1</i>
   <i type="logical" name="SHIFTRED"> F  </i>
   <i type="logical" name="ODDONLY"> F  </i>
   <i type="logical" name="EVENONLY"> F  </i>
   <i type="int" name="LMAXFOCK">     4</i>
   <i type="int" name="NMAXFOCKAE">     1</i>
   <i type="logical" name="LFOCKAEDFT"> F  </i>
   <i name="HFSCREEN">      0.20000000</i>
   <i name="HFSCREENC">      0.20000000</i>
   <i type="int" name="NBANDSGWLOW">     1</i>
  </separator>
  <separator name="vdW DFT" >
   <i type="logical" name="LUSE_VDW"> F  </i>
   <i type="int" name="IVDW_NL">     1</i>
   <i type="logical" name="LSPIN_VDW"> F  </i>
   <i name="Zab_VDW">     -0.84910000</i>
   <i name="PARAM1">      0.12340000</i>
   <i name="PARAM2">      1.00000000</i>
   <i name="PARAM3">      0.00000000</i>
  </separator>
  <separator name="model GW" >
   <i type="int" name="MODEL_GW">     0</i>
   <i name="MODEL_EPS0">     15.32426613</i>
   <i name="MODEL_ALPHA">      1.00000000</i>
  </separator>
  <separator name="linear response parameters" >
   <i type="logical" name="LEPSILON"> F  </i>
   <i type="logical" name="LRPA"> F  </i>
   <i type="logical" name="LNABLA"> F  </i>
   <i type="logical" name="LVEL"> F  </i>
   <i name="CSHIFT">      0.10000000</i>
   <i name="OMEGAMAX">     -1.00000000</i>
   <i name="DEG_THRESHOLD">      0.00200000</i>
   <i name="RTIME">     -0.10000000</i>
   <i name="WPLASMAI">      0.00000000</i>
   <v name="DFIELD">      0.00000000      0.00000000      0.00000000</v>
   <v name="WPLASMA">      0.00000000      0.00000000      0.00000000      0.00000000      0.00000000      0.00000000      0.00000000      0.00000000      0.00000000</v>
  </separator>
  <separator name="orbital magnetization" >
   <i type="logical" name="NUCIND"> F  </i>
   <v name="MAGPOS">      0.00000000      0.00000000      0.00000000</v>
   <i type="logical" name="LNICSALL"> T  </i>
   <i type="logical" name="ORBITALMAG"> F  </i>
   <i type="logical" name="LMAGBLOCH"> F  </i>
   <i type="logical" name="LCHIMAG"> F  </i>
   <i type="logical" name="LGAUGE"> T  </i>
   <i type="int" name="MAGATOM">     0</i>
   <v name="MAGDIPOL">      0.00000000      0.00000000      0.00000000</v>
   <v name="AVECCONST">      0.00000000      0.00000000      0.00000000</v>
  </separator>
  <separator name="response functions" >
   <i type="logical" name="LALL_IN_ONE"> F  </i>
   <i type="int" name="IALL_IN_ONE">    -1</i>
   <i type="int" name="NBANDS_WAVE">    -1</i>
   <i type="logical" name="LFINITE_TEMPERATURE"> F  </i>
   <i type="logical" name="LADDER"> F  </i>
   <i type="logical" name="LRPAFORCE"> F  </i>
   <i type="logical" name="LFXC"> F  </i>
   <i type="logical" name="LHARTREE"> T  </i>
   <i type="int" name="IBSE">     0</i>
   <v type="int" name="KPOINT">    -1     0     0     0</v>
   <i type="logical" name="LTCTC"> F  </i>
   <i type="logical" name="LTCTE"> F  </i>
   <i type="logical" name="LTETE"> F  </i>
   <i type="logical" name="LTRIPLET"> F  </i>
   <i type="logical" name="LFXCEPS"> F  </i>
   <i type="logical" name="LFXHEG"> F  </i>
   <i type="int" name="NATURALO">     2</i>
   <i type="logical" name="LHOLEGF"> F  </i>
   <i type="logical" name="L2ORDER"> F  </i>
   <i type="logical" name="LDMP1"> F  </i>
   <i type="logical" name="LMP2LT"> F  </i>
   <i type="logical" name="LSMP2LT"> F  </i>
   <i type="logical" name="LGWLF"> F  </i>
   <i name="ENCUTGW">     -1.60000002</i>
   <i name="ENCUTGWSOFT">     -1.60000002</i>
   <i name="ENCUTLF">     -1.00000000</i>
   <i type="logical" name="LESF_SPLINES"> F  </i>
   <i type="int" name="LMAXMP2">    -1</i>
   <i name="SCISSOR">      0.00000000</i>
   <i type="int" name="NOMEGA">     0</i>
   <i type="int" name="NOMEGAR">     0</i>
   <i type="int" name="NBANDSGW">    -1</i>
   <i type="int" name="NBANDSO">    -1</i>
   <i type="int" name="NBANDSV">    -1</i>
   <i type="int" name="NELMGW">     1</i>
   <i type="int" name="NELMHF">     1</i>
   <i type="int" name="DIM">     3</i>
   <i type="int" name="IESPILON">     4</i>
   <i type="int" name="ANTIRES">     0</i>
   <i name="OMEGAMAX">    -30.00000000</i>
   <i name="OMEGAMIN">    -30.00000000</i>
   <i name="OMEGATL">   -200.00000000</i>
   <i type="int" name="OMEGAGRID">     0</i>
   <i name="CSHIFT">     -0.10000000</i>
   <i type="logical" name="LSELFENERGY"> F  </i>
   <i type="logical" name="LSPECTRAL"> F  </i>
   <i type="logical" name="LSPECTRALGW"> F  </i>
   <i type="logical" name="LSINGLES"> F  </i>
   <i type="logical" name="LFERMIGW"> F  </i>
   <i type="logical" name="ODDONLYGW"> F  </i>
   <i type="logical" name="EVENONLYGW"> F  </i>
   <i type="int" name="NKREDLFX">     1</i>
   <i type="int" name="NKREDLFY">     1</i>
   <i type="int" name="NKREDLFZ">     1</i>
   <i type="int" name="MAXMEM">  2800</i>
   <i type="int" name="TELESCOPE">     0</i>
   <i type="int" name="NTAUPAR">    -1</i>
   <i type="int" name="NOMEGAPAR">    -1</i>
   <i name="DAMP_NEWTON">      0.80000001</i>
   <i name="LAMBDA">      1.00000000</i>
  </separator>
  <separator name="External order field" >
   <i name="OFIELD_KAPPA">      0.00000000</i>
   <v name="OFIELD_K">      0.00000000      0.00000000      0.00000000</v>
   <i name="OFIELD_Q6_NEAR">      0.00000000</i>
   <i name="OFIELD_Q6_FAR">      0.00000000</i>
   <i name="OFIELD_A">      0.00000000</i>
  </separator>
  <separator name="optional k-points parameters" >
   <i type="int" name="KPOINTS_OPT_MODE">     1</i>
   <i type="logical" name="LKPOINTS_OPT"> F  </i>
  </separator>
 </parameters>
 <atominfo>
  <atoms>       8 </atoms>
  <types>       2 </types>
  <array name="atoms" >
   <dimension dim="1">ion</dimension>
   <field type="string">element</field>
   <field type="int">atomtype</field>
   <set>
    <rc><c>Sn</c><c>   1</c></rc>
    <rc><c>Sn</c><c>   1</c></rc>
    <rc><c>Sn</c><c>   1</c></rc>
    <rc><c>Sn</c><c>   1</c></rc>
    <rc><c>S </c><c>   2</c></rc>
    <rc><c>S </c><c>   2</c></rc>
    <rc><c>S </c><c>   2</c></rc>
    <rc><c>S </c><c>   2</c></rc>
   </set>
  </array>
  <array name="atomtypes" >
   <dimension dim="1">type</dimension>
   <field type="int">atomspertype</field>
   <field type="string">element</field>
   <field>mass</field>
   <field>valence</field>
   <field type="string">pseudopotential</field>
   <set>
    <rc><c>   4</c><c>Sn</c><c>    118.71000000</c><c>     14.00000000</c><c>  PAW_PBE Sn_d 06Sep2000                </c></rc>
    <rc><c>   4</c><c>S </c><c>     32.06600000</c><c>      6.00000000</c><c>  PAW_PBE S 06Sep2000                   </c></rc>
   </set>
  </array>
 </atominfo>
 <structure name="initialpos" >
  <crystal>
   <varray name="basis" >
    <v>       3.95685521       0.00000000       0.00000000 </v>
    <v>      -0.00000000       4.53281069       0.00000000 </v>
    <v>       0.00000000       0.00000000      11.39201851 </v>
   </varray>
   <i name="volume">    204.32354836 </i>
   <varray name="rec_basis" >
    <v>       0.25272595       0.00000000       0.00000000 </v>
    <v>       0.00000000       0.22061367       0.00000000 </v>
    <v>      -0.00000000      -0.00000000       0.08778076 </v>
   </varray>
  </crystal>
  <varray name="positions" >
   <v>       0.25000000       0.36953984       0.62163275 </v>
   <v>       0.75000000       0.63046016       0.37836725 </v>
   <v>       0.75000000       0.86953984       0.87836725 </v>
   <v>       0.25000000       0.13046016       0.12163275 </v>
   <v>       0.25000000       0.01059680       0.34749746 </v>
   <v>       0.75000000       0.98940320       0.65250254 </v>
   <v>       0.75000000       0.51059680       0.15250254 </v>
   <v>       0.25000000       0.48940320       0.84749746 </v>
  </varray>
 </structure>
 <calculation>
  <scstep>
   <time name="dav">    1.42    2.45</time>
   <time name="total">    1.89    2.93</time>
   <energy>
    <i name="alphaZ">    164.67690988 </i>
    <i name="ewald">  -6009.93810534 </i>
    <i name="hartreedc">  -2402.51146919 </i>
    <i name="XCdc">    275.89987348 </i>
    <i name="pawpsdc">   7145.25035233 </i>
    <i name="pawaedc"> -11885.61482844 </i>
    <i name="eentropy">      0.00000000 </i>
    <i name="bandstr">    174.59276960 </i>
    <i name="atom">   8669.54861131 </i>
    <i name="e_fr_energy">  -3868.09588637 </i>
    <i name="e_wo_entrp">  -3868.09588637 </i>
    <i name="e_0_energy">  -3868.09588637 </i>
   </energy>
  </scstep>
  <scstep>
   <time name="dav">    1.11    1.12</time>
   <time name="total">    1.14    1.15</time>
   <energy>
    <i name="e_fr_energy">  -4696.53599166 </i>
    <i name="e_wo_entrp">  -4696.53599166 </i>
    <i name="e_0_energy">  -4696.53599166 </i>
   </energy>
  </scstep>
  <scstep>
   <time name="dav">    1.25    1.28</time>
   <time name="total">    1.26    1.29</time>
   <energy>
    <i name="e_fr_energy">  -4839.78966954 </i>
    <i name="e_wo_entrp">  -4839.78966954 </i>
    <i name="e_0_energy">  -4839.78966954 </i>
   </energy>
  </scstep>
  <scstep>
   <time name="dav">    1.30    1.32</time>
   <time name="total">    1.31    1.33</time>
   <energy>
    <i name="e_fr_energy">  -4847.93971623 </i>
    <i name="e_wo_entrp">  -4847.93971623 </i>
    <i name="e_0_energy">  -4847.93971623 </i>
   </energy>
  </scstep>
  <scstep>
   <time name="dav">  137.34  137.83</time>
   <time name="total">  138.46  139.01</time>
   <energy>
    <i name="e_fr_energy">    -43.67061942 </i>
    <i name="e_wo_entrp">    -43.67061942 </i>
    <i name="e_0_energy">    -43.67061942 </i>
   </energy>
  </scstep>
  <scstep>
   <time name="dav">  137.79  138.19</time>
   <time name="total">  138.90  139.31</time>
   <energy>
    <i name="e_fr_energy">    -42.19414200 </i>
    <i name="e_wo_entrp">    -42.19414200 </i>
    <i name="e_0_energy">    -42.19414200 </i>
   </energy>
  </scstep>
  <scstep>
   <time name="dav">  137.25  137.64</time>
   <time name="total">  138.36  138.76</time>
   <energy>
    <i name="e_fr_energy">    -42.47547418 </i>
    <i name="e_wo_entrp">    -42.47547418 </i>
    <i name="e_0_energy">    -42.47547418 </i>
   </energy>
  </scstep>
  <scstep>
   <time name="dav">  138.06  138.44</time>
   <time name="total">  139.16  139.56</time>
   <energy>
    <i name="e_fr_energy">    -42.51644680 </i>
    <i name="e_wo_entrp">    -42.51644680 </i>
    <i name="e_0_energy">    -42.51644680 </i>
   </energy>
  </scstep>
  <scstep>
   <time name="dav">  137.62  138.00</time>
   <time name="total">  138.73  139.12</time>
   <energy>
    <i name="e_fr_energy">    -42.51104729 </i>
    <i name="e_wo_entrp">    -42.51104729 </i>
    <i name="e_0_energy">    -42.51104729 </i>
   </energy>
  </scstep>
  <scstep>
   <time name="dav">  137.96  138.34</time>
   <time name="total">  139.06  139.46</time>
   <energy>
    <i name="e_fr_energy">    -42.51592352 </i>
    <i name="e_wo_entrp">    -42.51592352 </i>
    <i name="e_0_energy">    -42.51592352 </i>
   </energy>
  </scstep>
  <scstep>
   <time name="dav">  137.15  137.53</time>
   <time name="total">  138.26  138.66</time>
   <energy>
    <i name="e_fr_energy">    -42.51739018 </i>
    <i name="e_wo_entrp">    -42.51739018 </i>
    <i name="e_0_energy">    -42.51739018 </i>
   </energy>
  </scstep>
  <scstep>
   <time name="dav">  138.14  138.52</time>
   <time name="total">  139.25  139.64</time>
   <energy>
    <i name="e_fr_energy">    -42.51780583 </i>
    <i name="e_wo_entrp">    -42.51780583 </i>
    <i name="e_0_energy">    -42.51780583 </i>
   </energy>
  </scstep>
  <scstep>
   <time name="dav">  137.31  137.69</time>
   <time name="total">  138.42  138.81</time>
   <energy>
    <i name="e_fr_energy">    -42.51806472 </i>
    <i name="e_wo_entrp">    -42.51806472 </i>
    <i name="e_0_energy">    -42.51806472 </i>
   </energy>
  </scstep>
  <scstep>
   <time name="dav">  138.20  138.59</time>
   <time name="total">  139.32  139.72</time>
   <energy>
    <i name="e_fr_energy">    -42.51817374 </i>
    <i name="e_wo_entrp">    -42.51817374 </i>
    <i name="e_0_energy">    -42.51817374 </i>
   </energy>
  </scstep>
  <scstep>
   <time name="dav">  136.69  137.07</time>
   <time name="total">  137.82  138.20</time>
   <energy>
    <i name="e_fr_energy">    -42.51821671 </i>
    <i name="e_wo_entrp">    -42.51821671 </i>
    <i name="e_0_energy">    -42.51821671 </i>
   </energy>
  </scstep>
  <scstep>
   <time name="dav">  137.21  137.59</time>
   <time name="total">  138.33  138.73</time>
   <energy>
    <i name="e_fr_energy">    -42.51823579 </i>
    <i name="e_wo_entrp">    -42.51823579 </i>
    <i name="e_0_energy">    -42.51823579 </i>
   </energy>
  </scstep>
  <scstep>
   <time name="dav">  136.99  137.37</time>
   <time name="total">  138.03  138.42</time>
   <energy>
    <i name="alphaZ">    164.67690988 </i>
    <i name="ewald">  -6009.93810534 </i>
    <i name="hartreedc">  -2397.77101052 </i>
    <i name="XCdc">    210.98591295 </i>
    <i name="pawpsdc">  10088.79023089 </i>
    <i name="pawaedc"> -10194.08943800 </i>
    <i name="eentropy">      0.00000000 </i>
    <i name="bandstr">   -750.98801901 </i>
    <i name="atom">   8669.54861131 </i>
    <i name="e_fr_energy">    -42.51824429 </i>
    <i name="e_wo_entrp">    -42.51824429 </i>
    <i name="e_0_energy">    -42.51824429 </i>
   </energy>
  </scstep>
  <structure>
   <crystal>
    <varray name="basis" >
     <v>       3.95685521       0.00000000       0.00000000 </v>
     <v>      -0.00000000       4.53281069       0.00000000 </v>
     <v>       0.00000000       0.00000000      11.39201851 </v>
    </varray>
    <i name="volume">    204.32354836 </i>
    <varray name="rec_basis" >
     <v>       0.25272595       0.00000000       0.00000000 </v>
     <v>       0.00000000       0.22061367       0.00000000 </v>
     <v>      -0.00000000      -0.00000000       0.08778076 </v>
    </varray>
   </crystal>
   <varray name="positions" >
    <v>       0.25000000       0.36953984       0.62163275 </v>
    <v>       0.75000000       0.63046016       0.37836725 </v>
    <v>       0.75000000       0.86953984       0.87836725 </v>
    <v>       0.25000000       0.13046016       0.12163275 </v>
    <v>       0.25000000       0.01059680       0.34749746 </v>
    <v>       0.75000000       0.98940320       0.65250254 </v>
    <v>       0.75000000       0.51059680       0.15250254 </v>
    <v>       0.25000000       0.48940320       0.84749746 </v>
   </varray>
  </structure>
  <varray name="forces" >
   <v>       0.00000000      -0.03802290       0.04359966 </v>
   <v>      -0.00000000       0.03802290      -0.04359966 </v>
   <v>       0.00000000      -0.03802290      -0.04359966 </v>
   <v>      -0.00000000       0.03802290       0.04359966 </v>
   <v>       0.00000000      -0.02094499      -0.02128037 </v>
   <v>      -0.00000000       0.02094499       0.02128037 </v>
   <v>       0.00000000      -0.02094499       0.02128037 </v>
   <v>      -0.00000000       0.02094499      -0.02128037 </v>
  </varray>
  <energy>
   <i name="e_fr_energy">    -42.51824429 </i>
   <i name="e_wo_entrp">    -42.51824429 </i>
   <i name="e_0_energy">    -42.51824429 </i>
  </energy>
  <time name="totalsc"> 1918.72 1925.48</time>
  <eigenvalues>
   <array>
    <dimension dim="1">band</dimension>
    <dimension dim="2">kpoint</dimension>
    <dimension dim="3">spin</dimension>
    <field>eigene</field>
    <field>occ</field>
    <set>
     <set comment="spin 1">
      <set comment="kpoint 1">
       <r>  -18.1272    1.0000 </r>
       <r>  -18.1142    1.0000 </r>
       <r>  -18.1035    1.0000 </r>
       <r>  -18.0958    1.0000 </r>
       <r>  -18.0940    1.0000 </r>
       <r>  -18.0905    1.0000 </r>
       <r>  -18.0880    1.0000 </r>
       <r>  -18.0842    1.0000 </r>
       <r>  -18.0654    1.0000 </r>
       <r>  -18.0643    1.0000 </r>
       <r>  -18.0525    1.0000 </r>
       <r>  -18.0481    1.0000 </r>
       <r>  -18.0462    1.0000 </r>
       <r>  -18.0414    1.0000 </r>
       <r>  -18.0171    1.0000 </r>
       <r>  -18.0137    1.0000 </r>
       <r>  -18.0102    1.0000 </r>
       <r>  -18.0062    1.0000 </r>
       <r>  -18.0021    1.0000 </r>
       <r>  -17.9991    1.0000 </r>
       <r>   -9.9868    1.0000 </r>
       <r>   -9.7153    1.0000 </r>
       <r>   -8.6482    1.0000 </r>
       <r>   -8.2420    1.0000 </r>
       <r>   -2.6903    1.0000 </r>
       <r>   -1.7087    1.0000 </r>
       <r>   -0.6231    1.0000 </r>
       <r>    0.0834    1.0000 </r>
       <r>    0.2060    1.0000 </r>
       <r>    1.1245    1.0000 </r>
       <r>    1.5356    1.0000 </r>
       <r>    1.5542    1.0000 </r>
       <r>    1.5586    1.0000 </r>
       <r>    1.8766    1.0000 </r>
       <r>    2.7336    1.0000 </r>
       <r>    2.8277    1.0000 </r>
       <r>    3.1409    1.0000 </r>
       <r>    4.0848    1.0000 </r>
       <r>    4.2293    1.0000 </r>
       <r>    4.8832    1.0000 </r>
       <r>    6.9290    0.0000 </r>
       <r>    8.5704    0.0000 </r>
       <r>    8.7268    0.0000 </r>
       <r>    8.8277    0.0000 </r>
       <r>    9.1413    0.0000 </r>
       <r>    9.6788    0.0000 </r>
       <r>    9.7836    0.0000 </r>
       <r>   10.9317    0.0000 </r>
       <r>   11.1690    0.0000 </r>
       <r>   11.5561    0.0000 </r>
       <r>   11.6029    0.0000 </r>
       <r>   12.0926    0.0000 </r>
       <r>   12.5377    0.0000 </r>
       <r>   13.0177    0.0000 </r>
       <r>   13.3307    0.0000 </r>
       <r>   13.5657    0.0000 </r>
       <r>   13.7202    0.0000 </r>
       <r>   14.5038    0.0000 </r>
       <r>   14.6755    0.0000 </r>
       <r>   14.7849    0.0000 </r>
      </set>
      <set comment="kpoint 2">
       <r>  -18.1199    1.0000 </r>
       <r>  -18.1111    1.0000 </r>
       <r>  -18.0990    1.0000 </r>
       <r>  -18.0972    1.0000 </r>
       <r>  -18.0948    1.0000 </r>
       <r>  -18.0897    1.0000 </r>
       <r>  -18.0894    1.0000 </r>
       <r>  -18.0879    1.0000 </r>
       <r>  -18.0636    1.0000 </r>
       <r>  -18.0623    1.0000 </r>
       <r>  -18.0527    1.0000 </r>
       <r>  -18.0509    1.0000 </r>
       <r>  -18.0471    1.0000 </r>
       <r>  -18.0411    1.0000 </r>
       <r>  -18.0221    1.0000 </r>
       <r>  -18.0139    1.0000 </r>
       <r>  -18.0105    1.0000 </r>
       <r>  -18.0059    1.0000 </r>
       <r>  -18.0006    1.0000 </r>
       <r>  -17.9969    1.0000 </r>
       <r>   -9.8001    1.0000 </r>
       <r>   -9.5450    1.0000 </r>
       <r>   -8.5644    1.0000 </r>
       <r>   -8.2147    1.0000 </r>
       <r>   -2.8604    1.0000 </r>
       <r>   -2.0070    1.0000 </r>
       <r>   -0.7049    1.0000 </r>
       <r>   -0.5897    1.0000 </r>
       <r>   -0.0201    1.0000 </r>
       <r>    1.2485    1.0000 </r>
       <r>    1.3420    1.0000 </r>
       <r>    1.6718    1.0000 </r>
       <r>    1.6817    1.0000 </r>
       <r>    1.9023    1.0000 </r>
       <r>    2.7763    1.0000 </r>
       <r>    2.8423    1.0000 </r>
       <r>    3.0694    1.0000 </r>
       <r>    4.2295    1.0000 </r>
       <r>    4.5864    1.0000 </r>
       <r>    4.7596    1.0000 </r>
       <r>    7.1636    0.0000 </r>
       <r>    7.9023    0.0000 </r>
       <r>    8.8806    0.0000 </r>
       <r>    8.9171    0.0000 </r>
       <r>    9.3064    0.0000 </r>
       <r>    9.3340    0.0000 </r>
       <r>    9.9617    0.0000 </r>
       <r>   10.0342    0.0000 </r>
       <r>   10.1682    0.0000 </r>
       <r>   11.6584    0.0000 </r>
       <r>   11.7147    0.0000 </r>
       <r>   11.7942    0.0000 </r>
       <r>   12.0933    0.0000 </r>
       <r>   12.4561    0.0000 </r>
       <r>   12.6935    0.0000 </r>
       <r>   12.8377    0.0000 </r>
       <r>   12.9616    0.0000 </r>
       <r>   14.4000    0.0000 </r>
       <r>   15.0706    0.0000 </r>
       <r>   15.2469    0.0000 </r>
      </set>
      <set comment="kpoint 3">
       <r>  -18.1134    1.0000 </r>
       <r>  -18.1115    1.0000 </r>
       <r>  -18.1080    1.0000 </r>
       <r>  -18.1080    1.0000 </r>
       <r>  -18.0888    1.0000 </r>
       <r>  -18.0830    1.0000 </r>
       <r>  -18.0816    1.0000 </r>
       <r>  -18.0797    1.0000 </r>
       <r>  -18.0616    1.0000 </r>
       <r>  -18.0603    1.0000 </r>
       <r>  -18.0568    1.0000 </r>
       <r>  -18.0507    1.0000 </r>
       <r>  -18.0475    1.0000 </r>
       <r>  -18.0390    1.0000 </r>
       <r>  -18.0304    1.0000 </r>
       <r>  -18.0280    1.0000 </r>
       <r>  -18.0035    1.0000 </r>
       <r>  -17.9988    1.0000 </r>
       <r>  -17.9973    1.0000 </r>
       <r>  -17.9950    1.0000 </r>
       <r>   -9.2959    1.0000 </r>
       <r>   -9.1021    1.0000 </r>
       <r>   -8.4509    1.0000 </r>
       <r>   -8.2767    1.0000 </r>
       <r>   -3.1876    1.0000 </r>
       <r>   -2.5195    1.0000 </r>
       <r>   -2.0052    1.0000 </r>
       <r>   -1.5781    1.0000 </r>
       <r>    0.4736    1.0000 </r>
       <r>    1.3571    1.0000 </r>
       <r>    1.6391    1.0000 </r>
       <r>    1.9919    1.0000 </r>
       <r>    2.0214    1.0000 </r>
       <r>    2.1260    1.0000 </r>
       <r>    2.6855    1.0000 </r>
       <r>    2.9193    1.0000 </r>
       <r>    3.4332    1.0000 </r>
       <r>    4.1449    1.0000 </r>
       <r>    4.3348    1.0000 </r>
       <r>    4.9057    1.0000 </r>
       <r>    6.6250    0.0000 </r>
       <r>    7.7035    0.0000 </r>
       <r>    7.7497    0.0000 </r>
       <r>    7.8740    0.0000 </r>
       <r>    8.4154    0.0000 </r>
       <r>    8.7734    0.0000 </r>
       <r>    9.1900    0.0000 </r>
       <r>    9.6716    0.0000 </r>
       <r>   10.1248    0.0000 </r>
       <r>   10.4551    0.0000 </r>
       <r>   10.8109    0.0000 </r>
       <r>   11.2850    0.0000 </r>
       <r>   12.5794    0.0000 </r>
       <r>   13.4881    0.0000 </r>
       <r>   13.5174    0.0000 </r>
       <r>   13.6925    0.0000 </r>
       <r>   14.1083    0.0000 </r>
       <r>   14.5886    0.0000 </r>
       <r>   14.6312    0.0000 </r>
       <r>   14.9267    0.0000 </r>
      </set>
      <set comment="kpoint 4">
       <r>  -18.1154    1.0000 </r>
       <r>  -18.1154    1.0000 </r>
       <r>  -18.1126    1.0000 </r>
       <r>  -18.1126    1.0000 </r>
       <r>  -18.0798    1.0000 </r>
       <r>  -18.0798    1.0000 </r>
       <r>  -18.0764    1.0000 </r>
       <r>  -18.0764    1.0000 </r>
       <r>  -18.0602    1.0000 </r>
       <r>  -18.0602    1.0000 </r>
       <r>  -18.0563    1.0000 </r>
       <r>  -18.0563    1.0000 </r>
       <r>  -18.0391    1.0000 </r>
       <r>  -18.0391    1.0000 </r>
       <r>  -18.0360    1.0000 </r>
       <r>  -18.0360    1.0000 </r>
       <r>  -17.9969    1.0000 </r>
       <r>  -17.9969    1.0000 </r>
       <r>  -17.9953    1.0000 </r>
       <r>  -17.9953    1.0000 </r>
       <r>   -8.6753    1.0000 </r>
       <r>   -8.6753    1.0000 </r>
       <r>   -8.6246    1.0000 </r>
       <r>   -8.6246    1.0000 </r>
       <r>   -3.0129    1.0000 </r>
       <r>   -3.0129    1.0000 </r>
       <r>   -2.4181    1.0000 </r>
       <r>   -2.4181    1.0000 </r>
       <r>    1.2377    1.0000 </r>
       <r>    1.2377    1.0000 </r>
       <r>    1.9923    1.0000 </r>
       <r>    1.9923    1.0000 </r>
       <r>    2.2979    1.0000 </r>
       <r>    2.2979    1.0000 </r>
       <r>    2.7863    1.0000 </r>
       <r>    2.7863    1.0000 </r>
       <r>    3.9763    1.0000 </r>
       <r>    3.9763    1.0000 </r>
       <r>    4.1416    1.0000 </r>
       <r>    4.1416    1.0000 </r>
       <r>    7.1616    0.0000 </r>
       <r>    7.1616    0.0000 </r>
       <r>    7.3203    0.0000 </r>
       <r>    7.3203    0.0000 </r>
       <r>    8.2602    0.0000 </r>
       <r>    8.2602    0.0000 </r>
       <r>    8.9561    0.0000 </r>
       <r>    8.9561    0.0000 </r>
       <r>    9.6434    0.0000 </r>
       <r>    9.6434    0.0000 </r>
       <r>   10.8693    0.0000 </r>
       <r>   10.8693    0.0000 </r>
       <r>   13.4231    0.0000 </r>
       <r>   13.4231    0.0000 </r>
       <r>   13.6130    0.0000 </r>
       <r>   13.6130    0.0000 </r>
       <r>   15.2683    0.0000 </r>
       <r>   15.2683    0.0000 </r>
       <r>   15.7915    0.0000 </r>
       <r>   15.7915    0.0000 </r>
      </set>
      <set comment="kpoint 5">
       <r>  -18.1243    1.0000 </r>
       <r>  -18.1125    1.0000 </r>
       <r>  -18.1050    1.0000 </r>
       <r>  -18.0973    1.0000 </r>
       <r>  -18.0952    1.0000 </r>
       <r>  -18.0907    1.0000 </r>
       <r>  -18.0906    1.0000 </r>
       <r>  -18.0855    1.0000 </r>
       <r>  -18.0617    1.0000 </r>
       <r>  -18.0600    1.0000 </r>
       <r>  -18.0512    1.0000 </r>
       <r>  -18.0478    1.0000 </r>
       <r>  -18.0457    1.0000 </r>
       <r>  -18.0423    1.0000 </r>
       <r>  -18.0166    1.0000 </r>
       <r>  -18.0129    1.0000 </r>
       <r>  -18.0090    1.0000 </r>
       <r>  -18.0073    1.0000 </r>
       <r>  -18.0042    1.0000 </r>
       <r>  -18.0001    1.0000 </r>
       <r>   -9.8154    1.0000 </r>
       <r>   -9.5539    1.0000 </r>
       <r>   -8.6832    1.0000 </r>
       <r>   -8.3336    1.0000 </r>
       <r>   -3.1428    1.0000 </r>
       <r>   -1.9740    1.0000 </r>
       <r>   -1.4434    1.0000 </r>
       <r>   -0.6673    1.0000 </r>
       <r>    0.0632    1.0000 </r>
       <r>    1.5864    1.0000 </r>
       <r>    1.7620    1.0000 </r>
       <r>    2.0617    1.0000 </r>
       <r>    2.2116    1.0000 </r>
       <r>    2.4232    1.0000 </r>
       <r>    2.7790    1.0000 </r>
       <r>    3.1289    1.0000 </r>
       <r>    3.5373    1.0000 </r>
       <r>    3.7413    1.0000 </r>
       <r>    4.7422    1.0000 </r>
       <r>    4.8352    1.0000 </r>
       <r>    7.2486    0.0000 </r>
       <r>    7.6701    0.0000 </r>
       <r>    8.6867    0.0000 </r>
       <r>    8.7245    0.0000 </r>
       <r>    8.9010    0.0000 </r>
       <r>    9.0917    0.0000 </r>
       <r>   10.1496    0.0000 </r>
       <r>   10.3193    0.0000 </r>
       <r>   10.3721    0.0000 </r>
       <r>   11.2007    0.0000 </r>
       <r>   11.5757    0.0000 </r>
       <r>   11.6230    0.0000 </r>
       <r>   12.4002    0.0000 </r>
       <r>   12.9552    0.0000 </r>
       <r>   13.0873    0.0000 </r>
       <r>   13.4360    0.0000 </r>
       <r>   13.7324    0.0000 </r>
       <r>   14.0465    0.0000 </r>
       <r>   14.8994    0.0000 </r>
       <r>   15.2647    0.0000 </r>
      </set>
      <set comment="kpoint 6">
       <r>  -18.1182    1.0000 </r>
       <r>  -18.1102    1.0000 </r>
       <r>  -18.1016    1.0000 </r>
       <r>  -18.0989    1.0000 </r>
       <r>  -18.0955    1.0000 </r>
       <r>  -18.0911    1.0000 </r>
       <r>  -18.0898    1.0000 </r>
       <r>  -18.0895    1.0000 </r>
       <r>  -18.0608    1.0000 </r>
       <r>  -18.0582    1.0000 </r>
       <r>  -18.0511    1.0000 </r>
       <r>  -18.0505    1.0000 </r>
       <r>  -18.0476    1.0000 </r>
       <r>  -18.0407    1.0000 </r>
       <r>  -18.0213    1.0000 </r>
       <r>  -18.0146    1.0000 </r>
       <r>  -18.0103    1.0000 </r>
       <r>  -18.0049    1.0000 </r>
       <r>  -18.0028    1.0000 </r>
       <r>  -17.9971    1.0000 </r>
       <r>   -9.6357    1.0000 </r>
       <r>   -9.3914    1.0000 </r>
       <r>   -8.5934    1.0000 </r>
       <r>   -8.2895    1.0000 </r>
       <r>   -3.1043    1.0000 </r>
       <r>   -2.0531    1.0000 </r>
       <r>   -1.4664    1.0000 </r>
       <r>   -0.9142    1.0000 </r>
       <r>    0.1740    1.0000 </r>
       <r>    0.7048    1.0000 </r>
       <r>    1.0075    1.0000 </r>
       <r>    1.9673    1.0000 </r>
       <r>    2.2141    1.0000 </r>
       <r>    2.5506    1.0000 </r>
       <r>    2.6926    1.0000 </r>
       <r>    2.7420    1.0000 </r>
       <r>    3.7196    1.0000 </r>
       <r>    3.8749    1.0000 </r>
       <r>    4.7885    1.0000 </r>
       <r>    4.8735    1.0000 </r>
       <r>    7.4068    0.0000 </r>
       <r>    7.9976    0.0000 </r>
       <r>    8.3186    0.0000 </r>
       <r>    8.3618    0.0000 </r>
       <r>    9.0683    0.0000 </r>
       <r>    9.1055    0.0000 </r>
       <r>   10.0533    0.0000 </r>
       <r>   10.1167    0.0000 </r>
       <r>   10.3820    0.0000 </r>
       <r>   10.8690    0.0000 </r>
       <r>   11.0185    0.0000 </r>
       <r>   12.1095    0.0000 </r>
       <r>   12.2376    0.0000 </r>
       <r>   13.3861    0.0000 </r>
       <r>   13.4788    0.0000 </r>
       <r>   13.7356    0.0000 </r>
       <r>   13.8677    0.0000 </r>
       <r>   14.4736    0.0000 </r>
       <r>   14.7036    0.0000 </r>
       <r>   15.1544    0.0000 </r>
      </set>
      <set comment="kpoint 7">
       <r>  -18.1172    1.0000 </r>
       <r>  -18.1120    1.0000 </r>
       <r>  -18.1114    1.0000 </r>
       <r>  -18.1095    1.0000 </r>
       <r>  -18.0895    1.0000 </r>
       <r>  -18.0828    1.0000 </r>
       <r>  -18.0828    1.0000 </r>
       <r>  -18.0801    1.0000 </r>
       <r>  -18.0598    1.0000 </r>
       <r>  -18.0567    1.0000 </r>
       <r>  -18.0566    1.0000 </r>
       <r>  -18.0496    1.0000 </r>
       <r>  -18.0462    1.0000 </r>
       <r>  -18.0391    1.0000 </r>
       <r>  -18.0289    1.0000 </r>
       <r>  -18.0268    1.0000 </r>
       <r>  -18.0039    1.0000 </r>
       <r>  -17.9995    1.0000 </r>
       <r>  -17.9979    1.0000 </r>
       <r>  -17.9941    1.0000 </r>
       <r>   -9.1592    1.0000 </r>
       <r>   -8.9779    1.0000 </r>
       <r>   -8.4514    1.0000 </r>
       <r>   -8.2927    1.0000 </r>
       <r>   -3.0770    1.0000 </r>
       <r>   -2.3547    1.0000 </r>
       <r>   -1.9756    1.0000 </r>
       <r>   -1.7157    1.0000 </r>
       <r>    0.3090    1.0000 </r>
       <r>    0.6502    1.0000 </r>
       <r>    0.7653    1.0000 </r>
       <r>    1.5054    1.0000 </r>
       <r>    2.0509    1.0000 </r>
       <r>    2.3807    1.0000 </r>
       <r>    2.4613    1.0000 </r>
       <r>    2.8866    1.0000 </r>
       <r>    3.1929    1.0000 </r>
       <r>    4.1242    1.0000 </r>
       <r>    4.2775    1.0000 </r>
       <r>    4.3664    1.0000 </r>
       <r>    7.1211    0.0000 </r>
       <r>    7.6961    0.0000 </r>
       <r>    7.7800    0.0000 </r>
       <r>    8.3142    0.0000 </r>
       <r>    9.1064    0.0000 </r>
       <r>    9.5667    0.0000 </r>
       <r>    9.8853    0.0000 </r>
       <r>   10.2818    0.0000 </r>
       <r>   10.3095    0.0000 </r>
       <r>   10.4145    0.0000 </r>
       <r>   11.4715    0.0000 </r>
       <r>   11.6885    0.0000 </r>
       <r>   12.0734    0.0000 </r>
       <r>   12.8521    0.0000 </r>
       <r>   13.9385    0.0000 </r>
       <r>   14.0045    0.0000 </r>
       <r>   14.2510    0.0000 </r>
       <r>   14.5752    0.0000 </r>
       <r>   15.0111    0.0000 </r>
       <r>   15.4935    0.0000 </r>
      </set>
      <set comment="kpoint 8">
       <r>  -18.1193    1.0000 </r>
       <r>  -18.1193    1.0000 </r>
       <r>  -18.1148    1.0000 </r>
       <r>  -18.1148    1.0000 </r>
       <r>  -18.0808    1.0000 </r>
       <r>  -18.0808    1.0000 </r>
       <r>  -18.0764    1.0000 </r>
       <r>  -18.0764    1.0000 </r>
       <r>  -18.0588    1.0000 </r>
       <r>  -18.0588    1.0000 </r>
       <r>  -18.0541    1.0000 </r>
       <r>  -18.0541    1.0000 </r>
       <r>  -18.0403    1.0000 </r>
       <r>  -18.0403    1.0000 </r>
       <r>  -18.0324    1.0000 </r>
       <r>  -18.0324    1.0000 </r>
       <r>  -17.9985    1.0000 </r>
       <r>  -17.9985    1.0000 </r>
       <r>  -17.9939    1.0000 </r>
       <r>  -17.9939    1.0000 </r>
       <r>   -8.6026    1.0000 </r>
       <r>   -8.6026    1.0000 </r>
       <r>   -8.5609    1.0000 </r>
       <r>   -8.5609    1.0000 </r>
       <r>   -2.8128    1.0000 </r>
       <r>   -2.8128    1.0000 </r>
       <r>   -2.3246    1.0000 </r>
       <r>   -2.3246    1.0000 </r>
       <r>    0.8280    1.0000 </r>
       <r>    0.8280    1.0000 </r>
       <r>    1.2886    1.0000 </r>
       <r>    1.2886    1.0000 </r>
       <r>    1.8234    1.0000 </r>
       <r>    1.8234    1.0000 </r>
       <r>    2.6272    1.0000 </r>
       <r>    2.6272    1.0000 </r>
       <r>    3.1963    1.0000 </r>
       <r>    3.1963    1.0000 </r>
       <r>    4.3371    1.0000 </r>
       <r>    4.3371    1.0000 </r>
       <r>    7.0168    0.0000 </r>
       <r>    7.0168    0.0000 </r>
       <r>    8.2730    0.0000 </r>
       <r>    8.2730    0.0000 </r>
       <r>    9.3763    0.0000 </r>
       <r>    9.3763    0.0000 </r>
       <r>   10.0731    0.0000 </r>
       <r>   10.0731    0.0000 </r>
       <r>   10.4535    0.0000 </r>
       <r>   10.4535    0.0000 </r>
       <r>   10.7356    0.0000 </r>
       <r>   10.7356    0.0000 </r>
       <r>   12.1902    0.0000 </r>
       <r>   12.1902    0.0000 </r>
       <r>   14.0376    0.0000 </r>
       <r>   14.0376    0.0000 </r>
       <r>   15.5429    0.0000 </r>
       <r>   15.5429    0.0000 </r>
       <r>   16.1117    0.0000 </r>
       <r>   16.1117    0.0000 </r>
      </set>
      <set comment="kpoint 9">
       <r>  -18.1173    1.0000 </r>
       <r>  -18.1098    1.0000 </r>
       <r>  -18.1080    1.0000 </r>
       <r>  -18.1020    1.0000 </r>
       <r>  -18.0966    1.0000 </r>
       <r>  -18.0949    1.0000 </r>
       <r>  -18.0905    1.0000 </r>
       <r>  -18.0885    1.0000 </r>
       <r>  -18.0540    1.0000 </r>
       <r>  -18.0518    1.0000 </r>
       <r>  -18.0489    1.0000 </r>
       <r>  -18.0482    1.0000 </r>
       <r>  -18.0463    1.0000 </r>
       <r>  -18.0447    1.0000 </r>
       <r>  -18.0143    1.0000 </r>
       <r>  -18.0109    1.0000 </r>
       <r>  -18.0103    1.0000 </r>
       <r>  -18.0081    1.0000 </r>
       <r>  -18.0061    1.0000 </r>
       <r>  -18.0027    1.0000 </r>
       <r>   -9.3750    1.0000 </r>
       <r>   -9.1341    1.0000 </r>
       <r>   -8.9080    1.0000 </r>
       <r>   -8.6503    1.0000 </r>
       <r>   -3.4344    1.0000 </r>
       <r>   -2.8130    1.0000 </r>
       <r>   -2.1580    1.0000 </r>
       <r>   -1.6420    1.0000 </r>
       <r>    0.6921    1.0000 </r>
       <r>    1.6530    1.0000 </r>
       <r>    2.2714    1.0000 </r>
       <r>    2.5132    1.0000 </r>
       <r>    2.7106    1.0000 </r>
       <r>    2.9492    1.0000 </r>
       <r>    2.9728    1.0000 </r>
       <r>    3.0576    1.0000 </r>
       <r>    3.6280    1.0000 </r>
       <r>    4.5851    1.0000 </r>
       <r>    4.9789    1.0000 </r>
       <r>    5.2151    1.0000 </r>
       <r>    7.2333    0.0000 </r>
       <r>    7.5158    0.0000 </r>
       <r>    7.9294    0.0000 </r>
       <r>    8.1841    0.0000 </r>
       <r>    8.4872    0.0000 </r>
       <r>    8.6265    0.0000 </r>
       <r>    8.9984    0.0000 </r>
       <r>    9.7988    0.0000 </r>
       <r>    9.8589    0.0000 </r>
       <r>   10.3663    0.0000 </r>
       <r>   11.3069    0.0000 </r>
       <r>   12.0063    0.0000 </r>
       <r>   13.0876    0.0000 </r>
       <r>   13.4658    0.0000 </r>
       <r>   13.8813    0.0000 </r>
       <r>   14.2410    0.0000 </r>
       <r>   14.2930    0.0000 </r>
       <r>   14.3066    0.0000 </r>
       <r>   14.9601    0.0000 </r>
       <r>   15.3817    0.0000 </r>
      </set>
      <set comment="kpoint 10">
       <r>  -18.1136    1.0000 </r>
       <r>  -18.1075    1.0000 </r>
       <r>  -18.1074    1.0000 </r>
       <r>  -18.1030    1.0000 </r>
       <r>  -18.0964    1.0000 </r>
       <r>  -18.0947    1.0000 </r>
       <r>  -18.0913    1.0000 </r>
       <r>  -18.0906    1.0000 </r>
       <r>  -18.0554    1.0000 </r>
       <r>  -18.0520    1.0000 </r>
       <r>  -18.0513    1.0000 </r>
       <r>  -18.0478    1.0000 </r>
       <r>  -18.0464    1.0000 </r>
       <r>  -18.0418    1.0000 </r>
       <r>  -18.0190    1.0000 </r>
       <r>  -18.0164    1.0000 </r>
       <r>  -18.0090    1.0000 </r>
       <r>  -18.0063    1.0000 </r>
       <r>  -18.0022    1.0000 </r>
       <r>  -17.9991    1.0000 </r>
       <r>   -9.2196    1.0000 </r>
       <r>   -8.9983    1.0000 </r>
       <r>   -8.7916    1.0000 </r>
       <r>   -8.5611    1.0000 </r>
       <r>   -3.2469    1.0000 </r>
       <r>   -2.6496    1.0000 </r>
       <r>   -2.0571    1.0000 </r>
       <r>   -1.6126    1.0000 </r>
       <r>    0.8189    1.0000 </r>
       <r>    0.9431    1.0000 </r>
       <r>    1.1997    1.0000 </r>
       <r>    1.8120    1.0000 </r>
       <r>    1.9139    1.0000 </r>
       <r>    2.1615    1.0000 </r>
       <r>    2.7984    1.0000 </r>
       <r>    3.1190    1.0000 </r>
       <r>    4.0626    1.0000 </r>
       <r>    4.0807    1.0000 </r>
       <r>    4.6866    1.0000 </r>
       <r>    4.8712    1.0000 </r>
       <r>    7.4387    0.0000 </r>
       <r>    7.8082    0.0000 </r>
       <r>    8.0705    0.0000 </r>
       <r>    8.6299    0.0000 </r>
       <r>    9.2481    0.0000 </r>
       <r>    9.3138    0.0000 </r>
       <r>    9.5828    0.0000 </r>
       <r>   10.0551    0.0000 </r>
       <r>   10.5253    0.0000 </r>
       <r>   10.6850    0.0000 </r>
       <r>   11.1620    0.0000 </r>
       <r>   11.8081    0.0000 </r>
       <r>   12.3777    0.0000 </r>
       <r>   13.0604    0.0000 </r>
       <r>   13.8628    0.0000 </r>
       <r>   14.0167    0.0000 </r>
       <r>   14.4426    0.0000 </r>
       <r>   14.9236    0.0000 </r>
       <r>   15.2767    0.0000 </r>
       <r>   15.9918    0.0000 </r>
      </set>
      <set comment="kpoint 11">
       <r>  -18.1207    1.0000 </r>
       <r>  -18.1185    1.0000 </r>
       <r>  -18.1130    1.0000 </r>
       <r>  -18.1125    1.0000 </r>
       <r>  -18.0890    1.0000 </r>
       <r>  -18.0860    1.0000 </r>
       <r>  -18.0822    1.0000 </r>
       <r>  -18.0811    1.0000 </r>
       <r>  -18.0569    1.0000 </r>
       <r>  -18.0562    1.0000 </r>
       <r>  -18.0513    1.0000 </r>
       <r>  -18.0486    1.0000 </r>
       <r>  -18.0426    1.0000 </r>
       <r>  -18.0401    1.0000 </r>
       <r>  -18.0261    1.0000 </r>
       <r>  -18.0251    1.0000 </r>
       <r>  -18.0038    1.0000 </r>
       <r>  -18.0022    1.0000 </r>
       <r>  -17.9959    1.0000 </r>
       <r>  -17.9943    1.0000 </r>
       <r>   -8.8347    1.0000 </r>
       <r>   -8.6828    1.0000 </r>
       <r>   -8.5474    1.0000 </r>
       <r>   -8.4094    1.0000 </r>
       <r>   -2.8077    1.0000 </r>
       <r>   -2.3482    1.0000 </r>
       <r>   -2.0260    1.0000 </r>
       <r>   -1.8278    1.0000 </r>
       <r>   -0.1202    1.0000 </r>
       <r>    0.4507    1.0000 </r>
       <r>    0.4981    1.0000 </r>
       <r>    1.1376    1.0000 </r>
       <r>    1.2302    1.0000 </r>
       <r>    1.9372    1.0000 </r>
       <r>    1.9781    1.0000 </r>
       <r>    2.6139    1.0000 </r>
       <r>    2.9056    1.0000 </r>
       <r>    3.4335    1.0000 </r>
       <r>    4.0511    1.0000 </r>
       <r>    4.1673    1.0000 </r>
       <r>    7.3090    0.0000 </r>
       <r>    8.5425    0.0000 </r>
       <r>    9.0832    0.0000 </r>
       <r>    9.2227    0.0000 </r>
       <r>   10.0458    0.0000 </r>
       <r>   10.1494    0.0000 </r>
       <r>   10.4700    0.0000 </r>
       <r>   10.8435    0.0000 </r>
       <r>   10.8712    0.0000 </r>
       <r>   11.1597    0.0000 </r>
       <r>   11.6522    0.0000 </r>
       <r>   12.0254    0.0000 </r>
       <r>   12.0758    0.0000 </r>
       <r>   12.1143    0.0000 </r>
       <r>   13.5592    0.0000 </r>
       <r>   13.9190    0.0000 </r>
       <r>   15.3904    0.0000 </r>
       <r>   15.5654    0.0000 </r>
       <r>   15.8933    0.0000 </r>
       <r>   16.1351    0.0000 </r>
      </set>
      <set comment="kpoint 12">
       <r>  -18.1253    1.0000 </r>
       <r>  -18.1253    1.0000 </r>
       <r>  -18.1185    1.0000 </r>
       <r>  -18.1185    1.0000 </r>
       <r>  -18.0823    1.0000 </r>
       <r>  -18.0823    1.0000 </r>
       <r>  -18.0765    1.0000 </r>
       <r>  -18.0765    1.0000 </r>
       <r>  -18.0567    1.0000 </r>
       <r>  -18.0567    1.0000 </r>
       <r>  -18.0516    1.0000 </r>
       <r>  -18.0516    1.0000 </r>
       <r>  -18.0398    1.0000 </r>
       <r>  -18.0398    1.0000 </r>
       <r>  -18.0283    1.0000 </r>
       <r>  -18.0283    1.0000 </r>
       <r>  -17.9999    1.0000 </r>
       <r>  -17.9999    1.0000 </r>
       <r>  -17.9928    1.0000 </r>
       <r>  -17.9928    1.0000 </r>
       <r>   -8.4741    1.0000 </r>
       <r>   -8.4741    1.0000 </r>
       <r>   -8.4571    1.0000 </r>
       <r>   -8.4571    1.0000 </r>
       <r>   -2.3915    1.0000 </r>
       <r>   -2.3915    1.0000 </r>
       <r>   -2.2016    1.0000 </r>
       <r>   -2.2016    1.0000 </r>
       <r>    0.0776    1.0000 </r>
       <r>    0.0776    1.0000 </r>
       <r>    0.7468    1.0000 </r>
       <r>    0.7468    1.0000 </r>
       <r>    1.1992    1.0000 </r>
       <r>    1.1992    1.0000 </r>
       <r>    1.8305    1.0000 </r>
       <r>    1.8305    1.0000 </r>
       <r>    2.8290    1.0000 </r>
       <r>    2.8290    1.0000 </r>
       <r>    3.8585    1.0000 </r>
       <r>    3.8585    1.0000 </r>
       <r>    8.1748    0.0000 </r>
       <r>    8.1748    0.0000 </r>
       <r>    9.1649    0.0000 </r>
       <r>    9.1649    0.0000 </r>
       <r>   10.2526    0.0000 </r>
       <r>   10.2526    0.0000 </r>
       <r>   10.4758    0.0000 </r>
       <r>   10.4758    0.0000 </r>
       <r>   11.3627    0.0000 </r>
       <r>   11.3627    0.0000 </r>
       <r>   12.3110    0.0000 </r>
       <r>   12.3110    0.0000 </r>
       <r>   12.4083    0.0000 </r>
       <r>   12.4083    0.0000 </r>
       <r>   13.5940    0.0000 </r>
       <r>   13.5940    0.0000 </r>
       <r>   15.3503    0.0000 </r>
       <r>   15.3503    0.0000 </r>
       <r>   16.3766    0.0000 </r>
       <r>   16.3766    0.0000 </r>
      </set>
      <set comment="kpoint 13">
       <r>  -18.1218    1.0000 </r>
       <r>  -18.1218    1.0000 </r>
       <r>  -18.0987    1.0000 </r>
       <r>  -18.0987    1.0000 </r>
       <r>  -18.0927    1.0000 </r>
       <r>  -18.0927    1.0000 </r>
       <r>  -18.0856    1.0000 </r>
       <r>  -18.0856    1.0000 </r>
       <r>  -18.0646    1.0000 </r>
       <r>  -18.0646    1.0000 </r>
       <r>  -18.0476    1.0000 </r>
       <r>  -18.0476    1.0000 </r>
       <r>  -18.0474    1.0000 </r>
       <r>  -18.0474    1.0000 </r>
       <r>  -18.0153    1.0000 </r>
       <r>  -18.0153    1.0000 </r>
       <r>  -18.0042    1.0000 </r>
       <r>  -18.0042    1.0000 </r>
       <r>  -18.0039    1.0000 </r>
       <r>  -18.0039    1.0000 </r>
       <r>   -9.8696    1.0000 </r>
       <r>   -9.8696    1.0000 </r>
       <r>   -8.4270    1.0000 </r>
       <r>   -8.4270    1.0000 </r>
       <r>   -2.3522    1.0000 </r>
       <r>   -2.3522    1.0000 </r>
       <r>    0.0401    1.0000 </r>
       <r>    0.0401    1.0000 </r>
       <r>    0.4240    1.0000 </r>
       <r>    0.4240    1.0000 </r>
       <r>    1.6897    1.0000 </r>
       <r>    1.6897    1.0000 </r>
       <r>    1.8863    1.0000 </r>
       <r>    1.8863    1.0000 </r>
       <r>    2.8765    1.0000 </r>
       <r>    2.8765    1.0000 </r>
       <r>    2.9628    1.0000 </r>
       <r>    2.9628    1.0000 </r>
       <r>    4.6352    1.0000 </r>
       <r>    4.6352    1.0000 </r>
       <r>    8.3593    0.0000 </r>
       <r>    8.3593    0.0000 </r>
       <r>    8.5126    0.0000 </r>
       <r>    8.5126    0.0000 </r>
       <r>    9.8489    0.0000 </r>
       <r>    9.8489    0.0000 </r>
       <r>   10.1250    0.0000 </r>
       <r>   10.1250    0.0000 </r>
       <r>   10.8463    0.0000 </r>
       <r>   10.8463    0.0000 </r>
       <r>   12.0785    0.0000 </r>
       <r>   12.0785    0.0000 </r>
       <r>   12.3519    0.0000 </r>
       <r>   12.3519    0.0000 </r>
       <r>   13.6260    0.0000 </r>
       <r>   13.6260    0.0000 </r>
       <r>   14.1966    0.0000 </r>
       <r>   14.1966    0.0000 </r>
       <r>   14.4320    0.0000 </r>
       <r>   14.4320    0.0000 </r>
      </set>
      <set comment="kpoint 14">
       <r>  -18.1159    1.0000 </r>
       <r>  -18.1159    1.0000 </r>
       <r>  -18.0982    1.0000 </r>
       <r>  -18.0982    1.0000 </r>
       <r>  -18.0921    1.0000 </r>
       <r>  -18.0921    1.0000 </r>
       <r>  -18.0884    1.0000 </r>
       <r>  -18.0884    1.0000 </r>
       <r>  -18.0622    1.0000 </r>
       <r>  -18.0622    1.0000 </r>
       <r>  -18.0528    1.0000 </r>
       <r>  -18.0528    1.0000 </r>
       <r>  -18.0443    1.0000 </r>
       <r>  -18.0443    1.0000 </r>
       <r>  -18.0188    1.0000 </r>
       <r>  -18.0188    1.0000 </r>
       <r>  -18.0060    1.0000 </r>
       <r>  -18.0060    1.0000 </r>
       <r>  -17.9997    1.0000 </r>
       <r>  -17.9997    1.0000 </r>
       <r>   -9.6895    1.0000 </r>
       <r>   -9.6895    1.0000 </r>
       <r>   -8.3723    1.0000 </r>
       <r>   -8.3723    1.0000 </r>
       <r>   -2.5437    1.0000 </r>
       <r>   -2.5437    1.0000 </r>
       <r>   -0.5615    1.0000 </r>
       <r>   -0.5615    1.0000 </r>
       <r>    0.6061    1.0000 </r>
       <r>    0.6061    1.0000 </r>
       <r>    1.4319    1.0000 </r>
       <r>    1.4319    1.0000 </r>
       <r>    2.1105    1.0000 </r>
       <r>    2.1105    1.0000 </r>
       <r>    2.7332    1.0000 </r>
       <r>    2.7332    1.0000 </r>
       <r>    3.2377    1.0000 </r>
       <r>    3.2377    1.0000 </r>
       <r>    4.7277    1.0000 </r>
       <r>    4.7277    1.0000 </r>
       <r>    8.2227    0.0000 </r>
       <r>    8.2227    0.0000 </r>
       <r>    8.8069    0.0000 </r>
       <r>    8.8069    0.0000 </r>
       <r>    9.1880    0.0000 </r>
       <r>    9.1880    0.0000 </r>
       <r>    9.8048    0.0000 </r>
       <r>    9.8048    0.0000 </r>
       <r>   11.0212    0.0000 </r>
       <r>   11.0212    0.0000 </r>
       <r>   11.4648    0.0000 </r>
       <r>   11.4648    0.0000 </r>
       <r>   12.1708    0.0000 </r>
       <r>   12.1708    0.0000 </r>
       <r>   12.6590    0.0000 </r>
       <r>   12.6590    0.0000 </r>
       <r>   13.4205    0.0000 </r>
       <r>   13.4205    0.0000 </r>
       <r>   15.0258    0.0000 </r>
       <r>   15.0258    0.0000 </r>
      </set>
      <set comment="kpoint 15">
       <r>  -18.1128    1.0000 </r>
       <r>  -18.1128    1.0000 </r>
       <r>  -18.1076    1.0000 </r>
       <r>  -18.1076    1.0000 </r>
       <r>  -18.0866    1.0000 </r>
       <r>  -18.0866    1.0000 </r>
       <r>  -18.0802    1.0000 </r>
       <r>  -18.0802    1.0000 </r>
       <r>  -18.0588    1.0000 </r>
       <r>  -18.0588    1.0000 </r>
       <r>  -18.0570    1.0000 </r>
       <r>  -18.0570    1.0000 </r>
       <r>  -18.0417    1.0000 </r>
       <r>  -18.0417    1.0000 </r>
       <r>  -18.0294    1.0000 </r>
       <r>  -18.0294    1.0000 </r>
       <r>  -18.0011    1.0000 </r>
       <r>  -18.0011    1.0000 </r>
       <r>  -17.9961    1.0000 </r>
       <r>  -17.9961    1.0000 </r>
       <r>   -9.2105    1.0000 </r>
       <r>   -9.2105    1.0000 </r>
       <r>   -8.3516    1.0000 </r>
       <r>   -8.3516    1.0000 </r>
       <r>   -2.9074    1.0000 </r>
       <r>   -2.9074    1.0000 </r>
       <r>   -1.7998    1.0000 </r>
       <r>   -1.7998    1.0000 </r>
       <r>    1.1571    1.0000 </r>
       <r>    1.1571    1.0000 </r>
       <r>    1.5194    1.0000 </r>
       <r>    1.5194    1.0000 </r>
       <r>    2.4262    1.0000 </r>
       <r>    2.4262    1.0000 </r>
       <r>    2.6720    1.0000 </r>
       <r>    2.6720    1.0000 </r>
       <r>    3.5067    1.0000 </r>
       <r>    3.5067    1.0000 </r>
       <r>    4.5795    1.0000 </r>
       <r>    4.5795    1.0000 </r>
       <r>    7.1614    0.0000 </r>
       <r>    7.1614    0.0000 </r>
       <r>    8.2424    0.0000 </r>
       <r>    8.2424    0.0000 </r>
       <r>    8.9077    0.0000 </r>
       <r>    8.9077    0.0000 </r>
       <r>    9.4733    0.0000 </r>
       <r>    9.4733    0.0000 </r>
       <r>    9.8237    0.0000 </r>
       <r>    9.8237    0.0000 </r>
       <r>   10.6144    0.0000 </r>
       <r>   10.6144    0.0000 </r>
       <r>   13.2144    0.0000 </r>
       <r>   13.2144    0.0000 </r>
       <r>   13.4786    0.0000 </r>
       <r>   13.4786    0.0000 </r>
       <r>   14.3282    0.0000 </r>
       <r>   14.3282    0.0000 </r>
       <r>   15.3837    0.0000 </r>
       <r>   15.3841    0.0000 </r>
      </set>
      <set comment="kpoint 16">
       <r>  -18.1141    1.0000 </r>
       <r>  -18.1141    1.0000 </r>
       <r>  -18.1141    1.0000 </r>
       <r>  -18.1141    1.0000 </r>
       <r>  -18.0782    1.0000 </r>
       <r>  -18.0782    1.0000 </r>
       <r>  -18.0782    1.0000 </r>
       <r>  -18.0782    1.0000 </r>
       <r>  -18.0581    1.0000 </r>
       <r>  -18.0581    1.0000 </r>
       <r>  -18.0581    1.0000 </r>
       <r>  -18.0581    1.0000 </r>
       <r>  -18.0376    1.0000 </r>
       <r>  -18.0376    1.0000 </r>
       <r>  -18.0376    1.0000 </r>
       <r>  -18.0376    1.0000 </r>
       <r>  -17.9961    1.0000 </r>
       <r>  -17.9961    1.0000 </r>
       <r>  -17.9961    1.0000 </r>
       <r>  -17.9961    1.0000 </r>
       <r>   -8.6503    1.0000 </r>
       <r>   -8.6503    1.0000 </r>
       <r>   -8.6503    1.0000 </r>
       <r>   -8.6503    1.0000 </r>
       <r>   -2.7440    1.0000 </r>
       <r>   -2.7440    1.0000 </r>
       <r>   -2.7440    1.0000 </r>
       <r>   -2.7440    1.0000 </r>
       <r>    1.7222    1.0000 </r>
       <r>    1.7222    1.0000 </r>
       <r>    1.7222    1.0000 </r>
       <r>    1.7222    1.0000 </r>
       <r>    2.4890    1.0000 </r>
       <r>    2.4890    1.0000 </r>
       <r>    2.4890    1.0000 </r>
       <r>    2.4890    1.0000 </r>
       <r>    3.9387    1.0000 </r>
       <r>    3.9387    1.0000 </r>
       <r>    3.9387    1.0000 </r>
       <r>    3.9387    1.0000 </r>
       <r>    7.4291    0.0000 </r>
       <r>    7.4291    0.0000 </r>
       <r>    7.4291    0.0000 </r>
       <r>    7.4291    0.0000 </r>
       <r>    8.6302    0.0000 </r>
       <r>    8.6302    0.0000 </r>
       <r>    8.6302    0.0000 </r>
       <r>    8.6302    0.0000 </r>
       <r>    9.9432    0.0000 </r>
       <r>    9.9432    0.0000 </r>
       <r>    9.9432    0.0000 </r>
       <r>    9.9432    0.0000 </r>
       <r>   14.2350    0.0000 </r>
       <r>   14.2350    0.0000 </r>
       <r>   14.2350    0.0000 </r>
       <r>   14.2350    0.0000 </r>
       <r>   15.0783    0.0000 </r>
       <r>   15.0783    0.0000 </r>
       <r>   15.0783    0.0000 </r>
       <r>   15.0783    0.0000 </r>
      </set>
      <set comment="kpoint 17">
       <r>  -18.1196    1.0000 </r>
       <r>  -18.1196    1.0000 </r>
       <r>  -18.1001    1.0000 </r>
       <r>  -18.1001    1.0000 </r>
       <r>  -18.0939    1.0000 </r>
       <r>  -18.0939    1.0000 </r>
       <r>  -18.0871    1.0000 </r>
       <r>  -18.0871    1.0000 </r>
       <r>  -18.0607    1.0000 </r>
       <r>  -18.0607    1.0000 </r>
       <r>  -18.0472    1.0000 </r>
       <r>  -18.0472    1.0000 </r>
       <r>  -18.0470    1.0000 </r>
       <r>  -18.0470    1.0000 </r>
       <r>  -18.0146    1.0000 </r>
       <r>  -18.0146    1.0000 </r>
       <r>  -18.0058    1.0000 </r>
       <r>  -18.0058    1.0000 </r>
       <r>  -18.0041    1.0000 </r>
       <r>  -18.0041    1.0000 </r>
       <r>   -9.7035    1.0000 </r>
       <r>   -9.7035    1.0000 </r>
       <r>   -8.4897    1.0000 </r>
       <r>   -8.4897    1.0000 </r>
       <r>   -2.7491    1.0000 </r>
       <r>   -2.7491    1.0000 </r>
       <r>   -0.9284    1.0000 </r>
       <r>   -0.9284    1.0000 </r>
       <r>    0.9179    1.0000 </r>
       <r>    0.9179    1.0000 </r>
       <r>    1.8874    1.0000 </r>
       <r>    1.8874    1.0000 </r>
       <r>    2.2680    1.0000 </r>
       <r>    2.2680    1.0000 </r>
       <r>    2.9783    1.0000 </r>
       <r>    2.9783    1.0000 </r>
       <r>    3.7521    1.0000 </r>
       <r>    3.7521    1.0000 </r>
       <r>    4.4450    1.0000 </r>
       <r>    4.4450    1.0000 </r>
       <r>    8.0343    0.0000 </r>
       <r>    8.0343    0.0000 </r>
       <r>    8.6726    0.0000 </r>
       <r>    8.6726    0.0000 </r>
       <r>    9.4528    0.0000 </r>
       <r>    9.4528    0.0000 </r>
       <r>    9.4569    0.0000 </r>
       <r>    9.4569    0.0000 </r>
       <r>   11.0176    0.0000 </r>
       <r>   11.0176    0.0000 </r>
       <r>   11.2345    0.0000 </r>
       <r>   11.2345    0.0000 </r>
       <r>   12.3899    0.0000 </r>
       <r>   12.3899    0.0000 </r>
       <r>   13.5707    0.0000 </r>
       <r>   13.5707    0.0000 </r>
       <r>   14.2614    0.0000 </r>
       <r>   14.2614    0.0000 </r>
       <r>   14.4196    0.0000 </r>
       <r>   14.4196    0.0000 </r>
      </set>
      <set comment="kpoint 18">
       <r>  -18.1146    1.0000 </r>
       <r>  -18.1146    1.0000 </r>
       <r>  -18.1005    1.0000 </r>
       <r>  -18.1005    1.0000 </r>
       <r>  -18.0928    1.0000 </r>
       <r>  -18.0928    1.0000 </r>
       <r>  -18.0896    1.0000 </r>
       <r>  -18.0896    1.0000 </r>
       <r>  -18.0588    1.0000 </r>
       <r>  -18.0588    1.0000 </r>
       <r>  -18.0521    1.0000 </r>
       <r>  -18.0521    1.0000 </r>
       <r>  -18.0438    1.0000 </r>
       <r>  -18.0438    1.0000 </r>
[...]
        <r>  0.0017  0.0059  0.0109  0.0020  0.0001  0.0009  0.0012  0.0000  0.0000 </r>
        <r>  0.0018  0.0065  0.0034  0.0260  0.0017  0.0002  0.0007  0.0009  0.0000 </r>
        <r>  0.0002  0.0046  0.0184  0.0877  0.0000  0.0000  0.0000  0.0000  0.0000 </r>
        <r>  0.0001  0.0016  0.0497  0.0051  0.0000  0.0000  0.0000  0.0000  0.0000 </r>
        <r>  0.0035  0.0597  0.0718  0.0119  0.0000  0.0000  0.0000  0.0000  0.0000 </r>
        <r>  0.0004  0.0054  0.0015  0.0158  0.0000  0.0000  0.0000  0.0000  0.0000 </r>
       </set>
       <set comment="band 37">
        <r>  0.0133  0.0003  0.0002  0.0000  0.0000  0.0003  0.0025  0.0000  0.0000 </r>
        <r>  0.0002  0.0000  0.0001  0.0025  0.0001  0.0000  0.0000  0.0007  0.0000 </r>
        <r>  0.0005  0.0001  0.0003  0.0033  0.0010  0.0000  0.0000  0.0026  0.0000 </r>
        <r>  0.1216  0.0224  0.0783  0.0000  0.0000  0.0005  0.0011  0.0000  0.0001 </r>
        <r>  0.0001  0.0223  0.1895  0.0001  0.0000  0.0000  0.0000  0.0000  0.0000 </r>
        <r>  0.0000  0.0002  0.0009  0.0100  0.0000  0.0000  0.0000  0.0000  0.0000 </r>
        <r>  0.0000  0.0002  0.0002  0.0480  0.0000  0.0000  0.0000  0.0000  0.0000 </r>
        <r>  0.0018  0.0479  0.0097  0.0002  0.0000  0.0000  0.0000  0.0000  0.0000 </r>
       </set>
       <set comment="band 38">
        <r>  0.0033  0.0007  0.0022  0.0025  0.0001  0.0000  0.0000  0.0008  0.0000 </r>
        <r>  0.0136  0.0002  0.0001  0.0001  0.0000  0.0003  0.0025  0.0000  0.0000 </r>
        <r>  0.1179  0.0219  0.0764  0.0001  0.0000  0.0005  0.0010  0.0001  0.0001 </r>
        <r>  0.0008  0.0000  0.0002  0.0032  0.0010  0.0000  0.0001  0.0024  0.0000 </r>
        <r>  0.0001  0.0011  0.0007  0.0089  0.0000  0.0000  0.0000  0.0000  0.0000 </r>
        <r>  0.0001  0.0228  0.1847  0.0016  0.0000  0.0000  0.0000  0.0000  0.0000 </r>
        <r>  0.0018  0.0456  0.0094  0.0002  0.0000  0.0000  0.0000  0.0000  0.0000 </r>
        <r>  0.0000  0.0011  0.0055  0.0475  0.0000  0.0000  0.0000  0.0000  0.0000 </r>
       </set>
       <set comment="band 39">
        <r>  0.1184  0.0217  0.0761  0.0001  0.0000  0.0005  0.0011  0.0001  0.0001 </r>
        <r>  0.0008  0.0001  0.0003  0.0032  0.0010  0.0000  0.0001  0.0025  0.0000 </r>
        <r>  0.0035  0.0006  0.0022  0.0025  0.0001  0.0000  0.0000  0.0007  0.0000 </r>
        <r>  0.0130  0.0003  0.0003  0.0001  0.0000  0.0002  0.0024  0.0000  0.0000 </r>
        <r>  0.0018  0.0469  0.0099  0.0003  0.0000  0.0000  0.0000  0.0000  0.0000 </r>
        <r>  0.0000  0.0010  0.0056  0.0464  0.0000  0.0000  0.0000  0.0000  0.0000 </r>
        <r>  0.0001  0.0012  0.0007  0.0101  0.0000  0.0000  0.0000  0.0000  0.0000 </r>
        <r>  0.0001  0.0214  0.1841  0.0015  0.0000  0.0000  0.0000  0.0000  0.0000 </r>
       </set>
       <set comment="band 40">
        <r>  0.0006  0.0001  0.0004  0.0033  0.0010  0.0000  0.0000  0.0025  0.0000 </r>
        <r>  0.1211  0.0225  0.0784  0.0000  0.0000  0.0005  0.0010  0.0000  0.0001 </r>
        <r>  0.0137  0.0001  0.0000  0.0000  0.0000  0.0003  0.0026  0.0000  0.0000 </r>
        <r>  0.0002  0.0000  0.0001  0.0025  0.0001  0.0000  0.0000  0.0008  0.0000 </r>
        <r>  0.0000  0.0002  0.0002  0.0490  0.0000  0.0000  0.0000  0.0000  0.0000 </r>
        <r>  0.0019  0.0466  0.0091  0.0003  0.0000  0.0000  0.0000  0.0000  0.0000 </r>
        <r>  0.0001  0.0235  0.1900  0.0000  0.0000  0.0000  0.0000  0.0000  0.0000 </r>
        <r>  0.0000  0.0002  0.0010  0.0089  0.0000  0.0000  0.0000  0.0000  0.0000 </r>
       </set>
       <set comment="band 41">
        <r>  0.0007  0.0036  0.0489  0.0003  0.0000  0.0088  0.0001  0.0001  0.0001 </r>
        <r>  0.0000  0.0001  0.0023  0.0069  0.0000  0.0003  0.0000  0.0010  0.0000 </r>
        <r>  0.0010  0.0003  0.0055  0.0399  0.0028  0.0001  0.0002  0.0155  0.0000 </r>
        <r>  0.0259  0.0049  0.1460  0.0016  0.0001  0.0014  0.0038  0.0006  0.0001 </r>
        <r>  0.0217  0.0003  0.0346  0.0001  0.0000  0.0000  0.0000  0.0000  0.0000 </r>
        <r>  0.0007  0.0001  0.0016  0.0011  0.0000  0.0000  0.0000  0.0000  0.0000 </r>
        <r>  0.0004  0.0014  0.0003  0.0099  0.0000  0.0000  0.0000  0.0000  0.0000 </r>
        <r>  0.0072  0.0360  0.0145  0.0004  0.0000  0.0000  0.0000  0.0000  0.0000 </r>
       </set>
       <set comment="band 42">
        <r>  0.0002  0.0002  0.0022  0.0123  0.0001  0.0004  0.0000  0.0023  0.0000 </r>
        <r>  0.0003  0.0032  0.0289  0.0003  0.0000  0.0091  0.0001  0.0000  0.0001 </r>
        <r>  0.0263  0.0053  0.1658  0.0016  0.0001  0.0011  0.0038  0.0007  0.0001 </r>
        <r>  0.0009  0.0001  0.0058  0.0345  0.0027  0.0000  0.0001  0.0141  0.0000 </r>
        <r>  0.0010  0.0001  0.0009  0.0022  0.0000  0.0000  0.0000  0.0000  0.0000 </r>
        <r>  0.0232  0.0019  0.0394  0.0001  0.0000  0.0000  0.0000  0.0000  0.0000 </r>
        <r>  0.0057  0.0343  0.0097  0.0004  0.0000  0.0000  0.0000  0.0000  0.0000 </r>
        <r>  0.0002  0.0014  0.0011  0.0088  0.0000  0.0000  0.0000  0.0000  0.0000 </r>
       </set>
       <set comment="band 43">
        <r>  0.0222  0.0042  0.1257  0.0067  0.0005  0.0012  0.0033  0.0025  0.0001 </r>
        <r>  0.0049  0.0012  0.0286  0.0339  0.0024  0.0004  0.0007  0.0132  0.0000 </r>
        <r>  0.0000  0.0004  0.0077  0.0061  0.0000  0.0015  0.0000  0.0009  0.0000 </r>
        <r>  0.0005  0.0031  0.0408  0.0020  0.0000  0.0075  0.0000  0.0005  0.0001 </r>
        <r>  0.0061  0.0307  0.0121  0.0017  0.0000  0.0000  0.0000  0.0000  0.0000 </r>
        <r>  0.0016  0.0063  0.0013  0.0084  0.0000  0.0000  0.0000  0.0000  0.0000 </r>
        <r>  0.0038  0.0005  0.0078  0.0010  0.0000  0.0000  0.0000  0.0000  0.0000 </r>
        <r>  0.0186  0.0003  0.0299  0.0004  0.0000  0.0000  0.0000  0.0000  0.0000 </r>
       </set>
       <set comment="band 44">
        <r>  0.0046  0.0008  0.0259  0.0294  0.0023  0.0002  0.0007  0.0122  0.0000 </r>
        <r>  0.0224  0.0044  0.1429  0.0076  0.0005  0.0008  0.0033  0.0030  0.0001 </r>
        <r>  0.0003  0.0029  0.0238  0.0011  0.0000  0.0079  0.0001  0.0001  0.0001 </r>
        <r>  0.0003  0.0008  0.0101  0.0106  0.0001  0.0016  0.0000  0.0019  0.0000 </r>
        <r>  0.0013  0.0067  0.0035  0.0075  0.0000  0.0000  0.0000  0.0000  0.0000 </r>
        <r>  0.0045  0.0294  0.0087  0.0019  0.0000  0.0000  0.0000  0.0000  0.0000 </r>
        <r>  0.0201  0.0016  0.0333  0.0002  0.0000  0.0000  0.0000  0.0000  0.0000 </r>
        <r>  0.0041  0.0000  0.0056  0.0019  0.0000  0.0000  0.0000  0.0000  0.0000 </r>
       </set>
       <set comment="band 45">
        <r>  0.0005  0.0159  0.0033  0.0236  0.0036  0.0009  0.0032  0.0017  0.0002 </r>
        <r>  0.0009  0.0064  0.0011  0.0249  0.0041  0.0005  0.0022  0.0025  0.0001 </r>
        <r>  0.0052  0.0353  0.0105  0.0382  0.0035  0.0032  0.0002  0.0001  0.0001 </r>
        <r>  0.0080  0.0433  0.0133  0.0209  0.0018  0.0044  0.0002  0.0001  0.0001 </r>
        <r>  0.0017  0.0374  0.0030  0.0022  0.0000  0.0000  0.0000  0.0000  0.0000 </r>
        <r>  0.0011  0.0337  0.0018  0.0059  0.0000  0.0000  0.0000  0.0000  0.0000 </r>
        <r>  0.0009  0.0198  0.0107  0.0216  0.0000  0.0000  0.0000  0.0000  0.0000 </r>
        <r>  0.0010  0.0384  0.0148  0.0172  0.0000  0.0000  0.0000  0.0000  0.0000 </r>
       </set>
       <set comment="band 46">
        <r>  0.0001  0.0163  0.0037  0.0384  0.0056  0.0007  0.0022  0.0022  0.0001 </r>
        <r>  0.0017  0.0068  0.0013  0.0131  0.0023  0.0004  0.0029  0.0018  0.0001 </r>
        <r>  0.0068  0.0522  0.0151  0.0316  0.0030  0.0049  0.0005  0.0001  0.0001 </r>
        <r>  0.0059  0.0256  0.0080  0.0245  0.0019  0.0031  0.0002  0.0004  0.0000 </r>
        <r>  0.0015  0.0205  0.0033  0.0029  0.0000  0.0000  0.0000  0.0000  0.0000 </r>
        <r>  0.0017  0.0530  0.0040  0.0068  0.0000  0.0000  0.0000  0.0000  0.0000 </r>
        <r>  0.0011  0.0225  0.0137  0.0127  0.0000  0.0000  0.0000  0.0000  0.0000 </r>
        <r>  0.0005  0.0332  0.0093  0.0245  0.0000  0.0000  0.0000  0.0000  0.0000 </r>
       </set>
       <set comment="band 47">
        <r>  0.0139  0.0682  0.0211  0.0007  0.0001  0.0074  0.0003  0.0000  0.0002 </r>
        <r>  0.0001  0.0001  0.0000  0.0694  0.0065  0.0000  0.0000  0.0002  0.0000 </r>
        <r>  0.0000  0.0007  0.0002  0.0372  0.0063  0.0000  0.0000  0.0043  0.0000 </r>
        <r>  0.0006  0.0319  0.0069  0.0001  0.0000  0.0015  0.0054  0.0000  0.0003 </r>
        <r>  0.0015  0.0713  0.0240  0.0000  0.0000  0.0000  0.0000  0.0000  0.0000 </r>
        <r>  0.0000  0.0009  0.0000  0.0340  0.0000  0.0000  0.0000  0.0000  0.0000 </r>
        <r>  0.0000  0.0001  0.0002  0.0125  0.0000  0.0000  0.0000  0.0000  0.0000 </r>
        <r>  0.0032  0.0570  0.0061  0.0004  0.0000  0.0000  0.0000  0.0000  0.0000 </r>
       </set>
       <set comment="band 48">
        <r>  0.0000  0.0004  0.0001  0.0448  0.0036  0.0000  0.0000  0.0005  0.0000 </r>
        <r>  0.0119  0.0877  0.0257  0.0001  0.0000  0.0081  0.0007  0.0000  0.0002 </r>
        <r>  0.0025  0.0126  0.0023  0.0006  0.0001  0.0009  0.0051  0.0000  0.0002 </r>
        <r>  0.0001  0.0001  0.0001  0.0621  0.0092  0.0000  0.0000  0.0040  0.0000 </r>
        <r>  0.0000  0.0001  0.0000  0.0418  0.0000  0.0000  0.0000  0.0000  0.0000 </r>
        <r>  0.0019  0.0416  0.0244  0.0002  0.0000  0.0000  0.0000  0.0000  0.0000 </r>
        <r>  0.0027  0.0869  0.0058  0.0001  0.0000  0.0000  0.0000  0.0000  0.0000 </r>
        <r>  0.0000  0.0007  0.0001  0.0048  0.0000  0.0000  0.0000  0.0000  0.0000 </r>
       </set>
       <set comment="band 49">
        <r>  0.0001  0.0012  0.0000  0.0295  0.0071  0.0000  0.0000  0.0021  0.0000 </r>
        <r>  0.0000  0.0012  0.0114  0.0000  0.0000  0.0021  0.0006  0.0000  0.0000 </r>
        <r>  0.0147  0.1744  0.0256  0.0006  0.0001  0.0016  0.0051  0.0000  0.0005 </r>
        <r>  0.0000  0.0005  0.0003  0.0396  0.0021  0.0000  0.0000  0.0018  0.0000 </r>
        <r>  0.0000  0.0000  0.0001  0.0039  0.0000  0.0000  0.0000  0.0000  0.0000 </r>
        <r>  0.0021  0.0558  0.0070  0.0013  0.0000  0.0000  0.0000  0.0000  0.0000 </r>
        <r>  0.0017  0.0232  0.0055  0.0004  0.0000  0.0000  0.0000  0.0000  0.0000 </r>
        <r>  0.0000  0.0007  0.0000  0.1809  0.0000  0.0000  0.0000  0.0000  0.0000 </r>
       </set>
       <set comment="band 50">
        <r>  0.0007  0.0117  0.0067  0.0001  0.0000  0.0023  0.0014  0.0000  0.0000 </r>
        <r>  0.0000  0.0000  0.0000  0.0181  0.0057  0.0000  0.0000  0.0017  0.0000 </r>
        <r>  0.0001  0.0009  0.0002  0.0513  0.0036  0.0000  0.0000  0.0022  0.0000 </r>
        <r>  0.0140  0.1646  0.0305  0.0002  0.0000  0.0015  0.0044  0.0000  0.0006 </r>
        <r>  0.0016  0.0428  0.0088  0.0001  0.0000  0.0000  0.0000  0.0000  0.0000 </r>
        <r>  0.0000  0.0003  0.0000  0.0185  0.0000  0.0000  0.0000  0.0000  0.0000 </r>
        <r>  0.0000  0.0001  0.0000  0.1671  0.0000  0.0000  0.0000  0.0000  0.0000 </r>
        <r>  0.0022  0.0365  0.0037  0.0009  0.0000  0.0000  0.0000  0.0000  0.0000 </r>
       </set>
       <set comment="band 51">
        <r>  0.0139  0.1634  0.0304  0.0001  0.0000  0.0015  0.0044  0.0000  0.0006 </r>
        <r>  0.0001  0.0012  0.0001  0.0513  0.0036  0.0000  0.0000  0.0022  0.0000 </r>
        <r>  0.0001  0.0006  0.0002  0.0177  0.0056  0.0000  0.0000  0.0017  0.0000 </r>
        <r>  0.0008  0.0121  0.0065  0.0006  0.0001  0.0022  0.0014  0.0000  0.0000 </r>
        <r>  0.0022  0.0367  0.0036  0.0013  0.0000  0.0000  0.0000  0.0000  0.0000 </r>
        <r>  0.0000  0.0001  0.0001  0.1658  0.0000  0.0000  0.0000  0.0000  0.0000 </r>
        <r>  0.0000  0.0007  0.0000  0.0189  0.0000  0.0000  0.0000  0.0000  0.0000 </r>
        <r>  0.0016  0.0422  0.0088  0.0006  0.0000  0.0000  0.0000  0.0000  0.0000 </r>
       </set>
       <set comment="band 52">
        <r>  0.0001  0.0010  0.0002  0.0399  0.0021  0.0000  0.0000  0.0018  0.0000 </r>
        <r>  0.0147  0.1748  0.0257  0.0003  0.0000  0.0016  0.0051  0.0000  0.0005 </r>
        <r>  0.0000  0.0014  0.0114  0.0001  0.0000  0.0021  0.0006  0.0000  0.0000 </r>
        <r>  0.0000  0.0001  0.0000  0.0293  0.0071  0.0000  0.0000  0.0021  0.0000 </r>
        <r>  0.0000  0.0002  0.0000  0.1813  0.0000  0.0000  0.0000  0.0000  0.0000 </r>
        <r>  0.0017  0.0236  0.0055  0.0010  0.0000  0.0000  0.0000  0.0000  0.0000 </r>
        <r>  0.0021  0.0556  0.0070  0.0002  0.0000  0.0000  0.0000  0.0000  0.0000 </r>
        <r>  0.0000  0.0003  0.0001  0.0041  0.0000  0.0000  0.0000  0.0000  0.0000 </r>
       </set>
       <set comment="band 53">
        <r>  0.0022  0.0078  0.0792  0.0020  0.0000  0.0045  0.0010  0.0002  0.0002 </r>
        <r>  0.0000  0.0007  0.0047  0.0199  0.0015  0.0000  0.0001  0.0172  0.0000 </r>
        <r>  0.0003  0.0003  0.0000  0.0339  0.0007  0.0009  0.0007  0.0062  0.0000 </r>
        <r>  0.0041  0.0156  0.0323  0.0002  0.0001  0.0180  0.0175  0.0008  0.0002 </r>
        <r>  0.0000  0.0071  0.0406  0.0006  0.0000  0.0000  0.0000  0.0000  0.0000 </r>
        <r>  0.0001  0.0004  0.0005  0.0004  0.0000  0.0000  0.0000  0.0000  0.0000 </r>
        <r>  0.0002  0.0001  0.0017  0.0335  0.0000  0.0000  0.0000  0.0000  0.0000 </r>
        <r>  0.0071  0.0045  0.0109  0.0008  0.0000  0.0000  0.0000  0.0000  0.0000 </r>
       </set>
       <set comment="band 54">
        <r>  0.0034  0.0110  0.0172  0.0054  0.0004  0.0149  0.0137  0.0048  0.0001 </r>
        <r>  0.0008  0.0015  0.0209  0.0217  0.0007  0.0016  0.0006  0.0062  0.0001 </r>
        <r>  0.0010  0.0052  0.0110  0.0191  0.0010  0.0049  0.0047  0.0116  0.0000 </r>
        <r>  0.0013  0.0067  0.0672  0.0100  0.0002  0.0022  0.0004  0.0019  0.0001 </r>
        <r>  0.0054  0.0028  0.0116  0.0002  0.0000  0.0000  0.0000  0.0000  0.0000 </r>
        <r>  0.0000  0.0017  0.0123  0.0245  0.0000  0.0000  0.0000  0.0000  0.0000 </r>
        <r>  0.0020  0.0017  0.0024  0.0011  0.0000  0.0000  0.0000  0.0000  0.0000 </r>
        <r>  0.0000  0.0060  0.0275  0.0094  0.0000  0.0000  0.0000  0.0000  0.0000 </r>
       </set>
       <set comment="band 55">
        <r>  0.0007  0.0055  0.0182  0.0136  0.0012  0.0037  0.0043  0.0140  0.0000 </r>
        <r>  0.0014  0.0085  0.0580  0.0135  0.0001  0.0040  0.0006  0.0008  0.0001 </r>
        <r>  0.0033  0.0090  0.0252  0.0025  0.0006  0.0128  0.0132  0.0061  0.0001 </r>
        <r>  0.0011  0.0015  0.0148  0.0265  0.0004  0.0030  0.0012  0.0035  0.0001 </r>
        <r>  0.0019  0.0021  0.0007  0.0007  0.0000  0.0000  0.0000  0.0000  0.0000 </r>
        <r>  0.0002  0.0062  0.0287  0.0097  0.0000  0.0000  0.0000  0.0000  0.0000 </r>
        <r>  0.0051  0.0025  0.0098  0.0003  0.0000  0.0000  0.0000  0.0000  0.0000 </r>
        <r>  0.0002  0.0013  0.0146  0.0246  0.0000  0.0000  0.0000  0.0000  0.0000 </r>
       </set>
       <set comment="band 56">
        <r>  0.0001  0.0001  0.0016  0.0351  0.0006  0.0004  0.0004  0.0054  0.0000 </r>
        <r>  0.0044  0.0138  0.0326  0.0010  0.0000  0.0179  0.0180  0.0002  0.0002 </r>
        <r>  0.0020  0.0099  0.0801  0.0007  0.0000  0.0049  0.0007  0.0006  0.0002 </r>
        <r>  0.0001  0.0007  0.0019  0.0193  0.0016  0.0004  0.0002  0.0183  0.0000 </r>
        <r>  0.0001  0.0001  0.0009  0.0337  0.0000  0.0000  0.0000  0.0000  0.0000 </r>
        <r>  0.0071  0.0038  0.0122  0.0006  0.0000  0.0000  0.0000  0.0000  0.0000 </r>
        <r>  0.0001  0.0079  0.0399  0.0004  0.0000  0.0000  0.0000  0.0000  0.0000 </r>
        <r>  0.0001  0.0003  0.0007  0.0005  0.0000  0.0000  0.0000  0.0000  0.0000 </r>
       </set>
       <set comment="band 57">
        <r>  0.0016  0.0000  0.0091  0.0014  0.0024  0.0105  0.0076  0.0056  0.0002 </r>
        <r>  0.0006  0.0003  0.0038  0.0028  0.0041  0.0045  0.0033  0.0111  0.0000 </r>
        <r>  0.0031  0.0287  0.0030  0.0071  0.0022  0.0035  0.0036  0.0015  0.0017 </r>
        <r>  0.0058  0.0585  0.0047  0.0035  0.0008  0.0057  0.0064  0.0006  0.0033 </r>
        <r>  0.0020  0.0021  0.0035  0.0001  0.0000  0.0000  0.0000  0.0000  0.0000 </r>
        <r>  0.0013  0.0012  0.0014  0.0001  0.0000  0.0000  0.0000  0.0000  0.0000 </r>
        <r>  0.0019  0.0007  0.0012  0.0039  0.0000  0.0000  0.0000  0.0000  0.0000 </r>
        <r>  0.0043  0.0018  0.0019  0.0019  0.0000  0.0000  0.0000  0.0000  0.0000 </r>
       </set>
       <set comment="band 58">
        <r>  0.0010  0.0002  0.0049  0.0034  0.0044  0.0055  0.0039  0.0117  0.0001 </r>
        <r>  0.0018  0.0002  0.0083  0.0015  0.0018  0.0093  0.0065  0.0054  0.0001 </r>
        <r>  0.0057  0.0584  0.0055  0.0033  0.0013  0.0069  0.0076  0.0008  0.0034 </r>
        <r>  0.0027  0.0287  0.0019  0.0064  0.0019  0.0025  0.0030  0.0009  0.0016 </r>
        <r>  0.0008  0.0010  0.0018  0.0001  0.0000  0.0000  0.0000  0.0000  0.0000 </r>
        <r>  0.0019  0.0024  0.0031  0.0000  0.0000  0.0000  0.0000  0.0000  0.0000 </r>
        <r>  0.0044  0.0015  0.0023  0.0019  0.0000  0.0000  0.0000  0.0000  0.0000 </r>
        <r>  0.0023  0.0010  0.0008  0.0038  0.0000  0.0000  0.0000  0.0000  0.0000 </r>
       </set>
       <set comment="band 59">
        <r>  0.0062  0.0653  0.0048  0.0023  0.0007  0.0060  0.0072  0.0003  0.0036 </r>
        <r>  0.0021  0.0218  0.0022  0.0076  0.0027  0.0028  0.0030  0.0017  0.0013 </r>
        <r>  0.0007  0.0002  0.0030  0.0034  0.0043  0.0033  0.0023  0.0124  0.0000 </r>
        <r>  0.0021  0.0002  0.0106  0.0014  0.0017  0.0121  0.0085  0.0045  0.0002 </r>
        <r>  0.0052  0.0021  0.0020  0.0014  0.0000  0.0000  0.0000  0.0000  0.0000 </r>
        <r>  0.0017  0.0005  0.0009  0.0044  0.0000  0.0000  0.0000  0.0000  0.0000 </r>
        <r>  0.0007  0.0010  0.0011  0.0001  0.0000  0.0000  0.0000  0.0000  0.0000 </r>
        <r>  0.0020  0.0023  0.0040  0.0001  0.0000  0.0000  0.0000  0.0000  0.0000 </r>
       </set>
       <set comment="band 60">
        <r>  0.0023  0.0220  0.0018  0.0076  0.0020  0.0021  0.0023  0.0013  0.0012 </r>
        <r>  0.0067  0.0652  0.0064  0.0028  0.0008  0.0077  0.0082  0.0007  0.0038 </r>
        <r>  0.0016  0.0002  0.0090  0.0009  0.0016  0.0104  0.0075  0.0041  0.0001 </r>
        <r>  0.0005  0.0001  0.0033  0.0034  0.0051  0.0040  0.0030  0.0128  0.0001 </r>
        <r>  0.0015  0.0007  0.0007  0.0043  0.0000  0.0000  0.0000  0.0000  0.0000 </r>
        <r>  0.0046  0.0016  0.0026  0.0015  0.0000  0.0000  0.0000  0.0000  0.0000 </r>
        <r>  0.0025  0.0027  0.0034  0.0000  0.0000  0.0000  0.0000  0.0000  0.0000 </r>
        <r>  0.0009  0.0008  0.0013  0.0001  0.0000  0.0000  0.0000  0.0000  0.0000 </r>
       </set>
      </set>
     </set>
    </set>
   </array>
  </projected>
 </calculation>
 <structure name="finalpos" >
  <crystal>
   <varray name="basis" >
    <v>       3.95685521       0.00000000       0.00000000 </v>
    <v>      -0.00000000       4.53281069       0.00000000 </v>
    <v>       0.00000000       0.00000000      11.39201851 </v>
   </varray>
   <i name="volume">    204.32354836 </i>
   <varray name="rec_basis" >
    <v>       0.25272595       0.00000000       0.00000000 </v>
    <v>       0.00000000       0.22061367       0.00000000 </v>
    <v>      -0.00000000      -0.00000000       0.08778076 </v>
   </varray>
  </crystal>
  <varray name="positions" >
   <v>       0.25000000       0.36953984       0.62163275 </v>
   <v>       0.75000000       0.63046016       0.37836725 </v>
   <v>       0.75000000       0.86953984       0.87836725 </v>
   <v>       0.25000000       0.13046016       0.12163275 </v>
   <v>       0.25000000       0.01059680       0.34749746 </v>
   <v>       0.75000000       0.98940320       0.65250254 </v>
   <v>       0.75000000       0.51059680       0.15250254 </v>
   <v>       0.25000000       0.48940320       0.84749746 </v>
  </varray>
 </structure>
</modeling>
