<?xml version="1.0" encoding="ISO-8859-1"?>
<modeling>
 <generator>
  <i name="program" type="string">vasp </i>
  <i name="version" type="string">6.4.2  </i>
  <i name="subversion" type="string">20Jul23 (build Mar 15 2024 16:31:38) complex                          parallel </i>
  <i name="platform" type="string">LinuxIFC </i>
  <i name="date" type="string">2025 03 26 </i>
  <i name="time" type="string">18:39:06 </i>
 </generator>
 <incar>
  <i type="string" name="PREC">Accurate</i>
  <i type="string" name="ALGO">Normal</i>
  <i type="int" name="ISPIN">     2</i>
  <i type="int" name="NELM">   200</i>
  <i name="EDIFF">      0.00001000</i>
  <i type="int" name="NSW">     0</i>
  <i name="ENCUT">    680.00000000</i>
  <i name="ENAUG">   1360.00000000</i>
  <v name="MAGMOM">      0.60000000      0.60000000      0.60000000      0.60000000      0.60000000      0.60000000      0.60000000      0.60000000</v>
  <i type="logical" name="LREAL"> F  </i>
  <i type="int" name="ISMEAR">     0</i>
  <i name="SIGMA">      0.01000000</i>
  <i type="int" name="LMAXMIX">     4</i>
  <i type="logical" name="LWAVE"> T  </i>
  <i type="logical" name="LCHARG"> T  </i>
  <i type="logical" name="LVTOT"> T  </i>
  <i type="int" name="LORBIT">    11</i>
  <i type="logical" name="LELF"> F  </i>
  <i type="logical" name="LASPH"> T  </i>
  <i type="logical" name="LAECHG"> T  </i>
  <i name="HFSCREEN">      0.20000000</i>
  <i type="logical" name="LHFCALC"> T  </i>
  <i type="string" name="GGA">Pe</i>
  <i type="string" name="PRECFOCK">Fast</i>
  <i type="logical" name="LDAU"> F  </i>
  <i type="logical" name="LMIXTAU"> T  </i>
 </incar>
 <primitive_cell>
  <structure name="primitive_cell" >
   <crystal>
    <varray name="basis" >
     <v>       3.95685521       0.00000000       0.00000000 </v>
     <v>      -0.00000000       4.53281069       0.00000000 </v>
     <v>       0.00000000       0.00000000      11.39201851 </v>
    </varray>
    <i name="volume">    204.32354836 </i>
    <varray name="rec_basis" >
     <v>       0.25272595       0.00000000       0.00000000 </v>
     <v>       0.00000000       0.22061367       0.00000000 </v>
     <v>      -0.00000000      -0.00000000       0.08778076 </v>
    </varray>
   </crystal>
   <varray name="positions" >
    <v>       0.25000000       0.36953984       0.62163275 </v>
    <v>       0.75000000       0.63046016       0.37836725 </v>
    <v>       0.75000000       0.86953984       0.87836725 </v>
    <v>       0.25000000       0.13046016       0.12163275 </v>
    <v>       0.25000000       0.01059680       0.34749746 </v>
    <v>       0.75000000       0.98940320       0.65250254 </v>
    <v>       0.75000000       0.51059680       0.15250254 </v>
    <v>       0.25000000       0.48940320       0.84749746 </v>
   </varray>
  </structure>
  <varray name="primitive_index" >
   <v type="int" >        1 </v>
   <v type="int" >        2 </v>
   <v type="int" >        3 </v>
   <v type="int" >        4 </v>
   <v type="int" >        5 </v>
   <v type="int" >        6 </v>
   <v type="int" >        7 </v>
   <v type="int" >        8 </v>
  </varray>
 </primitive_cell>
 <kpoints>
  <varray name="kpointlist" >
   <v>       0.00000000       0.00000000       0.00000000 </v>
   <v>       0.00000000       0.50000000       0.50000000 </v>
   <v>       0.28571429       0.00000000       0.00000000 </v>
  </varray>
  <varray name="weights" >
   <v>       0.33333333 </v>
   <v>       0.33333333 </v>
   <v>       0.33333333 </v>
  </varray>
 </kpoints>
 <parameters>
  <separator name="general" >
   <i type="string" name="SYSTEM">unknown system</i>
   <i type="logical" name="LCOMPAT"> F  </i>
  </separator>
  <separator name="electronic" >
   <i type="string" name="PREC">accura</i>
   <i name="ENMAX">    680.00000000</i>
   <i name="ENAUG">   1360.00000000</i>
   <i name="EDIFF">      0.00001000</i>
   <i type="int" name="IALGO">    38</i>
   <i type="int" name="IWAVPR">    10</i>
   <i type="int" name="NBANDS">    60</i>
   <i type="int" name="NBANDSLOW">    -1</i>
   <i type="int" name="NBANDSHIGH">    -1</i>
   <i name="NELECT">     80.00000000</i>
   <i type="int" name="TURBO">     0</i>
   <i type="int" name="IRESTART">     0</i>
   <i type="int" name="NREBOOT">     0</i>
   <i type="int" name="NMIN">     0</i>
   <i name="EREF">      0.00000000</i>
   <separator name="electronic smearing" >
    <i type="int" name="ISMEAR">     0</i>
    <i name="SIGMA">      0.01000000</i>
    <i name="KSPACING">      0.50000000</i>
    <i type="logical" name="KGAMMA"> T  </i>
    <i type="logical" name="KBLOWUP"> T  </i>
   </separator>
   <separator name="electronic projectors" >
    <i type="logical" name="LREAL"> F  </i>
    <v name="ROPT">      0.00000000      0.00000000</v>
    <i type="int" name="LMAXPAW">  -100</i>
    <i type="int" name="LMAXMIX">     4</i>
    <i type="logical" name="NLSPLINE"> F  </i>
   </separator>
   <separator name="electronic startup" >
    <i type="int" name="ISTART">     0</i>
    <i type="int" name="ICHARG">     2</i>
    <i type="int" name="INIWAV">     1</i>
   </separator>
   <separator name="electronic spin" >
    <i type="int" name="ISPIN">     2</i>
    <i type="logical" name="LNONCOLLINEAR"> F  </i>
    <v name="MAGMOM">      0.60000000      0.60000000      0.60000000      0.60000000      0.60000000      0.60000000      0.60000000      0.60000000</v>
    <i name="NUPDOWN">     -1.00000000</i>
    <i type="logical" name="LSORBIT"> F  </i>
    <v name="SAXIS">      0.00000000      0.00000000      1.00000000</v>
    <i type="logical" name="LSPIRAL"> F  </i>
    <v name="QSPIRAL">      0.00000000      0.00000000      0.00000000</v>
    <i type="logical" name="LZEROZ"> F  </i>
   </separator>
   <separator name="electronic exchange-correlation" >
    <i type="logical" name="LASPH"> T  </i>
    <i type="logical" name="LMETAGGA"> F  </i>
   </separator>
   <separator name="electronic convergence" >
    <i type="int" name="NELM">   200</i>
    <i type="int" name="NELMDL">    -5</i>
    <i type="int" name="NELMIN">     2</i>
    <i name="ENINI">    680.00000000</i>
    <separator name="electronic convergence detail" >
     <i type="logical" name="LDIAG"> T  </i>
     <i type="logical" name="LSUBROT"> F  </i>
     <i name="WEIMIN">      0.00000000</i>
     <i name="EBREAK">      0.00000004</i>
     <i name="DEPER">      0.30000000</i>
     <i type="int" name="NRMM">     4</i>
     <i name="TIME">      0.40000000</i>
    </separator>
   </separator>
   <separator name="electronic mixer" >
    <i name="AMIX">      0.40000000</i>
    <i name="BMIX">      1.00000000</i>
    <i name="AMIN">      0.10000000</i>
    <i name="AMIX_MAG">      1.60000000</i>
    <i name="BMIX_MAG">      1.00000000</i>
    <separator name="electronic mixer details" >
     <i type="int" name="IMIX">     1</i>
     <i type="logical" name="MIXFIRST"> F  </i>
     <i type="int" name="MAXMIX">   -45</i>
     <i name="WC">    100.00000000</i>
     <i type="int" name="INIMIX">     1</i>
     <i type="int" name="MIXPRE">     1</i>
     <i type="int" name="MREMOVE">     5</i>
    </separator>
   </separator>
   <separator name="electronic dipolcorrection" >
    <i type="logical" name="LDIPOL"> F  </i>
    <i type="logical" name="LMONO"> F  </i>
    <i type="int" name="IDIPOL">     0</i>
    <i name="EPSILON">      1.00000000</i>
    <v name="DIPOL">   -100.00000000   -100.00000000   -100.00000000</v>
    <i name="EFIELD">      0.00000000</i>
   </separator>
  </separator>
  <separator name="grids" >
   <i type="int" name="NGX">    36</i>
   <i type="int" name="NGY">    40</i>
   <i type="int" name="NGZ">    98</i>
   <i type="int" name="NGXF">    72</i>
   <i type="int" name="NGYF">    80</i>
   <i type="int" name="NGZF">   196</i>
   <i type="logical" name="ADDGRID"> F  </i>
  </separator>
  <separator name="ionic" >
   <i type="int" name="NSW">     0</i>
   <i type="int" name="IBRION">    -1</i>
   <i type="int" name="MDALGO">     0</i>
   <i type="int" name="ISIF">     0</i>
   <i name="PSTRESS">      0.00000000</i>
   <i name="EDIFFG">      0.00010000</i>
   <i type="int" name="NFREE">     0</i>
   <i name="POTIM">      0.50000000</i>
   <i name="SMASS">     -3.00000000</i>
   <i name="SCALEE">      1.00000000</i>
  </separator>
  <separator name="ionic md" >
   <i name="TEBEG">      0.00010000</i>
   <i name="TEEND">      0.00010000</i>
   <i type="int" name="NBLOCK">     1</i>
   <i type="int" name="KBLOCK">     1</i>
   <i type="int" name="NPACO">   256</i>
   <i name="APACO">     10.00000000</i>
  </separator>
  <separator name="symmetry" >
   <i type="int" name="ISYM">     3</i>
   <i name="SYMPREC">      0.00001000</i>
  </separator>
  <separator name="dos" >
   <i type="int" name="LORBIT">    11</i>
   <v name="RWIGS">     -1.00000000     -1.00000000</v>
   <i type="int" name="NEDOS">   301</i>
   <i name="EMIN">     10.00000000</i>
   <i name="EMAX">    -10.00000000</i>
   <i name="EFERMI">      0.00000000</i>
  </separator>
  <separator name="writing" >
   <i type="int" name="NWRITE">     2</i>
   <i type="logical" name="LWAVE"> T  </i>
   <i type="logical" name="LDOWNSAMPLE"> F  </i>
   <i type="logical" name="LCHARG"> T  </i>
   <i type="logical" name="LPARD"> F  </i>
   <i type="logical" name="LVTOT"> T  </i>
   <i type="logical" name="LVHAR"> F  </i>
   <i type="logical" name="LELF"> F  </i>
   <i type="logical" name="LOPTICS"> F  </i>
   <v name="STM">      0.00000000      0.00000000      0.00000000      0.00000000      0.00000000      0.00000000      0.00000000</v>
  </separator>
  <separator name="performance" >
   <i type="int" name="NPAR">    12</i>
   <i type="int" name="NSIM">     4</i>
   <i type="int" name="NBLK">    -1</i>
   <i type="logical" name="LPLANE"> T  </i>
   <i type="logical" name="LSCALAPACK"> T  </i>
   <i type="logical" name="LSCAAWARE"> F  </i>
   <i type="logical" name="LSCALU"> F  </i>
   <i type="logical" name="LASYNC"> F  </i>
   <i type="logical" name="LORBITALREAL"> F  </i>
  </separator>
  <separator name="miscellaneous" >
   <i type="int" name="IDIOT">     3</i>
   <i type="int" name="PHON_NSTRUCT">    -1</i>
   <i type="logical" name="LMUSIC"> F  </i>
   <v name="POMASS">    118.71000000     32.06600000</v>
   <v name="DARWINR">      0.00000000      0.00000000</v>
   <v name="DARWINV">      1.00000000      1.00000000</v>
   <i type="logical" name="LCORR"> T  </i>
  </separator>
  <i type="logical" name="GGA_COMPAT"> T  </i>
  <i type="logical" name="LBERRY"> F  </i>
  <i type="int" name="ICORELEVEL">     0</i>
  <i type="logical" name="LDAU"> F  </i>
  <i type="int" name="I_CONSTRAINED_M">     0</i>
  <separator name="electronic exchange-correlation" >
   <i type="string" name="GGA">PE</i>
   <i type="int" name="VOSKOWN">     0</i>
   <i type="logical" name="LHFCALC"> T  </i>
   <i type="string" name="PRECFOCK">fast</i>
   <i type="logical" name="LSYMGRAD"> F  </i>
   <i type="logical" name="LHFONE"> F  </i>
   <i type="logical" name="LRHFCALC"> F  </i>
   <i type="logical" name="LTHOMAS"> F  </i>
   <i type="logical" name="LMODELHF"> F  </i>
   <i type="logical" name="LFOCKACE"> T  </i>
   <i name="ENCUT4O">     -1.00000000</i>
   <i type="int" name="EXXOEP">     0</i>
   <i type="int" name="FOURORBIT">     0</i>
   <i name="AEXX">      0.25000000</i>
   <i name="HFALPHA">     -1.00000000</i>
   <i name="MCALPHA">      0.00000000</i>
   <i name="ALDAX">      0.75000000</i>
   <i name="AGGAX">      0.75000000</i>
   <i name="ALDAC">      1.00000000</i>
   <i name="AGGAC">      1.00000000</i>
   <i type="int" name="NKREDX">     1</i>
   <i type="int" name="NKREDY">     1</i>
   <i type="int" name="NKREDZ">     1</i>
   <i type="logical" name="SHIFTRED"> F  </i>
   <i type="logical" name="ODDONLY"> F  </i>
   <i type="logical" name="EVENONLY"> F  </i>
   <i type="int" name="LMAXFOCK">     4</i>
   <i type="int" name="NMAXFOCKAE">     1</i>
   <i type="logical" name="LFOCKAEDFT"> F  </i>
   <i name="HFSCREEN">      0.20000000</i>
   <i name="HFSCREENC">      0.20000000</i>
   <i type="int" name="NBANDSGWLOW">     1</i>
  </separator>
  <separator name="vdW DFT" >
   <i type="logical" name="LUSE_VDW"> F  </i>
   <i type="int" name="IVDW_NL">     1</i>
   <i type="logical" name="LSPIN_VDW"> F  </i>
   <i name="Zab_VDW">     -0.84910000</i>
   <i name="PARAM1">      0.12340000</i>
   <i name="PARAM2">      1.00000000</i>
   <i name="PARAM3">      0.00000000</i>
  </separator>
  <separator name="model GW" >
   <i type="int" name="MODEL_GW">     0</i>
   <i name="MODEL_EPS0">     15.32426613</i>
   <i name="MODEL_ALPHA">      1.00000000</i>
  </separator>
  <separator name="linear response parameters" >
   <i type="logical" name="LEPSILON"> F  </i>
   <i type="logical" name="LRPA"> F  </i>
   <i type="logical" name="LNABLA"> F  </i>
   <i type="logical" name="LVEL"> F  </i>
   <i name="CSHIFT">      0.10000000</i>
   <i name="OMEGAMAX">     -1.00000000</i>
   <i name="DEG_THRESHOLD">      0.00200000</i>
   <i name="RTIME">     -0.10000000</i>
   <i name="WPLASMAI">      0.00000000</i>
   <v name="DFIELD">      0.00000000      0.00000000      0.00000000</v>
   <v name="WPLASMA">      0.00000000      0.00000000      0.00000000      0.00000000      0.00000000      0.00000000      0.00000000      0.00000000      0.00000000</v>
  </separator>
  <separator name="orbital magnetization" >
   <i type="logical" name="NUCIND"> F  </i>
   <v name="MAGPOS">      0.00000000      0.00000000      0.00000000</v>
   <i type="logical" name="LNICSALL"> T  </i>
   <i type="logical" name="ORBITALMAG"> F  </i>
   <i type="logical" name="LMAGBLOCH"> F  </i>
   <i type="logical" name="LCHIMAG"> F  </i>
   <i type="logical" name="LGAUGE"> T  </i>
   <i type="int" name="MAGATOM">     0</i>
   <v name="MAGDIPOL">      0.00000000      0.00000000      0.00000000</v>
   <v name="AVECCONST">      0.00000000      0.00000000      0.00000000</v>
  </separator>
  <separator name="response functions" >
   <i type="logical" name="LALL_IN_ONE"> F  </i>
   <i type="int" name="IALL_IN_ONE">    -1</i>
   <i type="int" name="NBANDS_WAVE">    -1</i>
   <i type="logical" name="LFINITE_TEMPERATURE"> F  </i>
   <i type="logical" name="LADDER"> F  </i>
   <i type="logical" name="LRPAFORCE"> F  </i>
   <i type="logical" name="LFXC"> F  </i>
   <i type="logical" name="LHARTREE"> T  </i>
   <i type="int" name="IBSE">     0</i>
   <v type="int" name="KPOINT">    -1     0     0     0</v>
   <i type="logical" name="LTCTC"> F  </i>
   <i type="logical" name="LTCTE"> F  </i>
   <i type="logical" name="LTETE"> F  </i>
   <i type="logical" name="LTRIPLET"> F  </i>
   <i type="logical" name="LFXCEPS"> F  </i>
   <i type="logical" name="LFXHEG"> F  </i>
   <i type="int" name="NATURALO">     2</i>
   <i type="logical" name="LHOLEGF"> F  </i>
   <i type="logical" name="L2ORDER"> F  </i>
   <i type="logical" name="LDMP1"> F  </i>
   <i type="logical" name="LMP2LT"> F  </i>
   <i type="logical" name="LSMP2LT"> F  </i>
   <i type="logical" name="LGWLF"> F  </i>
   <i name="ENCUTGW">     -1.60000002</i>
   <i name="ENCUTGWSOFT">     -1.60000002</i>
   <i name="ENCUTLF">     -1.00000000</i>
   <i type="logical" name="LESF_SPLINES"> F  </i>
   <i type="int" name="LMAXMP2">    -1</i>
   <i name="SCISSOR">      0.00000000</i>
   <i type="int" name="NOMEGA">     0</i>
   <i type="int" name="NOMEGAR">     0</i>
   <i type="int" name="NBANDSGW">    -1</i>
   <i type="int" name="NBANDSO">    -1</i>
   <i type="int" name="NBANDSV">    -1</i>
   <i type="int" name="NELMGW">     1</i>
   <i type="int" name="NELMHF">     1</i>
   <i type="int" name="DIM">     3</i>
   <i type="int" name="IESPILON">     4</i>
   <i type="int" name="ANTIRES">     0</i>
   <i name="OMEGAMAX">    -30.00000000</i>
   <i name="OMEGAMIN">    -30.00000000</i>
   <i name="OMEGATL">   -200.00000000</i>
   <i type="int" name="OMEGAGRID">     0</i>
   <i name="CSHIFT">     -0.10000000</i>
   <i type="logical" name="LSELFENERGY"> F  </i>
   <i type="logical" name="LSPECTRAL"> F  </i>
   <i type="logical" name="LSPECTRALGW"> F  </i>
   <i type="logical" name="LSINGLES"> F  </i>
   <i type="logical" name="LFERMIGW"> F  </i>
   <i type="logical" name="ODDONLYGW"> F  </i>
   <i type="logical" name="EVENONLYGW"> F  </i>
   <i type="int" name="NKREDLFX">     1</i>
   <i type="int" name="NKREDLFY">     1</i>
   <i type="int" name="NKREDLFZ">     1</i>
   <i type="int" name="MAXMEM">  2800</i>
   <i type="int" name="TELESCOPE">     0</i>
   <i type="int" name="NTAUPAR">    -1</i>
   <i type="int" name="NOMEGAPAR">    -1</i>
   <i name="DAMP_NEWTON">      0.80000001</i>
   <i name="LAMBDA">      1.00000000</i>
  </separator>
  <separator name="External order field" >
   <i name="OFIELD_KAPPA">      0.00000000</i>
   <v name="OFIELD_K">      0.00000000      0.00000000      0.00000000</v>
   <i name="OFIELD_Q6_NEAR">      0.00000000</i>
   <i name="OFIELD_Q6_FAR">      0.00000000</i>
   <i name="OFIELD_A">      0.00000000</i>
  </separator>
  <separator name="optional k-points parameters" >
   <i type="int" name="KPOINTS_OPT_MODE">     1</i>
   <i type="logical" name="LKPOINTS_OPT"> F  </i>
  </separator>
 </parameters>
 <atominfo>
  <atoms>       8 </atoms>
  <types>       2 </types>
  <array name="atoms" >
   <dimension dim="1">ion</dimension>
   <field type="string">element</field>
   <field type="int">atomtype</field>
   <set>
    <rc><c>Sn</c><c>   1</c></rc>
    <rc><c>Sn</c><c>   1</c></rc>
    <rc><c>Sn</c><c>   1</c></rc>
    <rc><c>Sn</c><c>   1</c></rc>
    <rc><c>S </c><c>   2</c></rc>
    <rc><c>S </c><c>   2</c></rc>
    <rc><c>S </c><c>   2</c></rc>
    <rc><c>S </c><c>   2</c></rc>
   </set>
  </array>
  <array name="atomtypes" >
   <dimension dim="1">type</dimension>
   <field type="int">atomspertype</field>
   <field type="string">element</field>
   <field>mass</field>
   <field>valence</field>
   <field type="string">pseudopotential</field>
   <set>
    <rc><c>   4</c><c>Sn</c><c>    118.71000000</c><c>     14.00000000</c><c>  PAW_PBE Sn_d 06Sep2000                </c></rc>
    <rc><c>   4</c><c>S </c><c>     32.06600000</c><c>      6.00000000</c><c>  PAW_PBE S 06Sep2000                   </c></rc>
   </set>
  </array>
 </atominfo>
 <structure name="initialpos" >
  <crystal>
   <varray name="basis" >
    <v>       3.95685521       0.00000000       0.00000000 </v>
    <v>      -0.00000000       4.53281069       0.00000000 </v>
    <v>       0.00000000       0.00000000      11.39201851 </v>
   </varray>
   <i name="volume">    204.32354836 </i>
   <varray name="rec_basis" >
    <v>       0.25272595       0.00000000       0.00000000 </v>
    <v>       0.00000000       0.22061367       0.00000000 </v>
    <v>      -0.00000000      -0.00000000       0.08778076 </v>
   </varray>
  </crystal>
  <varray name="positions" >
   <v>       0.25000000       0.36953984       0.62163275 </v>
   <v>       0.75000000       0.63046016       0.37836725 </v>
   <v>       0.75000000       0.86953984       0.87836725 </v>
   <v>       0.25000000       0.13046016       0.12163275 </v>
   <v>       0.25000000       0.01059680       0.34749746 </v>
   <v>       0.75000000       0.98940320       0.65250254 </v>
   <v>       0.75000000       0.51059680       0.15250254 </v>
   <v>       0.25000000       0.48940320       0.84749746 </v>
  </varray>
 </structure>
 <calculation>
  <scstep>
   <time name="dav">    0.25    0.33</time>
   <time name="total">    0.72    0.83</time>
   <energy>
    <i name="alphaZ">    164.67690988 </i>
    <i name="ewald">  -6009.93810534 </i>
    <i name="hartreedc">  -2402.51146919 </i>
    <i name="XCdc">    275.89987348 </i>
    <i name="pawpsdc">   7145.25035233 </i>
    <i name="pawaedc"> -11885.61482844 </i>
    <i name="eentropy">     -0.00042729 </i>
    <i name="bandstr">    191.92704929 </i>
    <i name="atom">   8669.54861131 </i>
    <i name="e_fr_energy">  -3850.76203397 </i>
    <i name="e_wo_entrp">  -3850.76160668 </i>
    <i name="e_0_energy">  -3850.76182032 </i>
   </energy>
  </scstep>
  <scstep>
   <time name="dav">    0.16    0.17</time>
   <time name="total">    0.16    0.17</time>
   <energy>
    <i name="e_fr_energy">  -4686.51323423 </i>
    <i name="e_wo_entrp">  -4686.51323423 </i>
    <i name="e_0_energy">  -4686.51323423 </i>
   </energy>
  </scstep>
  <scstep>
   <time name="dav">    0.16    0.18</time>
   <time name="total">    0.16    0.18</time>
   <energy>
    <i name="e_fr_energy">  -4834.16279241 </i>
    <i name="e_wo_entrp">  -4834.16279241 </i>
    <i name="e_0_energy">  -4834.16279241 </i>
   </energy>
  </scstep>
  <scstep>
   <time name="dav">    0.17    0.18</time>
   <time name="total">    0.17    0.18</time>
   <energy>
    <i name="e_fr_energy">  -4843.12092215 </i>
    <i name="e_wo_entrp">  -4843.12092215 </i>
    <i name="e_0_energy">  -4843.12092215 </i>
   </energy>
  </scstep>
  <scstep>
   <time name="dav">    1.43    1.49</time>
   <time name="total">    2.44    2.52</time>
   <energy>
    <i name="e_fr_energy">    -38.95449003 </i>
    <i name="e_wo_entrp">    -38.95449003 </i>
    <i name="e_0_energy">    -38.95449003 </i>
   </energy>
  </scstep>
  <scstep>
   <time name="dav">    1.36    1.37</time>
   <time name="total">    2.37    2.39</time>
   <energy>
    <i name="e_fr_energy">    -35.80605136 </i>
    <i name="e_wo_entrp">    -35.80605136 </i>
    <i name="e_0_energy">    -35.80605136 </i>
   </energy>
  </scstep>
  <scstep>
   <time name="dav">    1.36    1.37</time>
   <time name="total">    2.36    2.39</time>
   <energy>
    <i name="e_fr_energy">    -36.20354211 </i>
    <i name="e_wo_entrp">    -36.20354211 </i>
    <i name="e_0_energy">    -36.20354211 </i>
   </energy>
  </scstep>
  <scstep>
   <time name="dav">    1.38    1.38</time>
   <time name="total">    2.38    2.40</time>
   <energy>
    <i name="e_fr_energy">    -36.28514657 </i>
    <i name="e_wo_entrp">    -36.28514657 </i>
    <i name="e_0_energy">    -36.28514657 </i>
   </energy>
  </scstep>
  <scstep>
   <time name="dav">    1.38    1.38</time>
   <time name="total">    2.38    2.40</time>
   <energy>
    <i name="e_fr_energy">    -36.26901597 </i>
    <i name="e_wo_entrp">    -36.26901597 </i>
    <i name="e_0_energy">    -36.26901597 </i>
   </energy>
  </scstep>
  <scstep>
   <time name="dav">    1.42    1.42</time>
   <time name="total">    2.43    2.44</time>
   <energy>
    <i name="e_fr_energy">    -36.27505042 </i>
    <i name="e_wo_entrp">    -36.27505042 </i>
    <i name="e_0_energy">    -36.27505042 </i>
   </energy>
  </scstep>
  <scstep>
   <time name="dav">    1.61    1.62</time>
   <time name="total">    2.63    2.65</time>
   <energy>
    <i name="e_fr_energy">    -36.27741016 </i>
    <i name="e_wo_entrp">    -36.27741016 </i>
    <i name="e_0_energy">    -36.27741016 </i>
   </energy>
  </scstep>
  <scstep>
   <time name="dav">    1.55    1.55</time>
   <time name="total">    2.58    2.60</time>
   <energy>
    <i name="e_fr_energy">    -36.27806628 </i>
    <i name="e_wo_entrp">    -36.27806628 </i>
    <i name="e_0_energy">    -36.27806628 </i>
   </energy>
  </scstep>
  <scstep>
   <time name="dav">    1.37    1.37</time>
   <time name="total">    2.38    2.40</time>
   <energy>
    <i name="e_fr_energy">    -36.27851611 </i>
    <i name="e_wo_entrp">    -36.27851611 </i>
    <i name="e_0_energy">    -36.27851611 </i>
   </energy>
  </scstep>
  <scstep>
   <time name="dav">    1.36    1.36</time>
   <time name="total">    2.35    2.38</time>
   <energy>
    <i name="e_fr_energy">    -36.27873159 </i>
    <i name="e_wo_entrp">    -36.27873159 </i>
    <i name="e_0_energy">    -36.27873159 </i>
   </energy>
  </scstep>
  <scstep>
   <time name="dav">    1.36    1.36</time>
   <time name="total">    2.36    2.37</time>
   <energy>
    <i name="e_fr_energy">    -36.27882486 </i>
    <i name="e_wo_entrp">    -36.27882486 </i>
    <i name="e_0_energy">    -36.27882486 </i>
   </energy>
  </scstep>
  <scstep>
   <time name="dav">    1.34    1.35</time>
   <time name="total">    2.34    2.36</time>
   <energy>
    <i name="e_fr_energy">    -36.27886870 </i>
    <i name="e_wo_entrp">    -36.27886870 </i>
    <i name="e_0_energy">    -36.27886870 </i>
   </energy>
  </scstep>
  <scstep>
   <time name="dav">    1.34    1.34</time>
   <time name="total">    2.34    2.36</time>
   <energy>
    <i name="e_fr_energy">    -36.27888925 </i>
    <i name="e_wo_entrp">    -36.27888925 </i>
    <i name="e_0_energy">    -36.27888925 </i>
   </energy>
  </scstep>
  <scstep>
   <time name="dav">    1.33    1.33</time>
   <time name="total">    2.31    2.34</time>
   <energy>
    <i name="alphaZ">    164.67690988 </i>
    <i name="ewald">  -6009.93810534 </i>
    <i name="hartreedc">  -2403.87931308 </i>
    <i name="XCdc">    211.49046991 </i>
    <i name="pawpsdc">  10244.15378403 </i>
    <i name="pawaedc"> -10349.19935351 </i>
    <i name="eentropy">     -0.00000000 </i>
    <i name="bandstr">   -740.31829791 </i>
    <i name="atom">   8669.54861131 </i>
    <i name="e_fr_energy">    -36.27889884 </i>
    <i name="e_wo_entrp">    -36.27889884 </i>
    <i name="e_0_energy">    -36.27889884 </i>
   </energy>
  </scstep>
  <structure>
   <crystal>
    <varray name="basis" >
     <v>       3.95685521       0.00000000       0.00000000 </v>
     <v>      -0.00000000       4.53281069       0.00000000 </v>
     <v>       0.00000000       0.00000000      11.39201851 </v>
    </varray>
    <i name="volume">    204.32354836 </i>
    <varray name="rec_basis" >
     <v>       0.25272595       0.00000000       0.00000000 </v>
     <v>       0.00000000       0.22061367       0.00000000 </v>
     <v>      -0.00000000      -0.00000000       0.08778076 </v>
    </varray>
   </crystal>
   <varray name="positions" >
    <v>       0.25000000       0.36953984       0.62163275 </v>
    <v>       0.75000000       0.63046016       0.37836725 </v>
    <v>       0.75000000       0.86953984       0.87836725 </v>
    <v>       0.25000000       0.13046016       0.12163275 </v>
    <v>       0.25000000       0.01059680       0.34749746 </v>
    <v>       0.75000000       0.98940320       0.65250254 </v>
    <v>       0.75000000       0.51059680       0.15250254 </v>
    <v>       0.25000000       0.48940320       0.84749746 </v>
   </varray>
  </structure>
  <varray name="forces" >
   <v>       0.00000000      -0.34145593       0.70962302 </v>
   <v>      -0.00000000       0.34145593      -0.70962302 </v>
   <v>       0.00000000      -0.34145593      -0.70962302 </v>
   <v>      -0.00000000       0.34145593       0.70962302 </v>
   <v>       0.00000000      -0.08298713      -0.51827327 </v>
   <v>      -0.00000000       0.08298713       0.51827327 </v>
   <v>       0.00000000      -0.08298713       0.51827327 </v>
   <v>      -0.00000000       0.08298713      -0.51827327 </v>
  </varray>
  <energy>
   <i name="e_fr_energy">    -36.27889884 </i>
   <i name="e_wo_entrp">    -36.27889884 </i>
   <i name="e_0_energy">    -36.27889884 </i>
  </energy>
  <time name="totalsc">   39.73   40.30</time>
  <eigenvalues>
   <array>
    <dimension dim="1">band</dimension>
    <dimension dim="2">kpoint</dimension>
    <dimension dim="3">spin</dimension>
    <field>eigene</field>
    <field>occ</field>
    <set>
     <set comment="spin 1">
      <set comment="kpoint 1">
       <r>  -18.2480    1.0000 </r>
       <r>  -18.2432    1.0000 </r>
       <r>  -18.2374    1.0000 </r>
       <r>  -18.2339    1.0000 </r>
       <r>  -18.2278    1.0000 </r>
       <r>  -18.2257    1.0000 </r>
       <r>  -18.2215    1.0000 </r>
       <r>  -18.2193    1.0000 </r>
       <r>  -18.1851    1.0000 </r>
       <r>  -18.1717    1.0000 </r>
       <r>  -18.1607    1.0000 </r>
       <r>  -18.1600    1.0000 </r>
       <r>  -18.1496    1.0000 </r>
       <r>  -18.1474    1.0000 </r>
       <r>  -18.1316    1.0000 </r>
       <r>  -18.1212    1.0000 </r>
       <r>  -18.1209    1.0000 </r>
       <r>  -18.1195    1.0000 </r>
       <r>  -18.1098    1.0000 </r>
       <r>  -18.1081    1.0000 </r>
       <r>   -9.6334    1.0000 </r>
       <r>   -9.3389    1.0000 </r>
       <r>   -8.2649    1.0000 </r>
       <r>   -7.8212    1.0000 </r>
       <r>   -2.6749    1.0000 </r>
       <r>   -1.6459    1.0000 </r>
       <r>   -0.6273    1.0000 </r>
       <r>    0.2787    1.0000 </r>
       <r>    0.3272    1.0000 </r>
       <r>    1.2761    1.0000 </r>
       <r>    1.7246    1.0000 </r>
       <r>    1.7269    1.0000 </r>
       <r>    1.7759    1.0000 </r>
       <r>    2.0744    1.0000 </r>
       <r>    2.9500    1.0000 </r>
       <r>    3.0729    1.0000 </r>
       <r>    3.3941    1.0000 </r>
       <r>    4.2300    1.0000 </r>
       <r>    4.4677    1.0000 </r>
       <r>    5.1557    1.0000 </r>
       <r>    6.8921    0.0000 </r>
       <r>    8.7391    0.0000 </r>
       <r>    8.9508    0.0000 </r>
       <r>    9.0057    0.0000 </r>
       <r>    9.2503    0.0000 </r>
       <r>    9.7430    0.0000 </r>
       <r>    9.8889    0.0000 </r>
       <r>   11.0438    0.0000 </r>
       <r>   11.2577    0.0000 </r>
       <r>   11.5950    0.0000 </r>
       <r>   11.7098    0.0000 </r>
       <r>   12.2474    0.0000 </r>
       <r>   12.6675    0.0000 </r>
       <r>   13.0559    0.0000 </r>
       <r>   13.4970    0.0000 </r>
       <r>   13.6658    0.0000 </r>
       <r>   13.8524    0.0000 </r>
       <r>   14.5641    0.0000 </r>
       <r>   14.7957    0.0000 </r>
       <r>   14.9554    0.0000 </r>
      </set>
      <set comment="kpoint 2">
       <r>  -18.2403    1.0000 </r>
       <r>  -18.2403    1.0000 </r>
       <r>  -18.2344    1.0000 </r>
       <r>  -18.2344    1.0000 </r>
       <r>  -18.2250    1.0000 </r>
       <r>  -18.2250    1.0000 </r>
       <r>  -18.2201    1.0000 </r>
       <r>  -18.2201    1.0000 </r>
       <r>  -18.1606    1.0000 </r>
       <r>  -18.1606    1.0000 </r>
       <r>  -18.1577    1.0000 </r>
       <r>  -18.1577    1.0000 </r>
       <r>  -18.1502    1.0000 </r>
       <r>  -18.1502    1.0000 </r>
       <r>  -18.1206    1.0000 </r>
       <r>  -18.1206    1.0000 </r>
       <r>  -18.1193    1.0000 </r>
       <r>  -18.1193    1.0000 </r>
       <r>  -18.1115    1.0000 </r>
       <r>  -18.1115    1.0000 </r>
       <r>   -8.7318    1.0000 </r>
       <r>   -8.7318    1.0000 </r>
       <r>   -8.4879    1.0000 </r>
       <r>   -8.4879    1.0000 </r>
       <r>   -3.1200    1.0000 </r>
       <r>   -3.1200    1.0000 </r>
       <r>   -2.0713    1.0000 </r>
       <r>   -2.0713    1.0000 </r>
       <r>    2.2490    1.0000 </r>
       <r>    2.2490    1.0000 </r>
       <r>    2.4138    1.0000 </r>
       <r>    2.4138    1.0000 </r>
       <r>    2.7307    1.0000 </r>
       <r>    2.7307    1.0000 </r>
       <r>    2.9535    1.0000 </r>
       <r>    2.9535    1.0000 </r>
       <r>    4.4528    1.0000 </r>
       <r>    4.4528    1.0000 </r>
       <r>    5.3285    1.0000 </r>
       <r>    5.3285    1.0000 </r>
       <r>    7.6715    0.0000 </r>
       <r>    7.6715    0.0000 </r>
       <r>    8.0415    0.0000 </r>
       <r>    8.0415    0.0000 </r>
       <r>    8.7805    0.0000 </r>
       <r>    8.7805    0.0000 </r>
       <r>    9.6762    0.0000 </r>
       <r>    9.6762    0.0000 </r>
       <r>   10.0396    0.0000 </r>
       <r>   10.0396    0.0000 </r>
       <r>   11.2004    0.0000 </r>
       <r>   11.2004    0.0000 </r>
       <r>   13.8933    0.0000 </r>
       <r>   13.8933    0.0000 </r>
       <r>   14.5485    0.0000 </r>
       <r>   14.5485    0.0000 </r>
       <r>   14.9733    0.0000 </r>
       <r>   14.9733    0.0000 </r>
       <r>   15.4961    0.0000 </r>
       <r>   15.4976    0.0000 </r>
      </set>
      <set comment="kpoint 3">
       <r>  -18.2274    1.0000 </r>
       <r>  -18.2269    1.0000 </r>
       <r>  -18.2269    1.0000 </r>
       <r>  -18.2269    1.0000 </r>
       <r>  -18.2100    1.0000 </r>
       <r>  -18.2060    1.0000 </r>
       <r>  -18.2034    1.0000 </r>
       <r>  -18.2011    1.0000 </r>
       <r>  -18.1864    1.0000 </r>
       <r>  -18.1736    1.0000 </r>
       <r>  -18.1688    1.0000 </r>
       <r>  -18.1599    1.0000 </r>
       <r>  -18.1488    1.0000 </r>
       <r>  -18.1451    1.0000 </r>
       <r>  -18.1373    1.0000 </r>
       <r>  -18.1283    1.0000 </r>
       <r>  -18.1168    1.0000 </r>
       <r>  -18.1080    1.0000 </r>
       <r>  -18.1046    1.0000 </r>
       <r>  -18.1016    1.0000 </r>
       <r>   -9.0915    1.0000 </r>
       <r>   -8.8545    1.0000 </r>
       <r>   -8.0620    1.0000 </r>
       <r>   -7.8080    1.0000 </r>
       <r>   -3.0244    1.0000 </r>
       <r>   -2.2764    1.0000 </r>
       <r>   -1.4301    1.0000 </r>
       <r>   -1.1634    1.0000 </r>
       <r>    0.4614    1.0000 </r>
       <r>    1.5187    1.0000 </r>
       <r>    1.8189    1.0000 </r>
       <r>    1.9443    1.0000 </r>
       <r>    2.1492    1.0000 </r>
       <r>    2.3104    1.0000 </r>
       <r>    3.0363    1.0000 </r>
       <r>    3.1624    1.0000 </r>
       <r>    3.4057    1.0000 </r>
       <r>    4.3767    1.0000 </r>
       <r>    4.5636    1.0000 </r>
       <r>    5.0474    1.0000 </r>
       <r>    6.8564    0.0000 </r>
       <r>    7.5933    0.0000 </r>
       <r>    8.2182    0.0000 </r>
       <r>    8.3765    0.0000 </r>
       <r>    8.7626    0.0000 </r>
       <r>    9.2502    0.0000 </r>
       <r>    9.5455    0.0000 </r>
       <r>    9.9046    0.0000 </r>
       <r>   10.6218    0.0000 </r>
       <r>   10.7123    0.0000 </r>
       <r>   11.2420    0.0000 </r>
       <r>   11.4730    0.0000 </r>
       <r>   12.5580    0.0000 </r>
       <r>   13.0130    0.0000 </r>
       <r>   13.0673    0.0000 </r>
       <r>   13.7913    0.0000 </r>
       <r>   13.8718    0.0000 </r>
       <r>   14.0988    0.0000 </r>
       <r>   15.0329    0.0000 </r>
       <r>   15.4581    0.0000 </r>
      </set>
     </set>
     <set comment="spin 2">
      <set comment="kpoint 1">
       <r>  -18.2481    1.0000 </r>
       <r>  -18.2433    1.0000 </r>
       <r>  -18.2375    1.0000 </r>
       <r>  -18.2340    1.0000 </r>
       <r>  -18.2279    1.0000 </r>
       <r>  -18.2258    1.0000 </r>
       <r>  -18.2216    1.0000 </r>
       <r>  -18.2194    1.0000 </r>
       <r>  -18.1852    1.0000 </r>
       <r>  -18.1718    1.0000 </r>
       <r>  -18.1608    1.0000 </r>
       <r>  -18.1601    1.0000 </r>
       <r>  -18.1497    1.0000 </r>
       <r>  -18.1475    1.0000 </r>
       <r>  -18.1317    1.0000 </r>
       <r>  -18.1213    1.0000 </r>
       <r>  -18.1210    1.0000 </r>
       <r>  -18.1196    1.0000 </r>
       <r>  -18.1099    1.0000 </r>
       <r>  -18.1082    1.0000 </r>
       <r>   -9.6337    1.0000 </r>
       <r>   -9.3393    1.0000 </r>
       <r>   -8.2652    1.0000 </r>
       <r>   -7.8215    1.0000 </r>
       <r>   -2.6753    1.0000 </r>
       <r>   -1.6462    1.0000 </r>
       <r>   -0.6278    1.0000 </r>
       <r>    0.2782    1.0000 </r>
       <r>    0.3268    1.0000 </r>
       <r>    1.2757    1.0000 </r>
       <r>    1.7242    1.0000 </r>
       <r>    1.7265    1.0000 </r>
       <r>    1.7755    1.0000 </r>
       <r>    2.0740    1.0000 </r>
       <r>    2.9497    1.0000 </r>
       <r>    3.0725    1.0000 </r>
       <r>    3.3938    1.0000 </r>
       <r>    4.2296    1.0000 </r>
       <r>    4.4673    1.0000 </r>
       <r>    5.1553    1.0000 </r>
       <r>    6.8915    0.0000 </r>
       <r>    8.7385    0.0000 </r>
       <r>    8.9503    0.0000 </r>
       <r>    9.0051    0.0000 </r>
       <r>    9.2498    0.0000 </r>
       <r>    9.7424    0.0000 </r>
       <r>    9.8885    0.0000 </r>
       <r>   11.0434    0.0000 </r>
       <r>   11.2573    0.0000 </r>
       <r>   11.5944    0.0000 </r>
       <r>   11.7094    0.0000 </r>
       <r>   12.2466    0.0000 </r>
       <r>   12.6671    0.0000 </r>
       <r>   13.0554    0.0000 </r>
       <r>   13.4964    0.0000 </r>
       <r>   13.6651    0.0000 </r>
       <r>   13.8518    0.0000 </r>
       <r>   14.5635    0.0000 </r>
       <r>   14.7951    0.0000 </r>
       <r>   14.9550    0.0000 </r>
      </set>
      <set comment="kpoint 2">
       <r>  -18.2404    1.0000 </r>
       <r>  -18.2404    1.0000 </r>
       <r>  -18.2345    1.0000 </r>
       <r>  -18.2345    1.0000 </r>
       <r>  -18.2251    1.0000 </r>
       <r>  -18.2251    1.0000 </r>
       <r>  -18.2202    1.0000 </r>
       <r>  -18.2202    1.0000 </r>
       <r>  -18.1608    1.0000 </r>
       <r>  -18.1608    1.0000 </r>
       <r>  -18.1578    1.0000 </r>
       <r>  -18.1578    1.0000 </r>
       <r>  -18.1503    1.0000 </r>
       <r>  -18.1503    1.0000 </r>
       <r>  -18.1207    1.0000 </r>
       <r>  -18.1207    1.0000 </r>
       <r>  -18.1194    1.0000 </r>
       <r>  -18.1194    1.0000 </r>
       <r>  -18.1116    1.0000 </r>
       <r>  -18.1116    1.0000 </r>
       <r>   -8.7322    1.0000 </r>
       <r>   -8.7322    1.0000 </r>
       <r>   -8.4883    1.0000 </r>
       <r>   -8.4883    1.0000 </r>
       <r>   -3.1205    1.0000 </r>
       <r>   -3.1205    1.0000 </r>
       <r>   -2.0717    1.0000 </r>
       <r>   -2.0717    1.0000 </r>
       <r>    2.2485    1.0000 </r>
       <r>    2.2485    1.0000 </r>
       <r>    2.4134    1.0000 </r>
       <r>    2.4134    1.0000 </r>
       <r>    2.7303    1.0000 </r>
       <r>    2.7303    1.0000 </r>
       <r>    2.9532    1.0000 </r>
       <r>    2.9532    1.0000 </r>
       <r>    4.4524    1.0000 </r>
       <r>    4.4524    1.0000 </r>
       <r>    5.3281    1.0000 </r>
       <r>    5.3281    1.0000 </r>
       <r>    7.6710    0.0000 </r>
       <r>    7.6710    0.0000 </r>
       <r>    8.0410    0.0000 </r>
       <r>    8.0410    0.0000 </r>
       <r>    8.7800    0.0000 </r>
       <r>    8.7800    0.0000 </r>
       <r>    9.6758    0.0000 </r>
       <r>    9.6758    0.0000 </r>
       <r>   10.0391    0.0000 </r>
       <r>   10.0391    0.0000 </r>
       <r>   11.1999    0.0000 </r>
       <r>   11.1999    0.0000 </r>
       <r>   13.8925    0.0000 </r>
       <r>   13.8925    0.0000 </r>
       <r>   14.5479    0.0000 </r>
       <r>   14.5479    0.0000 </r>
       <r>   14.9725    0.0000 </r>
       <r>   14.9725    0.0000 </r>
       <r>   15.4946    0.0000 </r>
       <r>   15.4984    0.0000 </r>
      </set>
      <set comment="kpoint 3">
       <r>  -18.2275    1.0000 </r>
       <r>  -18.2271    1.0000 </r>
       <r>  -18.2270    1.0000 </r>
       <r>  -18.2270    1.0000 </r>
       <r>  -18.2101    1.0000 </r>
       <r>  -18.2061    1.0000 </r>
       <r>  -18.2035    1.0000 </r>
       <r>  -18.2012    1.0000 </r>
       <r>  -18.1866    1.0000 </r>
       <r>  -18.1737    1.0000 </r>
       <r>  -18.1689    1.0000 </r>
       <r>  -18.1601    1.0000 </r>
       <r>  -18.1490    1.0000 </r>
       <r>  -18.1452    1.0000 </r>
       <r>  -18.1374    1.0000 </r>
       <r>  -18.1284    1.0000 </r>
       <r>  -18.1169    1.0000 </r>
       <r>  -18.1081    1.0000 </r>
       <r>  -18.1047    1.0000 </r>
       <r>  -18.1018    1.0000 </r>
       <r>   -9.0919    1.0000 </r>
       <r>   -8.8548    1.0000 </r>
       <r>   -8.0624    1.0000 </r>
       <r>   -7.8083    1.0000 </r>
       <r>   -3.0248    1.0000 </r>
       <r>   -2.2768    1.0000 </r>
       <r>   -1.4305    1.0000 </r>
       <r>   -1.1637    1.0000 </r>
       <r>    0.4610    1.0000 </r>
       <r>    1.5183    1.0000 </r>
       <r>    1.8185    1.0000 </r>
       <r>    1.9439    1.0000 </r>
       <r>    2.1489    1.0000 </r>
       <r>    2.3100    1.0000 </r>
       <r>    3.0359    1.0000 </r>
       <r>    3.1620    1.0000 </r>
       <r>    3.4053    1.0000 </r>
       <r>    4.3763    1.0000 </r>
       <r>    4.5632    1.0000 </r>
       <r>    5.0470    1.0000 </r>
       <r>    6.8558    0.0000 </r>
       <r>    7.5928    0.0000 </r>
       <r>    8.2177    0.0000 </r>
       <r>    8.3760    0.0000 </r>
       <r>    8.7621    0.0000 </r>
       <r>    9.2497    0.0000 </r>
       <r>    9.5450    0.0000 </r>
       <r>    9.9041    0.0000 </r>
       <r>   10.6214    0.0000 </r>
       <r>   10.7117    0.0000 </r>
       <r>   11.2415    0.0000 </r>
       <r>   11.4726    0.0000 </r>
       <r>   12.5573    0.0000 </r>
       <r>   13.0124    0.0000 </r>
       <r>   13.0666    0.0000 </r>
       <r>   13.7906    0.0000 </r>
       <r>   13.8711    0.0000 </r>
       <r>   14.0981    0.0000 </r>
       <r>   15.0322    0.0000 </r>
       <r>   15.4572    0.0000 </r>
      </set>
     </set>
    </set>
   </array>
  </eigenvalues>
  <separator name="orbital magnetization" >
   <v name="MAGDIPOLOUT">      0.00000000      0.00000000      0.00000000</v>
  </separator>
  <dos>
   <i name="efermi">      5.46163065 </i>
   <total>
    <array>
     <dimension dim="1">gridpoints</dimension>
     <dimension dim="2">spin</dimension>
     <field>energy</field>
     <field>total</field>
     <field>integrated</field>
     <set>
      <set comment="spin 1">
       <r>   -19.9354     0.0000     0.0000 </r>
       <r>   -19.8117     0.0000     0.0000 </r>
       <r>   -19.6879     0.0000     0.0000 </r>
       <r>   -19.5642     0.0000     0.0000 </r>
       <r>   -19.4404     0.0000     0.0000 </r>
       <r>   -19.3167     0.0000     0.0000 </r>
       <r>   -19.1930     0.0000     0.0000 </r>
       <r>   -19.0692     0.0000     0.0000 </r>
       <r>   -18.9455     0.0000     0.0000 </r>
       <r>   -18.8218     0.0000     0.0000 </r>
       <r>   -18.6980     0.0000     0.0000 </r>
       <r>   -18.5743     0.0000     0.0000 </r>
       <r>   -18.4505     0.0000     0.0000 </r>
       <r>   -18.3268     0.0000     0.0000 </r>
       <r>   -18.2031    60.2976     7.4610 </r>
       <r>   -18.0793    70.0382    19.9997 </r>
       <r>   -17.9556     0.0000    20.0000 </r>
       <r>   -17.8319     0.0000    20.0000 </r>
       <r>   -17.7081     0.0000    20.0000 </r>
       <r>   -17.5844     0.0000    20.0000 </r>
       <r>   -17.4607     0.0000    20.0000 </r>
       <r>   -17.3369     0.0000    20.0000 </r>
       <r>   -17.2132     0.0000    20.0000 </r>
       <r>   -17.0894     0.0000    20.0000 </r>
       <r>   -16.9657     0.0000    20.0000 </r>
       <r>   -16.8420     0.0000    20.0000 </r>
       <r>   -16.7182     0.0000    20.0000 </r>
       <r>   -16.5945     0.0000    20.0000 </r>
       <r>   -16.4708     0.0000    20.0000 </r>
       <r>   -16.3470     0.0000    20.0000 </r>
       <r>   -16.2233     0.0000    20.0000 </r>
       <r>   -16.0995     0.0000    20.0000 </r>
       <r>   -15.9758     0.0000    20.0000 </r>
       <r>   -15.8521     0.0000    20.0000 </r>
       <r>   -15.7283     0.0000    20.0000 </r>
       <r>   -15.6046     0.0000    20.0000 </r>
       <r>   -15.4809     0.0000    20.0000 </r>
       <r>   -15.3571     0.0000    20.0000 </r>
       <r>   -15.2334     0.0000    20.0000 </r>
       <r>   -15.1097     0.0000    20.0000 </r>
       <r>   -14.9859     0.0000    20.0000 </r>
       <r>   -14.8622     0.0000    20.0000 </r>
       <r>   -14.7384     0.0000    20.0000 </r>
       <r>   -14.6147     0.0000    20.0000 </r>
       <r>   -14.4910     0.0000    20.0000 </r>
       <r>   -14.3672     0.0000    20.0000 </r>
       <r>   -14.2435     0.0000    20.0000 </r>
       <r>   -14.1198     0.0000    20.0000 </r>
       <r>   -13.9960     0.0000    20.0000 </r>
       <r>   -13.8723     0.0000    20.0000 </r>
       <r>   -13.7485     0.0000    20.0000 </r>
       <r>   -13.6248     0.0000    20.0000 </r>
       <r>   -13.5011     0.0000    20.0000 </r>
       <r>   -13.3773     0.0000    20.0000 </r>
       <r>   -13.2536     0.0000    20.0000 </r>
       <r>   -13.1299     0.0000    20.0000 </r>
       <r>   -13.0061     0.0000    20.0000 </r>
       <r>   -12.8824     0.0000    20.0000 </r>
       <r>   -12.7586     0.0000    20.0000 </r>
       <r>   -12.6349     0.0000    20.0000 </r>
       <r>   -12.5112     0.0000    20.0000 </r>
       <r>   -12.3874     0.0000    20.0000 </r>
       <r>   -12.2637     0.0000    20.0000 </r>
       <r>   -12.1400     0.0000    20.0000 </r>
       <r>   -12.0162     0.0000    20.0000 </r>
       <r>   -11.8925     0.0000    20.0000 </r>
       <r>   -11.7688     0.0000    20.0000 </r>
       <r>   -11.6450     0.0000    20.0000 </r>
       <r>   -11.5213     0.0000    20.0000 </r>
       <r>   -11.3975     0.0000    20.0000 </r>
       <r>   -11.2738     0.0000    20.0000 </r>
       <r>   -11.1501     0.0000    20.0000 </r>
       <r>   -11.0263     0.0000    20.0000 </r>
       <r>   -10.9026     0.0000    20.0000 </r>
       <r>   -10.7789     0.0000    20.0000 </r>
       <r>   -10.6551     0.0000    20.0000 </r>
       <r>   -10.5314     0.0000    20.0000 </r>
       <r>   -10.4076     0.0000    20.0000 </r>
       <r>   -10.2839     0.0000    20.0000 </r>
       <r>   -10.1602     0.0000    20.0000 </r>
       <r>   -10.0364     0.0000    20.0000 </r>
       <r>    -9.9127     0.0000    20.0000 </r>
       <r>    -9.7890     0.0000    20.0000 </r>
       <r>    -9.6652     0.0000    20.0000 </r>
       <r>    -9.5415     0.0000    20.3333 </r>
       <r>    -9.4177     0.0000    20.3333 </r>
       <r>    -9.2940     2.6939    20.6667 </r>
       <r>    -9.1703     0.0000    20.6667 </r>
       <r>    -9.0465     2.6939    21.0000 </r>
       <r>    -8.9228     0.0000    21.0000 </r>
       <r>    -8.7991     2.6939    21.3333 </r>
       <r>    -8.6753     5.3878    22.0000 </r>
       <r>    -8.5516     0.0000    22.0000 </r>
       <r>    -8.4279     5.3878    22.6667 </r>
       <r>    -8.3041     0.0000    22.6667 </r>
       <r>    -8.1804     0.0000    23.0000 </r>
       <r>    -8.0566     2.0952    23.2593 </r>
       <r>    -7.9329     0.0000    23.3333 </r>
       <r>    -7.8092     3.7482    23.7971 </r>
       <r>    -7.6854     0.0000    24.0000 </r>
       <r>    -7.5617     0.0000    24.0000 </r>
       <r>    -7.4380     0.0000    24.0000 </r>
       <r>    -7.3142     0.0000    24.0000 </r>
       <r>    -7.1905     0.0000    24.0000 </r>
       <r>    -7.0667     0.0000    24.0000 </r>
       <r>    -6.9430     0.0000    24.0000 </r>
       <r>    -6.8193     0.0000    24.0000 </r>
       <r>    -6.6955     0.0000    24.0000 </r>
       <r>    -6.5718     0.0000    24.0000 </r>
       <r>    -6.4481     0.0000    24.0000 </r>
       <r>    -6.3243     0.0000    24.0000 </r>
       <r>    -6.2006     0.0000    24.0000 </r>
       <r>    -6.0768     0.0000    24.0000 </r>
       <r>    -5.9531     0.0000    24.0000 </r>
       <r>    -5.8294     0.0000    24.0000 </r>
       <r>    -5.7056     0.0000    24.0000 </r>
       <r>    -5.5819     0.0000    24.0000 </r>
       <r>    -5.4582     0.0000    24.0000 </r>
       <r>    -5.3344     0.0000    24.0000 </r>
       <r>    -5.2107     0.0000    24.0000 </r>
       <r>    -5.0870     0.0000    24.0000 </r>
       <r>    -4.9632     0.0000    24.0000 </r>
       <r>    -4.8395     0.0000    24.0000 </r>
       <r>    -4.7157     0.0000    24.0000 </r>
       <r>    -4.5920     0.0000    24.0000 </r>
       <r>    -4.4683     0.0000    24.0000 </r>
       <r>    -4.3445     0.0000    24.0000 </r>
       <r>    -4.2208     0.0000    24.0000 </r>
       <r>    -4.0971     0.0000    24.0000 </r>
       <r>    -3.9733     0.0000    24.0000 </r>
       <r>    -3.8496     0.0000    24.0000 </r>
       <r>    -3.7258     0.0000    24.0000 </r>
       <r>    -3.6021     0.0000    24.0000 </r>
       <r>    -3.4784     0.0000    24.0000 </r>
       <r>    -3.3546     0.0000    24.0000 </r>
       <r>    -3.2309     0.0000    24.0000 </r>
       <r>    -3.1072     5.2023    24.6437 </r>
       <r>    -2.9834     2.6939    25.0000 </r>
       <r>    -2.8597     0.0000    25.0000 </r>
       <r>    -2.7359     0.0000    25.0000 </r>
       <r>    -2.6122     2.6939    25.3333 </r>
       <r>    -2.4885     0.0000    25.3333 </r>
       <r>    -2.3647     0.0000    25.3333 </r>
       <r>    -2.2410     2.6939    25.6667 </r>
       <r>    -2.1173     0.0000    25.6667 </r>
       <r>    -1.9935     5.3878    26.3333 </r>
       <r>    -1.8698     0.0000    26.3333 </r>
       <r>    -1.7461     0.0000    26.3333 </r>
       <r>    -1.6223     2.6927    26.6665 </r>
       <r>    -1.4986     0.0000    26.6667 </r>
       <r>    -1.3748     2.6939    27.0000 </r>
       <r>    -1.2511     0.0000    27.0000 </r>
       <r>    -1.1274     2.6939    27.3333 </r>
       <r>    -1.0036     0.0000    27.3333 </r>
       <r>    -0.8799     0.0000    27.3333 </r>
       <r>    -0.7562     0.0000    27.3333 </r>
       <r>    -0.6324     0.6322    27.4116 </r>
       <r>    -0.5087     0.0000    27.6667 </r>
       <r>    -0.3849     0.0000    27.6667 </r>
       <r>    -0.2612     0.0000    27.6667 </r>
       <r>    -0.1375     0.0000    27.6667 </r>
       <r>    -0.0137     0.0000    27.6667 </r>
       <r>     0.1100     0.0000    27.6667 </r>
       <r>     0.2337     0.0000    27.6667 </r>
       <r>     0.3575     5.3877    28.3333 </r>
       <r>     0.4812     2.6869    28.6658 </r>
       <r>     0.6050     0.0000    28.6667 </r>
       <r>     0.7287     0.0000    28.6667 </r>
       <r>     0.8524     0.0000    28.6667 </r>
       <r>     0.9762     0.0000    28.6667 </r>
       <r>     1.0999     0.0000    28.6667 </r>
       <r>     1.2236     0.0000    28.6667 </r>
       <r>     1.3474     2.6939    29.0000 </r>
       <r>     1.4711     0.0000    29.0000 </r>
       <r>     1.5948     2.6939    29.3333 </r>
       <r>     1.7186     0.8548    29.4391 </r>
       <r>     1.8423     5.3866    30.6665 </r>
       <r>     1.9661     2.6911    30.9997 </r>
       <r>     2.0898     2.6549    31.3285 </r>
       <r>     2.2135     2.6939    31.6667 </r>
       <r>     2.3373     2.6937    32.6666 </r>
       <r>     2.4610     5.3878    33.3333 </r>
       <r>     2.5847     0.0000    33.3333 </r>
       <r>     2.7085     0.0046    33.3339 </r>
       <r>     2.8322     0.0000    34.0000 </r>
       <r>     2.9560     5.5689    34.6891 </r>
       <r>     3.0797     4.9325    35.6103 </r>
       <r>     3.2034     2.6939    36.0000 </r>
       <r>     3.3272     0.0000    36.0000 </r>
       <r>     3.4509     5.3878    36.6667 </r>
       <r>     3.5746     0.0000    36.6667 </r>
       <r>     3.6984     0.0000    36.6667 </r>
       <r>     3.8221     0.0000    36.6667 </r>
       <r>     3.9459     0.0000    36.6667 </r>
       <r>     4.0696     0.0000    36.6667 </r>
       <r>     4.1933     0.0000    36.6667 </r>
       <r>     4.3171     0.0000    37.0000 </r>
       <r>     4.4408     2.9386    37.3636 </r>
       <r>     4.5645     1.4847    38.5170 </r>
       <r>     4.6883     0.0000    38.6667 </r>
       <r>     4.8120     0.0000    38.6667 </r>
       <r>     4.9357     0.0000    38.6667 </r>
       <r>     5.0595     2.5770    38.9855 </r>
       <r>     5.1832     2.6938    39.3333 </r>
       <r>     5.3070     0.0063    39.3341 </r>
       <r>     5.4307     0.0000    40.0000 </r>
       <r>     5.5544     0.0000    40.0000 </r>
       <r>     5.6782     0.0000    40.0000 </r>
       <r>     5.8019     0.0000    40.0000 </r>
       <r>     5.9256     0.0000    40.0000 </r>
       <r>     6.0494     0.0000    40.0000 </r>
       <r>     6.1731     0.0000    40.0000 </r>
       <r>     6.2969     0.0000    40.0000 </r>
       <r>     6.4206     0.0000    40.0000 </r>
       <r>     6.5443     0.0000    40.0000 </r>
       <r>     6.6681     0.0000    40.0000 </r>
       <r>     6.7918     0.0000    40.0000 </r>
       <r>     6.9155     5.3865    40.6665 </r>
       <r>     7.0393     0.0000    40.6667 </r>
       <r>     7.1630     0.0000    40.6667 </r>
       <r>     7.2868     0.0000    40.6667 </r>
       <r>     7.4105     0.0000    40.6667 </r>
       <r>     7.5342     0.0000    40.6667 </r>
       <r>     7.6580     2.8420    41.0183 </r>
       <r>     7.7817     0.0000    41.6667 </r>
       <r>     7.9054     0.0000    41.6667 </r>
       <r>     8.0292     0.2160    41.6934 </r>
       <r>     8.1529     0.0000    42.3333 </r>
       <r>     8.2766     2.6939    42.6667 </r>
       <r>     8.4004     2.6929    42.9999 </r>
       <r>     8.5241     0.0000    43.0000 </r>
       <r>     8.6479     0.0000    43.0000 </r>
       <r>     8.7716     5.6743    43.7021 </r>
       <r>     8.8953     0.0000    44.3333 </r>
       <r>     9.0191     5.3100    44.9904 </r>
       <r>     9.1428     0.0000    45.0000 </r>
       <r>     9.2665     5.3307    45.6596 </r>
       <r>     9.3903     0.0000    45.6667 </r>
       <r>     9.5140     0.0000    45.6667 </r>
       <r>     9.6378     0.0000    46.0000 </r>
       <r>     9.7615     2.6820    46.9985 </r>
       <r>     9.8852     0.8206    47.1015 </r>
       <r>    10.0090     0.0000    47.6667 </r>
       <r>    10.1327     0.0000    48.3333 </r>
       <r>    10.2564     0.0000    48.3333 </r>
       <r>    10.3802     0.0000    48.3333 </r>
       <r>    10.5039     0.0000    48.3333 </r>
       <r>    10.6277     2.1458    48.5989 </r>
       <r>    10.7514     2.6939    49.0000 </r>
       <r>    10.8751     0.0000    49.0000 </r>
       <r>    10.9989     0.0000    49.0000 </r>
       <r>    11.1226     2.6939    49.3333 </r>
       <r>    11.2463     7.5009    50.2615 </r>
       <r>    11.3701     0.0000    50.6667 </r>
       <r>    11.4938     2.6895    50.9995 </r>
       <r>    11.6175     2.6920    51.3331 </r>
       <r>    11.7413     2.6939    51.6667 </r>
       <r>    11.8650     0.0000    51.6667 </r>
       <r>    11.9888     0.0000    51.6667 </r>
       <r>    12.1125     0.0000    51.6667 </r>
       <r>    12.2362     0.1548    51.6858 </r>
       <r>    12.3600     0.0000    52.0000 </r>
       <r>    12.4837     0.0000    52.0000 </r>
       <r>    12.6074     2.6939    52.3333 </r>
       <r>    12.7312     2.6939    52.6667 </r>
       <r>    12.8549     0.0000    52.6667 </r>
       <r>    12.9787     0.0000    52.6667 </r>
       <r>    13.1024     5.3878    53.6667 </r>
       <r>    13.2261     0.0000    53.6667 </r>
       <r>    13.3499     0.0000    53.6667 </r>
       <r>    13.4736     0.0012    53.6668 </r>
       <r>    13.5973     0.0000    54.0000 </r>
       <r>    13.7211     2.6939    54.3333 </r>
       <r>    13.8448     3.0777    54.7142 </r>
       <r>    13.9686     5.3878    56.0000 </r>
       <r>    14.0923     0.4799    56.0594 </r>
       <r>    14.2160     0.0000    56.3333 </r>
       <r>    14.3398     0.0000    56.3333 </r>
       <r>    14.4635     0.0000    56.3333 </r>
       <r>    14.5872     8.0802    57.3332 </r>
       <r>    14.7110     0.0000    57.3333 </r>
       <r>    14.8347     2.6939    57.6667 </r>
       <r>    14.9584     1.8849    57.8999 </r>
       <r>    15.0822     2.6939    59.0000 </r>
       <r>    15.2059     0.0000    59.0000 </r>
       <r>    15.3297     0.0000    59.0000 </r>
       <r>    15.4534     0.6809    59.0843 </r>
       <r>    15.5771     2.6939    60.0000 </r>
       <r>    15.7009     0.0000    60.0000 </r>
       <r>    15.8246     0.0000    60.0000 </r>
       <r>    15.9483     0.0000    60.0000 </r>
       <r>    16.0721     0.0000    60.0000 </r>
       <r>    16.1958     0.0000    60.0000 </r>
       <r>    16.3196     0.0000    60.0000 </r>
       <r>    16.4433     0.0000    60.0000 </r>
       <r>    16.5670     0.0000    60.0000 </r>
       <r>    16.6908     0.0000    60.0000 </r>
       <r>    16.8145     0.0000    60.0000 </r>
       <r>    16.9382     0.0000    60.0000 </r>
       <r>    17.0620     0.0000    60.0000 </r>
       <r>    17.1857     0.0000    60.0000 </r>
      </set>
      <set comment="spin 2">
       <r>   -19.9354     0.0000     0.0000 </r>
       <r>   -19.8117     0.0000     0.0000 </r>
       <r>   -19.6879     0.0000     0.0000 </r>
       <r>   -19.5642     0.0000     0.0000 </r>
       <r>   -19.4404     0.0000     0.0000 </r>
       <r>   -19.3167     0.0000     0.0000 </r>
       <r>   -19.1930     0.0000     0.0000 </r>
       <r>   -19.0692     0.0000     0.0000 </r>
       <r>   -18.9455     0.0000     0.0000 </r>
       <r>   -18.8218     0.0000     0.0000 </r>
       <r>   -18.6980     0.0000     0.0000 </r>
       <r>   -18.5743     0.0000     0.0000 </r>
       <r>   -18.4505     0.0000     0.0000 </r>
       <r>   -18.3268     0.0000     0.0000 </r>
       <r>   -18.2031    60.3637     7.4692 </r>
       <r>   -18.0793    70.0384    19.9997 </r>
       <r>   -17.9556     0.0000    20.0000 </r>
       <r>   -17.8319     0.0000    20.0000 </r>
       <r>   -17.7081     0.0000    20.0000 </r>
       <r>   -17.5844     0.0000    20.0000 </r>
       <r>   -17.4607     0.0000    20.0000 </r>
       <r>   -17.3369     0.0000    20.0000 </r>
       <r>   -17.2132     0.0000    20.0000 </r>
       <r>   -17.0894     0.0000    20.0000 </r>
       <r>   -16.9657     0.0000    20.0000 </r>
       <r>   -16.8420     0.0000    20.0000 </r>
       <r>   -16.7182     0.0000    20.0000 </r>
       <r>   -16.5945     0.0000    20.0000 </r>
       <r>   -16.4708     0.0000    20.0000 </r>
       <r>   -16.3470     0.0000    20.0000 </r>
       <r>   -16.2233     0.0000    20.0000 </r>
       <r>   -16.0995     0.0000    20.0000 </r>
       <r>   -15.9758     0.0000    20.0000 </r>
       <r>   -15.8521     0.0000    20.0000 </r>
       <r>   -15.7283     0.0000    20.0000 </r>
       <r>   -15.6046     0.0000    20.0000 </r>
       <r>   -15.4809     0.0000    20.0000 </r>
       <r>   -15.3571     0.0000    20.0000 </r>
       <r>   -15.2334     0.0000    20.0000 </r>
       <r>   -15.1097     0.0000    20.0000 </r>
       <r>   -14.9859     0.0000    20.0000 </r>
       <r>   -14.8622     0.0000    20.0000 </r>
       <r>   -14.7384     0.0000    20.0000 </r>
       <r>   -14.6147     0.0000    20.0000 </r>
       <r>   -14.4910     0.0000    20.0000 </r>
       <r>   -14.3672     0.0000    20.0000 </r>
       <r>   -14.2435     0.0000    20.0000 </r>
       <r>   -14.1198     0.0000    20.0000 </r>
       <r>   -13.9960     0.0000    20.0000 </r>
       <r>   -13.8723     0.0000    20.0000 </r>
       <r>   -13.7485     0.0000    20.0000 </r>
       <r>   -13.6248     0.0000    20.0000 </r>
       <r>   -13.5011     0.0000    20.0000 </r>
       <r>   -13.3773     0.0000    20.0000 </r>
       <r>   -13.2536     0.0000    20.0000 </r>
       <r>   -13.1299     0.0000    20.0000 </r>
       <r>   -13.0061     0.0000    20.0000 </r>
       <r>   -12.8824     0.0000    20.0000 </r>
       <r>   -12.7586     0.0000    20.0000 </r>
       <r>   -12.6349     0.0000    20.0000 </r>
       <r>   -12.5112     0.0000    20.0000 </r>
       <r>   -12.3874     0.0000    20.0000 </r>
       <r>   -12.2637     0.0000    20.0000 </r>
       <r>   -12.1400     0.0000    20.0000 </r>
       <r>   -12.0162     0.0000    20.0000 </r>
       <r>   -11.8925     0.0000    20.0000 </r>
       <r>   -11.7688     0.0000    20.0000 </r>
       <r>   -11.6450     0.0000    20.0000 </r>
       <r>   -11.5213     0.0000    20.0000 </r>
       <r>   -11.3975     0.0000    20.0000 </r>
       <r>   -11.2738     0.0000    20.0000 </r>
       <r>   -11.1501     0.0000    20.0000 </r>
       <r>   -11.0263     0.0000    20.0000 </r>
       <r>   -10.9026     0.0000    20.0000 </r>
       <r>   -10.7789     0.0000    20.0000 </r>
       <r>   -10.6551     0.0000    20.0000 </r>
       <r>   -10.5314     0.0000    20.0000 </r>
       <r>   -10.4076     0.0000    20.0000 </r>
       <r>   -10.2839     0.0000    20.0000 </r>
       <r>   -10.1602     0.0000    20.0000 </r>
       <r>   -10.0364     0.0000    20.0000 </r>
       <r>    -9.9127     0.0000    20.0000 </r>
       <r>    -9.7890     0.0000    20.0000 </r>
       <r>    -9.6652     0.0000    20.0000 </r>
       <r>    -9.5415     0.0000    20.3333 </r>
       <r>    -9.4177     0.0000    20.3333 </r>
       <r>    -9.2940     2.6939    20.6667 </r>
       <r>    -9.1703     0.0000    20.6667 </r>
       <r>    -9.0465     2.6939    21.0000 </r>
       <r>    -8.9228     0.0000    21.0000 </r>
       <r>    -8.7991     2.6939    21.3333 </r>
       <r>    -8.6753     5.3878    22.0000 </r>
       <r>    -8.5516     0.0000    22.0000 </r>
       <r>    -8.4279     5.3878    22.6667 </r>
       <r>    -8.3041     0.0000    22.6667 </r>
       <r>    -8.1804     0.0000    23.0000 </r>
       <r>    -8.0566     2.1339    23.2640 </r>
       <r>    -7.9329     0.0000    23.3333 </r>
       <r>    -7.8092     3.8092    23.8047 </r>
       <r>    -7.6854     0.0000    24.0000 </r>
       <r>    -7.5617     0.0000    24.0000 </r>
       <r>    -7.4380     0.0000    24.0000 </r>
       <r>    -7.3142     0.0000    24.0000 </r>
       <r>    -7.1905     0.0000    24.0000 </r>
       <r>    -7.0667     0.0000    24.0000 </r>
       <r>    -6.9430     0.0000    24.0000 </r>
       <r>    -6.8193     0.0000    24.0000 </r>
       <r>    -6.6955     0.0000    24.0000 </r>
       <r>    -6.5718     0.0000    24.0000 </r>
       <r>    -6.4481     0.0000    24.0000 </r>
       <r>    -6.3243     0.0000    24.0000 </r>
       <r>    -6.2006     0.0000    24.0000 </r>
       <r>    -6.0768     0.0000    24.0000 </r>
       <r>    -5.9531     0.0000    24.0000 </r>
       <r>    -5.8294     0.0000    24.0000 </r>
       <r>    -5.7056     0.0000    24.0000 </r>
       <r>    -5.5819     0.0000    24.0000 </r>
       <r>    -5.4582     0.0000    24.0000 </r>
       <r>    -5.3344     0.0000    24.0000 </r>
       <r>    -5.2107     0.0000    24.0000 </r>
       <r>    -5.0870     0.0000    24.0000 </r>
       <r>    -4.9632     0.0000    24.0000 </r>
       <r>    -4.8395     0.0000    24.0000 </r>
       <r>    -4.7157     0.0000    24.0000 </r>
       <r>    -4.5920     0.0000    24.0000 </r>
       <r>    -4.4683     0.0000    24.0000 </r>
       <r>    -4.3445     0.0000    24.0000 </r>
       <r>    -4.2208     0.0000    24.0000 </r>
       <r>    -4.0971     0.0000    24.0000 </r>
       <r>    -3.9733     0.0000    24.0000 </r>
       <r>    -3.8496     0.0000    24.0000 </r>
       <r>    -3.7258     0.0000    24.0000 </r>
       <r>    -3.6021     0.0000    24.0000 </r>
       <r>    -3.4784     0.0000    24.0000 </r>
       <r>    -3.3546     0.0000    24.0000 </r>
       <r>    -3.2309     0.0000    24.0000 </r>
       <r>    -3.1072     5.2262    24.6467 </r>
       <r>    -2.9834     2.6939    25.0000 </r>
       <r>    -2.8597     0.0000    25.0000 </r>
       <r>    -2.7359     0.0000    25.0000 </r>
       <r>    -2.6122     2.6939    25.3333 </r>
       <r>    -2.4885     0.0000    25.3333 </r>
       <r>    -2.3647     0.0000    25.3333 </r>
       <r>    -2.2410     2.6939    25.6667 </r>
       <r>    -2.1173     0.0000    25.6667 </r>
       <r>    -1.9935     5.3878    26.3333 </r>
       <r>    -1.8698     0.0000    26.3333 </r>
       <r>    -1.7461     0.0000    26.3333 </r>
       <r>    -1.6223     2.6929    26.6665 </r>
       <r>    -1.4986     0.0000    26.6667 </r>
       <r>    -1.3748     2.6939    27.0000 </r>
       <r>    -1.2511     0.0000    27.0000 </r>
       <r>    -1.1274     2.6939    27.3333 </r>
       <r>    -1.0036     0.0000    27.3333 </r>
       <r>    -0.8799     0.0000    27.3333 </r>
       <r>    -0.7562     0.0000    27.3333 </r>
       <r>    -0.6324     0.6871    27.4184 </r>
       <r>    -0.5087     0.0000    27.6667 </r>
       <r>    -0.3849     0.0000    27.6667 </r>
       <r>    -0.2612     0.0000    27.6667 </r>
       <r>    -0.1375     0.0000    27.6667 </r>
       <r>    -0.0137     0.0000    27.6667 </r>
       <r>     0.1100     0.0000    27.6667 </r>
       <r>     0.2337     0.0000    27.6667 </r>
       <r>     0.3575     5.3878    28.3333 </r>
       <r>     0.4812     2.6883    28.6660 </r>
       <r>     0.6050     0.0000    28.6667 </r>
       <r>     0.7287     0.0000    28.6667 </r>
       <r>     0.8524     0.0000    28.6667 </r>
       <r>     0.9762     0.0000    28.6667 </r>
       <r>     1.0999     0.0000    28.6667 </r>
       <r>     1.2236     0.0000    28.6667 </r>
       <r>     1.3474     2.6939    29.0000 </r>
       <r>     1.4711     0.0000    29.0000 </r>
       <r>     1.5948     2.6939    29.3333 </r>
       <r>     1.7186     0.9350    29.4490 </r>
       <r>     1.8423     5.3868    30.6665 </r>
       <r>     1.9661     2.6916    30.9997 </r>
       <r>     2.0898     2.6598    31.3291 </r>
       <r>     2.2135     2.6939    31.6667 </r>
       <r>     2.3373     2.6937    32.6666 </r>
       <r>     2.4610     5.3878    33.3333 </r>
       <r>     2.5847     0.0000    33.3333 </r>
       <r>     2.7085     0.0054    33.3340 </r>
       <r>     2.8322     0.0000    34.0000 </r>
       <r>     2.9560     5.7054    34.7060 </r>
       <r>     3.0797     4.9694    35.6149 </r>
       <r>     3.2034     2.6939    36.0000 </r>
       <r>     3.3272     0.0000    36.0000 </r>
       <r>     3.4509     5.3878    36.6667 </r>
       <r>     3.5746     0.0000    36.6667 </r>
       <r>     3.6984     0.0000    36.6667 </r>
       <r>     3.8221     0.0000    36.6667 </r>
       <r>     3.9459     0.0000    36.6667 </r>
       <r>     4.0696     0.0000    36.6667 </r>
       <r>     4.1933     0.0000    36.6667 </r>
       <r>     4.3171     0.0000    37.0000 </r>
       <r>     4.4408     2.9691    37.3674 </r>
       <r>     4.5645     1.5465    38.5247 </r>
       <r>     4.6883     0.0000    38.6667 </r>
       <r>     4.8120     0.0000    38.6667 </r>
       <r>     4.9357     0.0000    38.6667 </r>
       <r>     5.0595     2.5888    38.9870 </r>
       <r>     5.1832     2.6938    39.3333 </r>
       <r>     5.3070     0.0074    39.3343 </r>
       <r>     5.4307     0.0000    40.0000 </r>
       <r>     5.5544     0.0000    40.0000 </r>
       <r>     5.6782     0.0000    40.0000 </r>
       <r>     5.8019     0.0000    40.0000 </r>
       <r>     5.9256     0.0000    40.0000 </r>
       <r>     6.0494     0.0000    40.0000 </r>
       <r>     6.1731     0.0000    40.0000 </r>
       <r>     6.2969     0.0000    40.0000 </r>
       <r>     6.4206     0.0000    40.0000 </r>
       <r>     6.5443     0.0000    40.0000 </r>
       <r>     6.6681     0.0000    40.0000 </r>
       <r>     6.7918     0.0000    40.0000 </r>
       <r>     6.9155     5.3868    40.6666 </r>
       <r>     7.0393     0.0000    40.6667 </r>
       <r>     7.1630     0.0000    40.6667 </r>
       <r>     7.2868     0.0000    40.6667 </r>
       <r>     7.4105     0.0000    40.6667 </r>
       <r>     7.5342     0.0000    40.6667 </r>
       <r>     7.6580     2.8684    41.0216 </r>
       <r>     7.7817     0.0000    41.6667 </r>
       <r>     7.9054     0.0000    41.6667 </r>
       <r>     8.0292     0.2537    41.6981 </r>
       <r>     8.1529     0.0000    42.3333 </r>
       <r>     8.2766     2.6939    42.6667 </r>
       <r>     8.4004     2.6931    42.9999 </r>
       <r>     8.5241     0.0000    43.0000 </r>
       <r>     8.6479     0.0000    43.0000 </r>
       <r>     8.7716     5.7740    43.7145 </r>
       <r>     8.8953     0.0000    44.3333 </r>
       <r>     9.0191     5.3237    44.9921 </r>
       <r>     9.1428     0.0000    45.0000 </r>
       <r>     9.2665     5.3399    45.6607 </r>
       <r>     9.3903     0.0000    45.6667 </r>
       <r>     9.5140     0.0000    45.6667 </r>
       <r>     9.6378     0.0000    46.0000 </r>
       <r>     9.7615     2.6846    46.9988 </r>
       <r>     9.8852     0.8802    47.1089 </r>
       <r>    10.0090     0.0001    47.6667 </r>
       <r>    10.1327     0.0000    48.3333 </r>
       <r>    10.2564     0.0000    48.3333 </r>
       <r>    10.3802     0.0000    48.3333 </r>
       <r>    10.5039     0.0000    48.3333 </r>
       <r>    10.6277     2.1904    48.6044 </r>
       <r>    10.7514     2.6939    49.0000 </r>
       <r>    10.8751     0.0000    49.0000 </r>
       <r>    10.9989     0.0000    49.0000 </r>
       <r>    11.1226     2.6939    49.3333 </r>
       <r>    11.2463     7.5801    50.2713 </r>
       <r>    11.3701     0.0000    50.6667 </r>
       <r>    11.4938     2.6902    50.9995 </r>
       <r>    11.6175     2.6925    51.3332 </r>
       <r>    11.7413     2.6939    51.6667 </r>
       <r>    11.8650     0.0000    51.6667 </r>
       <r>    11.9888     0.0000    51.6667 </r>
       <r>    12.1125     0.0000    51.6667 </r>
       <r>    12.2362     0.1899    51.6902 </r>
       <r>    12.3600     0.0000    52.0000 </r>
       <r>    12.4837     0.0000    52.0000 </r>
       <r>    12.6074     2.6939    52.3333 </r>
       <r>    12.7312     2.6939    52.6667 </r>
       <r>    12.8549     0.0000    52.6667 </r>
       <r>    12.9787     0.0000    52.6667 </r>
       <r>    13.1024     5.3878    53.6667 </r>
       <r>    13.2261     0.0000    53.6667 </r>
       <r>    13.3499     0.0000    53.6667 </r>
       <r>    13.4736     0.0017    53.6669 </r>
       <r>    13.5973     0.0000    54.0000 </r>
       <r>    13.7211     2.6939    54.3333 </r>
       <r>    13.8448     3.1290    54.7205 </r>
       <r>    13.9686     5.3878    56.0000 </r>
       <r>    14.0923     0.5492    56.0680 </r>
       <r>    14.2160     0.0000    56.3333 </r>
       <r>    14.3398     0.0000    56.3333 </r>
       <r>    14.4635     0.0000    56.3333 </r>
       <r>    14.5872     8.0806    57.3332 </r>
       <r>    14.7110     0.0000    57.3333 </r>
       <r>    14.8347     2.6939    57.6667 </r>
       <r>    14.9584     1.9814    57.9118 </r>
       <r>    15.0822     2.6939    59.0000 </r>
       <r>    15.2059     0.0000    59.0000 </r>
       <r>    15.3297     0.0000    59.0000 </r>
       <r>    15.4534     0.7927    59.0981 </r>
       <r>    15.5771     2.6939    60.0000 </r>
       <r>    15.7009     0.0000    60.0000 </r>
       <r>    15.8246     0.0000    60.0000 </r>
       <r>    15.9483     0.0000    60.0000 </r>
       <r>    16.0721     0.0000    60.0000 </r>
       <r>    16.1958     0.0000    60.0000 </r>
       <r>    16.3196     0.0000    60.0000 </r>
       <r>    16.4433     0.0000    60.0000 </r>
       <r>    16.5670     0.0000    60.0000 </r>
       <r>    16.6908     0.0000    60.0000 </r>
       <r>    16.8145     0.0000    60.0000 </r>
       <r>    16.9382     0.0000    60.0000 </r>
       <r>    17.0620     0.0000    60.0000 </r>
       <r>    17.1857     0.0000    60.0000 </r>
      </set>
     </set>
    </array>
   </total>
   <partial>
    <array>
     <dimension dim="1">gridpoints</dimension>
     <dimension dim="2">spin</dimension>
     <dimension dim="3">ion</dimension>
     <field>energy</field>
     <field>    s</field>
     <field>   py</field>
     <field>   pz</field>
     <field>   px</field>
     <field>  dxy</field>
     <field>  dyz</field>
     <field>  dz2</field>
     <field>  dxz</field>
     <field>x2-y2</field>
     <set>
      <set comment="ion 1">
       <set comment="spin 1">
        <r>   -19.9354     0.0000     0.0000     0.0000     0.0000     0.0000     0.0000     0.0000     0.0000     0.0000 </r>
        <r>   -19.8117     0.0000     0.0000     0.0000     0.0000     0.0000     0.0000     0.0000     0.0000     0.0000 </r>
        <r>   -19.6879     0.0000     0.0000     0.0000     0.0000     0.0000     0.0000     0.0000     0.0000     0.0000 </r>
        <r>   -19.5642     0.0000     0.0000     0.0000     0.0000     0.0000     0.0000     0.0000     0.0000     0.0000 </r>
        <r>   -19.4404     0.0000     0.0000     0.0000     0.0000     0.0000     0.0000     0.0000     0.0000     0.0000 </r>
        <r>   -19.3167     0.0000     0.0000     0.0000     0.0000     0.0000     0.0000     0.0000     0.0000     0.0000 </r>
        <r>   -19.1930     0.0000     0.0000     0.0000     0.0000     0.0000     0.0000     0.0000     0.0000     0.0000 </r>
        <r>   -19.0692     0.0000     0.0000     0.0000     0.0000     0.0000     0.0000     0.0000     0.0000     0.0000 </r>
        <r>   -18.9455     0.0000     0.0000     0.0000     0.0000     0.0000     0.0000     0.0000     0.0000     0.0000 </r>
        <r>   -18.8218     0.0000     0.0000     0.0000     0.0000     0.0000     0.0000     0.0000     0.0000     0.0000 </r>
        <r>   -18.6980     0.0000     0.0000     0.0000     0.0000     0.0000     0.0000     0.0000     0.0000     0.0000 </r>
        <r>   -18.5743     0.0000     0.0000     0.0000     0.0000     0.0000     0.0000     0.0000     0.0000     0.0000 </r>
        <r>   -18.4505     0.0000     0.0000     0.0000     0.0000     0.0000     0.0000     0.0000     0.0000     0.0000 </r>
        <r>   -18.3268     0.0000     0.0000     0.0000     0.0000     0.0000     0.0000     0.0000     0.0000     0.0000 </r>
        <r>   -18.2031     0.0001     0.0001     0.0000     0.0001     7.4727     0.8083     0.7421     0.3550     5.5438 </r>
        <r>   -18.0793     0.0001     0.0002     0.0002     0.0001     0.3068     5.9859     4.3020     5.6462     1.1144 </r>
        <r>   -17.9556     0.0000     0.0000     0.0000     0.0000     0.0000     0.0000     0.0000     0.0000     0.0000 </r>
        <r>   -17.8319     0.0000     0.0000     0.0000     0.0000     0.0000     0.0000     0.0000     0.0000     0.0000 </r>
        <r>   -17.7081     0.0000     0.0000     0.0000     0.0000     0.0000     0.0000     0.0000     0.0000     0.0000 </r>
        <r>   -17.5844     0.0000     0.0000     0.0000     0.0000     0.0000     0.0000     0.0000     0.0000     0.0000 </r>
        <r>   -17.4607     0.0000     0.0000     0.0000     0.0000     0.0000     0.0000     0.0000     0.0000     0.0000 </r>
        <r>   -17.3369     0.0000     0.0000     0.0000     0.0000     0.0000     0.0000     0.0000     0.0000     0.0000 </r>
        <r>   -17.2132     0.0000     0.0000     0.0000     0.0000     0.0000     0.0000     0.0000     0.0000     0.0000 </r>
        <r>   -17.0894     0.0000     0.0000     0.0000     0.0000     0.0000     0.0000     0.0000     0.0000     0.0000 </r>
        <r>   -16.9657     0.0000     0.0000     0.0000     0.0000     0.0000     0.0000     0.0000     0.0000     0.0000 </r>
        <r>   -16.8420     0.0000     0.0000     0.0000     0.0000     0.0000     0.0000     0.0000     0.0000     0.0000 </r>
        <r>   -16.7182     0.0000     0.0000     0.0000     0.0000     0.0000     0.0000     0.0000     0.0000     0.0000 </r>
        <r>   -16.5945     0.0000     0.0000     0.0000     0.0000     0.0000     0.0000     0.0000     0.0000     0.0000 </r>
        <r>   -16.4708     0.0000     0.0000     0.0000     0.0000     0.0000     0.0000     0.0000     0.0000     0.0000 </r>
        <r>   -16.3470     0.0000     0.0000     0.0000     0.0000     0.0000     0.0000     0.0000     0.0000     0.0000 </r>
        <r>   -16.2233     0.0000     0.0000     0.0000     0.0000     0.0000     0.0000     0.0000     0.0000     0.0000 </r>
        <r>   -16.0995     0.0000     0.0000     0.0000     0.0000     0.0000     0.0000     0.0000     0.0000     0.0000 </r>
        <r>   -15.9758     0.0000     0.0000     0.0000     0.0000     0.0000     0.0000     0.0000     0.0000     0.0000 </r>
        <r>   -15.8521     0.0000     0.0000     0.0000     0.0000     0.0000     0.0000     0.0000     0.0000     0.0000 </r>
        <r>   -15.7283     0.0000     0.0000     0.0000     0.0000     0.0000     0.0000     0.0000     0.0000     0.0000 </r>
        <r>   -15.6046     0.0000     0.0000     0.0000     0.0000     0.0000     0.0000     0.0000     0.0000     0.0000 </r>
        <r>   -15.4809     0.0000     0.0000     0.0000     0.0000     0.0000     0.0000     0.0000     0.0000     0.0000 </r>
        <r>   -15.3571     0.0000     0.0000     0.0000     0.0000     0.0000     0.0000     0.0000     0.0000     0.0000 </r>
        <r>   -15.2334     0.0000     0.0000     0.0000     0.0000     0.0000     0.0000     0.0000     0.0000     0.0000 </r>
        <r>   -15.1097     0.0000     0.0000     0.0000     0.0000     0.0000     0.0000     0.0000     0.0000     0.0000 </r>
        <r>   -14.9859     0.0000     0.0000     0.0000     0.0000     0.0000     0.0000     0.0000     0.0000     0.0000 </r>
        <r>   -14.8622     0.0000     0.0000     0.0000     0.0000     0.0000     0.0000     0.0000     0.0000     0.0000 </r>
        <r>   -14.7384     0.0000     0.0000     0.0000     0.0000     0.0000     0.0000     0.0000     0.0000     0.0000 </r>
        <r>   -14.6147     0.0000     0.0000     0.0000     0.0000     0.0000     0.0000     0.0000     0.0000     0.0000 </r>
        <r>   -14.4910     0.0000     0.0000     0.0000     0.0000     0.0000     0.0000     0.0000     0.0000     0.0000 </r>
        <r>   -14.3672     0.0000     0.0000     0.0000     0.0000     0.0000     0.0000     0.0000     0.0000     0.0000 </r>
        <r>   -14.2435     0.0000     0.0000     0.0000     0.0000     0.0000     0.0000     0.0000     0.0000     0.0000 </r>
        <r>   -14.1198     0.0000     0.0000     0.0000     0.0000     0.0000     0.0000     0.0000     0.0000     0.0000 </r>
        <r>   -13.9960     0.0000     0.0000     0.0000     0.0000     0.0000     0.0000     0.0000     0.0000     0.0000 </r>
        <r>   -13.8723     0.0000     0.0000     0.0000     0.0000     0.0000     0.0000     0.0000     0.0000     0.0000 </r>
        <r>   -13.7485     0.0000     0.0000     0.0000     0.0000     0.0000     0.0000     0.0000     0.0000     0.0000 </r>
        <r>   -13.6248     0.0000     0.0000     0.0000     0.0000     0.0000     0.0000     0.0000     0.0000     0.0000 </r>
        <r>   -13.5011     0.0000     0.0000     0.0000     0.0000     0.0000     0.0000     0.0000     0.0000     0.0000 </r>
        <r>   -13.3773     0.0000     0.0000     0.0000     0.0000     0.0000     0.0000     0.0000     0.0000     0.0000 </r>
        <r>   -13.2536     0.0000     0.0000     0.0000     0.0000     0.0000     0.0000     0.0000     0.0000     0.0000 </r>
        <r>   -13.1299     0.0000     0.0000     0.0000     0.0000     0.0000     0.0000     0.0000     0.0000     0.0000 </r>
        <r>   -13.0061     0.0000     0.0000     0.0000     0.0000     0.0000     0.0000     0.0000     0.0000     0.0000 </r>
        <r>   -12.8824     0.0000     0.0000     0.0000     0.0000     0.0000     0.0000     0.0000     0.0000     0.0000 </r>
        <r>   -12.7586     0.0000     0.0000     0.0000     0.0000     0.0000     0.0000     0.0000     0.0000     0.0000 </r>
        <r>   -12.6349     0.0000     0.0000     0.0000     0.0000     0.0000     0.0000     0.0000     0.0000     0.0000 </r>
        <r>   -12.5112     0.0000     0.0000     0.0000     0.0000     0.0000     0.0000     0.0000     0.0000     0.0000 </r>
        <r>   -12.3874     0.0000     0.0000     0.0000     0.0000     0.0000     0.0000     0.0000     0.0000     0.0000 </r>
        <r>   -12.2637     0.0000     0.0000     0.0000     0.0000     0.0000     0.0000     0.0000     0.0000     0.0000 </r>
        <r>   -12.1400     0.0000     0.0000     0.0000     0.0000     0.0000     0.0000     0.0000     0.0000     0.0000 </r>
        <r>   -12.0162     0.0000     0.0000     0.0000     0.0000     0.0000     0.0000     0.0000     0.0000     0.0000 </r>
        <r>   -11.8925     0.0000     0.0000     0.0000     0.0000     0.0000     0.0000     0.0000     0.0000     0.0000 </r>
        <r>   -11.7688     0.0000     0.0000     0.0000     0.0000     0.0000     0.0000     0.0000     0.0000     0.0000 </r>
        <r>   -11.6450     0.0000     0.0000     0.0000     0.0000     0.0000     0.0000     0.0000     0.0000     0.0000 </r>
        <r>   -11.5213     0.0000     0.0000     0.0000     0.0000     0.0000     0.0000     0.0000     0.0000     0.0000 </r>
        <r>   -11.3975     0.0000     0.0000     0.0000     0.0000     0.0000     0.0000     0.0000     0.0000     0.0000 </r>
[...]
        <r>  0.0003  0.0025  0.0045  0.0106  0.0018  0.0006  0.0019  0.0001  0.0006 </r>
        <r>  0.0003  0.0025  0.0045  0.0106  0.0018  0.0006  0.0019  0.0001  0.0006 </r>
        <r>  0.0030  0.0373  0.0419  0.0345  0.0000  0.0000  0.0000  0.0000  0.0000 </r>
        <r>  0.0030  0.0373  0.0419  0.0345  0.0000  0.0000  0.0000  0.0000  0.0000 </r>
        <r>  0.0030  0.0373  0.0419  0.0345  0.0000  0.0000  0.0000  0.0000  0.0000 </r>
        <r>  0.0030  0.0373  0.0419  0.0345  0.0000  0.0000  0.0000  0.0000  0.0000 </r>
       </set>
       <set comment="band 37">
        <r>  0.0126  0.0328  0.0030  0.0034  0.0000  0.0000  0.0031  0.0003  0.0002 </r>
        <r>  0.0126  0.0328  0.0030  0.0034  0.0000  0.0000  0.0031  0.0003  0.0002 </r>
        <r>  0.0126  0.0328  0.0030  0.0034  0.0000  0.0000  0.0031  0.0003  0.0002 </r>
        <r>  0.0126  0.0328  0.0030  0.0034  0.0000  0.0000  0.0031  0.0003  0.0002 </r>
        <r>  0.0011  0.0165  0.0042  0.0638  0.0000  0.0000  0.0000  0.0000  0.0000 </r>
        <r>  0.0011  0.0165  0.0042  0.0638  0.0000  0.0000  0.0000  0.0000  0.0000 </r>
        <r>  0.0011  0.0165  0.0042  0.0638  0.0000  0.0000  0.0000  0.0000  0.0000 </r>
        <r>  0.0011  0.0165  0.0042  0.0638  0.0000  0.0000  0.0000  0.0000  0.0000 </r>
       </set>
       <set comment="band 38">
        <r>  0.0189  0.0012  0.0239  0.0005  0.0006  0.0023  0.0010  0.0001  0.0002 </r>
        <r>  0.0189  0.0012  0.0239  0.0005  0.0006  0.0023  0.0010  0.0001  0.0002 </r>
        <r>  0.0189  0.0012  0.0239  0.0005  0.0006  0.0023  0.0010  0.0001  0.0002 </r>
        <r>  0.0189  0.0012  0.0239  0.0005  0.0006  0.0023  0.0010  0.0001  0.0002 </r>
        <r>  0.0016  0.0001  0.0998  0.0002  0.0000  0.0000  0.0000  0.0000  0.0000 </r>
        <r>  0.0016  0.0001  0.0998  0.0002  0.0000  0.0000  0.0000  0.0000  0.0000 </r>
        <r>  0.0016  0.0001  0.0998  0.0002  0.0000  0.0000  0.0000  0.0000  0.0000 </r>
        <r>  0.0016  0.0001  0.0998  0.0002  0.0000  0.0000  0.0000  0.0000  0.0000 </r>
       </set>
       <set comment="band 39">
        <r>  0.0492  0.0101  0.0202  0.0012  0.0000  0.0001  0.0001  0.0029  0.0000 </r>
        <r>  0.0492  0.0101  0.0202  0.0012  0.0000  0.0001  0.0001  0.0029  0.0000 </r>
        <r>  0.0492  0.0101  0.0202  0.0012  0.0000  0.0001  0.0001  0.0029  0.0000 </r>
        <r>  0.0492  0.0101  0.0202  0.0012  0.0000  0.0001  0.0001  0.0029  0.0000 </r>
        <r>  0.0006  0.0037  0.0382  0.0247  0.0000  0.0000  0.0000  0.0000  0.0000 </r>
        <r>  0.0006  0.0037  0.0382  0.0247  0.0000  0.0000  0.0000  0.0000  0.0000 </r>
        <r>  0.0006  0.0037  0.0382  0.0247  0.0000  0.0000  0.0000  0.0000  0.0000 </r>
        <r>  0.0006  0.0037  0.0382  0.0247  0.0000  0.0000  0.0000  0.0000  0.0000 </r>
       </set>
       <set comment="band 40">
        <r>  0.0685  0.0181  0.0099  0.0001  0.0002  0.0000  0.0000  0.0001  0.0000 </r>
        <r>  0.0685  0.0181  0.0099  0.0001  0.0002  0.0000  0.0000  0.0001  0.0000 </r>
        <r>  0.0685  0.0181  0.0099  0.0001  0.0002  0.0000  0.0000  0.0001  0.0000 </r>
        <r>  0.0685  0.0181  0.0099  0.0001  0.0002  0.0000  0.0000  0.0001  0.0000 </r>
        <r>  0.0014  0.0096  0.0131  0.0513  0.0000  0.0000  0.0000  0.0000  0.0000 </r>
        <r>  0.0014  0.0096  0.0131  0.0513  0.0000  0.0000  0.0000  0.0000  0.0000 </r>
        <r>  0.0014  0.0096  0.0131  0.0513  0.0000  0.0000  0.0000  0.0000  0.0000 </r>
        <r>  0.0014  0.0096  0.0131  0.0513  0.0000  0.0000  0.0000  0.0000  0.0000 </r>
       </set>
       <set comment="band 41">
        <r>  0.0001  0.0012  0.0127  0.0565  0.0030  0.0001  0.0022  0.0005  0.0003 </r>
        <r>  0.0001  0.0012  0.0127  0.0565  0.0030  0.0001  0.0022  0.0005  0.0003 </r>
        <r>  0.0001  0.0012  0.0127  0.0565  0.0030  0.0001  0.0022  0.0005  0.0003 </r>
        <r>  0.0001  0.0012  0.0127  0.0565  0.0030  0.0001  0.0022  0.0005  0.0003 </r>
        <r>  0.0196  0.0029  0.0042  0.0032  0.0000  0.0000  0.0000  0.0000  0.0000 </r>
        <r>  0.0196  0.0029  0.0042  0.0032  0.0000  0.0000  0.0000  0.0000  0.0000 </r>
        <r>  0.0196  0.0029  0.0042  0.0032  0.0000  0.0000  0.0000  0.0000  0.0000 </r>
        <r>  0.0196  0.0029  0.0042  0.0032  0.0000  0.0000  0.0000  0.0000  0.0000 </r>
       </set>
       <set comment="band 42">
        <r>  0.0181  0.0137  0.0693  0.0002  0.0000  0.0000  0.0006  0.0010  0.0000 </r>
        <r>  0.0181  0.0137  0.0693  0.0002  0.0000  0.0000  0.0006  0.0010  0.0000 </r>
        <r>  0.0181  0.0137  0.0693  0.0002  0.0000  0.0000  0.0006  0.0010  0.0000 </r>
        <r>  0.0181  0.0137  0.0693  0.0002  0.0000  0.0000  0.0006  0.0010  0.0000 </r>
        <r>  0.0073  0.0028  0.0035  0.0023  0.0000  0.0000  0.0000  0.0000  0.0000 </r>
        <r>  0.0073  0.0028  0.0035  0.0023  0.0000  0.0000  0.0000  0.0000  0.0000 </r>
        <r>  0.0073  0.0028  0.0035  0.0023  0.0000  0.0000  0.0000  0.0000  0.0000 </r>
        <r>  0.0073  0.0028  0.0035  0.0023  0.0000  0.0000  0.0000  0.0000  0.0000 </r>
       </set>
       <set comment="band 43">
        <r>  0.0284  0.0146  0.0002  0.0519  0.0013  0.0007  0.0002  0.0005  0.0000 </r>
        <r>  0.0284  0.0146  0.0002  0.0519  0.0013  0.0007  0.0002  0.0005  0.0000 </r>
        <r>  0.0284  0.0146  0.0002  0.0519  0.0013  0.0007  0.0002  0.0005  0.0000 </r>
        <r>  0.0284  0.0146  0.0002  0.0519  0.0013  0.0007  0.0002  0.0005  0.0000 </r>
        <r>  0.0018  0.0015  0.0001  0.0229  0.0000  0.0000  0.0000  0.0000  0.0000 </r>
        <r>  0.0018  0.0015  0.0001  0.0229  0.0000  0.0000  0.0000  0.0000  0.0000 </r>
        <r>  0.0018  0.0015  0.0001  0.0229  0.0000  0.0000  0.0000  0.0000  0.0000 </r>
        <r>  0.0018  0.0015  0.0001  0.0229  0.0000  0.0000  0.0000  0.0000  0.0000 </r>
       </set>
       <set comment="band 44">
        <r>  0.0015  0.0000  0.0086  0.0504  0.0052  0.0001  0.0042  0.0007  0.0003 </r>
        <r>  0.0015  0.0000  0.0086  0.0504  0.0052  0.0001  0.0042  0.0007  0.0003 </r>
        <r>  0.0015  0.0000  0.0086  0.0504  0.0052  0.0001  0.0042  0.0007  0.0003 </r>
        <r>  0.0015  0.0000  0.0086  0.0504  0.0052  0.0001  0.0042  0.0007  0.0003 </r>
        <r>  0.0059  0.0011  0.0158  0.0233  0.0000  0.0000  0.0000  0.0000  0.0000 </r>
        <r>  0.0059  0.0011  0.0158  0.0233  0.0000  0.0000  0.0000  0.0000  0.0000 </r>
        <r>  0.0059  0.0011  0.0158  0.0233  0.0000  0.0000  0.0000  0.0000  0.0000 </r>
        <r>  0.0059  0.0011  0.0158  0.0233  0.0000  0.0000  0.0000  0.0000  0.0000 </r>
       </set>
       <set comment="band 45">
        <r>  0.0047  0.0791  0.0005  0.0002  0.0009  0.0000  0.0021  0.0018  0.0009 </r>
        <r>  0.0047  0.0791  0.0005  0.0002  0.0009  0.0000  0.0021  0.0018  0.0009 </r>
        <r>  0.0047  0.0791  0.0005  0.0002  0.0009  0.0000  0.0021  0.0018  0.0009 </r>
        <r>  0.0047  0.0791  0.0005  0.0002  0.0009  0.0000  0.0021  0.0018  0.0009 </r>
        <r>  0.0004  0.0123  0.0010  0.0074  0.0000  0.0000  0.0000  0.0000  0.0000 </r>
        <r>  0.0004  0.0123  0.0010  0.0074  0.0000  0.0000  0.0000  0.0000  0.0000 </r>
        <r>  0.0004  0.0123  0.0010  0.0074  0.0000  0.0000  0.0000  0.0000  0.0000 </r>
        <r>  0.0004  0.0123  0.0010  0.0074  0.0000  0.0000  0.0000  0.0000  0.0000 </r>
       </set>
       <set comment="band 46">
        <r>  0.0266  0.0336  0.0001  0.0234  0.0000  0.0000  0.0012  0.0010  0.0001 </r>
        <r>  0.0266  0.0336  0.0001  0.0234  0.0000  0.0000  0.0012  0.0010  0.0001 </r>
        <r>  0.0266  0.0336  0.0001  0.0234  0.0000  0.0000  0.0012  0.0010  0.0001 </r>
        <r>  0.0266  0.0336  0.0001  0.0234  0.0000  0.0000  0.0012  0.0010  0.0001 </r>
        <r>  0.0001  0.0081  0.0004  0.0374  0.0000  0.0000  0.0000  0.0000  0.0000 </r>
        <r>  0.0001  0.0081  0.0004  0.0374  0.0000  0.0000  0.0000  0.0000  0.0000 </r>
        <r>  0.0001  0.0081  0.0004  0.0374  0.0000  0.0000  0.0000  0.0000  0.0000 </r>
        <r>  0.0001  0.0081  0.0004  0.0374  0.0000  0.0000  0.0000  0.0000  0.0000 </r>
       </set>
       <set comment="band 47">
        <r>  0.0034  0.0590  0.0070  0.0226  0.0022  0.0006  0.0001  0.0002  0.0010 </r>
        <r>  0.0034  0.0590  0.0070  0.0226  0.0022  0.0006  0.0001  0.0002  0.0010 </r>
        <r>  0.0034  0.0590  0.0070  0.0226  0.0022  0.0006  0.0001  0.0002  0.0010 </r>
        <r>  0.0034  0.0590  0.0070  0.0226  0.0022  0.0006  0.0001  0.0002  0.0010 </r>
        <r>  0.0083  0.0051  0.0021  0.0070  0.0000  0.0000  0.0000  0.0000  0.0000 </r>
        <r>  0.0083  0.0051  0.0021  0.0070  0.0000  0.0000  0.0000  0.0000  0.0000 </r>
        <r>  0.0083  0.0051  0.0021  0.0070  0.0000  0.0000  0.0000  0.0000  0.0000 </r>
        <r>  0.0083  0.0051  0.0021  0.0070  0.0000  0.0000  0.0000  0.0000  0.0000 </r>
       </set>
       <set comment="band 48">
        <r>  0.0015  0.0669  0.0225  0.0046  0.0013  0.0038  0.0002  0.0006  0.0000 </r>
        <r>  0.0015  0.0669  0.0225  0.0046  0.0013  0.0038  0.0002  0.0006  0.0000 </r>
        <r>  0.0015  0.0669  0.0225  0.0046  0.0013  0.0038  0.0002  0.0006  0.0000 </r>
        <r>  0.0015  0.0669  0.0225  0.0046  0.0013  0.0038  0.0002  0.0006  0.0000 </r>
        <r>  0.0031  0.0202  0.0074  0.0005  0.0000  0.0000  0.0000  0.0000  0.0000 </r>
        <r>  0.0031  0.0202  0.0074  0.0005  0.0000  0.0000  0.0000  0.0000  0.0000 </r>
        <r>  0.0031  0.0202  0.0074  0.0005  0.0000  0.0000  0.0000  0.0000  0.0000 </r>
        <r>  0.0031  0.0202  0.0074  0.0005  0.0000  0.0000  0.0000  0.0000  0.0000 </r>
       </set>
       <set comment="band 49">
        <r>  0.0091  0.0180  0.0535  0.0020  0.0005  0.0033  0.0005  0.0000  0.0003 </r>
        <r>  0.0091  0.0180  0.0535  0.0020  0.0005  0.0033  0.0005  0.0000  0.0003 </r>
        <r>  0.0091  0.0180  0.0535  0.0020  0.0005  0.0033  0.0005  0.0000  0.0003 </r>
        <r>  0.0091  0.0180  0.0535  0.0020  0.0005  0.0033  0.0005  0.0000  0.0003 </r>
        <r>  0.0002  0.0129  0.0106  0.0154  0.0000  0.0000  0.0000  0.0000  0.0000 </r>
        <r>  0.0002  0.0129  0.0106  0.0154  0.0000  0.0000  0.0000  0.0000  0.0000 </r>
        <r>  0.0002  0.0129  0.0106  0.0154  0.0000  0.0000  0.0000  0.0000  0.0000 </r>
        <r>  0.0002  0.0129  0.0106  0.0154  0.0000  0.0000  0.0000  0.0000  0.0000 </r>
       </set>
       <set comment="band 50">
        <r>  0.0005  0.0406  0.0044  0.0361  0.0079  0.0007  0.0001  0.0022  0.0006 </r>
        <r>  0.0005  0.0406  0.0044  0.0361  0.0079  0.0007  0.0001  0.0022  0.0006 </r>
        <r>  0.0005  0.0406  0.0044  0.0361  0.0079  0.0007  0.0001  0.0022  0.0006 </r>
        <r>  0.0005  0.0406  0.0044  0.0361  0.0079  0.0007  0.0001  0.0022  0.0006 </r>
        <r>  0.0065  0.0140  0.0000  0.0100  0.0000  0.0000  0.0000  0.0000  0.0000 </r>
        <r>  0.0065  0.0140  0.0000  0.0100  0.0000  0.0000  0.0000  0.0000  0.0000 </r>
        <r>  0.0065  0.0140  0.0000  0.0100  0.0000  0.0000  0.0000  0.0000  0.0000 </r>
        <r>  0.0065  0.0140  0.0000  0.0100  0.0000  0.0000  0.0000  0.0000  0.0000 </r>
       </set>
       <set comment="band 51">
        <r>  0.0047  0.0012  0.0677  0.0291  0.0002  0.0004  0.0001  0.0026  0.0012 </r>
        <r>  0.0047  0.0012  0.0677  0.0291  0.0002  0.0004  0.0001  0.0026  0.0012 </r>
        <r>  0.0047  0.0012  0.0677  0.0291  0.0002  0.0004  0.0001  0.0026  0.0012 </r>
        <r>  0.0047  0.0012  0.0677  0.0291  0.0002  0.0004  0.0001  0.0026  0.0012 </r>
        <r>  0.0011  0.0056  0.0141  0.0000  0.0000  0.0000  0.0000  0.0000  0.0000 </r>
        <r>  0.0011  0.0056  0.0141  0.0000  0.0000  0.0000  0.0000  0.0000  0.0000 </r>
        <r>  0.0011  0.0056  0.0141  0.0000  0.0000  0.0000  0.0000  0.0000  0.0000 </r>
        <r>  0.0011  0.0056  0.0141  0.0000  0.0000  0.0000  0.0000  0.0000  0.0000 </r>
       </set>
       <set comment="band 52">
        <r>  0.0064  0.0159  0.0603  0.0001  0.0019  0.0006  0.0037  0.0001  0.0007 </r>
        <r>  0.0064  0.0159  0.0603  0.0001  0.0019  0.0006  0.0037  0.0001  0.0007 </r>
        <r>  0.0064  0.0159  0.0603  0.0001  0.0019  0.0006  0.0037  0.0001  0.0007 </r>
        <r>  0.0064  0.0159  0.0603  0.0001  0.0019  0.0006  0.0037  0.0001  0.0007 </r>
        <r>  0.0054  0.0000  0.0549  0.0048  0.0000  0.0000  0.0000  0.0000  0.0000 </r>
        <r>  0.0054  0.0000  0.0549  0.0048  0.0000  0.0000  0.0000  0.0000  0.0000 </r>
        <r>  0.0054  0.0000  0.0549  0.0048  0.0000  0.0000  0.0000  0.0000  0.0000 </r>
        <r>  0.0054  0.0000  0.0549  0.0048  0.0000  0.0000  0.0000  0.0000  0.0000 </r>
       </set>
       <set comment="band 53">
        <r>  0.0015  0.0034  0.0002  0.0065  0.0040  0.0004  0.0000  0.0129  0.0026 </r>
        <r>  0.0015  0.0034  0.0002  0.0065  0.0040  0.0004  0.0000  0.0129  0.0026 </r>
        <r>  0.0015  0.0034  0.0002  0.0065  0.0040  0.0004  0.0000  0.0129  0.0026 </r>
        <r>  0.0015  0.0034  0.0002  0.0065  0.0040  0.0004  0.0000  0.0129  0.0026 </r>
        <r>  0.0001  0.0004  0.0083  0.0026  0.0000  0.0000  0.0000  0.0000  0.0000 </r>
        <r>  0.0001  0.0004  0.0083  0.0026  0.0000  0.0000  0.0000  0.0000  0.0000 </r>
        <r>  0.0001  0.0004  0.0083  0.0026  0.0000  0.0000  0.0000  0.0000  0.0000 </r>
        <r>  0.0001  0.0004  0.0083  0.0026  0.0000  0.0000  0.0000  0.0000  0.0000 </r>
       </set>
       <set comment="band 54">
        <r>  0.0001  0.0040  0.0019  0.0283  0.0027  0.0000  0.0008  0.0000  0.0170 </r>
        <r>  0.0001  0.0040  0.0019  0.0283  0.0027  0.0000  0.0008  0.0000  0.0170 </r>
        <r>  0.0001  0.0040  0.0019  0.0283  0.0027  0.0000  0.0008  0.0000  0.0170 </r>
        <r>  0.0001  0.0040  0.0019  0.0283  0.0027  0.0000  0.0008  0.0000  0.0170 </r>
        <r>  0.0050  0.0004  0.0040  0.0057  0.0000  0.0000  0.0000  0.0000  0.0000 </r>
        <r>  0.0050  0.0004  0.0040  0.0057  0.0000  0.0000  0.0000  0.0000  0.0000 </r>
        <r>  0.0050  0.0004  0.0040  0.0057  0.0000  0.0000  0.0000  0.0000  0.0000 </r>
        <r>  0.0050  0.0004  0.0040  0.0057  0.0000  0.0000  0.0000  0.0000  0.0000 </r>
       </set>
       <set comment="band 55">
        <r>  0.0042  0.0016  0.0005  0.0178  0.0004  0.0004  0.0000  0.0032  0.0195 </r>
        <r>  0.0042  0.0016  0.0005  0.0178  0.0004  0.0004  0.0000  0.0032  0.0195 </r>
        <r>  0.0042  0.0016  0.0005  0.0178  0.0004  0.0004  0.0000  0.0032  0.0195 </r>
        <r>  0.0042  0.0016  0.0005  0.0178  0.0004  0.0004  0.0000  0.0032  0.0195 </r>
        <r>  0.0021  0.0017  0.0042  0.0008  0.0000  0.0000  0.0000  0.0000  0.0000 </r>
        <r>  0.0021  0.0017  0.0042  0.0008  0.0000  0.0000  0.0000  0.0000  0.0000 </r>
        <r>  0.0021  0.0017  0.0042  0.0008  0.0000  0.0000  0.0000  0.0000  0.0000 </r>
        <r>  0.0021  0.0017  0.0042  0.0008  0.0000  0.0000  0.0000  0.0000  0.0000 </r>
       </set>
       <set comment="band 56">
        <r>  0.0031  0.0107  0.0002  0.0113  0.0031  0.0040  0.0011  0.0001  0.0144 </r>
        <r>  0.0031  0.0107  0.0002  0.0113  0.0031  0.0040  0.0011  0.0001  0.0144 </r>
        <r>  0.0031  0.0107  0.0002  0.0113  0.0031  0.0040  0.0011  0.0001  0.0144 </r>
        <r>  0.0031  0.0107  0.0002  0.0113  0.0031  0.0040  0.0011  0.0001  0.0144 </r>
        <r>  0.0087  0.0014  0.0130  0.0087  0.0000  0.0000  0.0000  0.0000  0.0000 </r>
        <r>  0.0087  0.0014  0.0130  0.0087  0.0000  0.0000  0.0000  0.0000  0.0000 </r>
        <r>  0.0087  0.0014  0.0130  0.0087  0.0000  0.0000  0.0000  0.0000  0.0000 </r>
        <r>  0.0087  0.0014  0.0130  0.0087  0.0000  0.0000  0.0000  0.0000  0.0000 </r>
       </set>
       <set comment="band 57">
        <r>  0.0019  0.0010  0.0001  0.0101  0.0004  0.0125  0.0075  0.0103  0.0005 </r>
        <r>  0.0019  0.0010  0.0001  0.0101  0.0004  0.0125  0.0075  0.0103  0.0005 </r>
        <r>  0.0019  0.0010  0.0001  0.0101  0.0004  0.0125  0.0075  0.0103  0.0005 </r>
        <r>  0.0019  0.0010  0.0001  0.0101  0.0004  0.0125  0.0075  0.0103  0.0005 </r>
        <r>  0.0001  0.0027  0.0005  0.0000  0.0000  0.0000  0.0000  0.0000  0.0000 </r>
        <r>  0.0001  0.0027  0.0005  0.0000  0.0000  0.0000  0.0000  0.0000  0.0000 </r>
        <r>  0.0001  0.0027  0.0005  0.0000  0.0000  0.0000  0.0000  0.0000  0.0000 </r>
        <r>  0.0001  0.0027  0.0005  0.0000  0.0000  0.0000  0.0000  0.0000  0.0000 </r>
       </set>
       <set comment="band 58">
        <r>  0.0000  0.0153  0.0091  0.0007  0.0016  0.0029  0.0010  0.0010  0.0160 </r>
        <r>  0.0000  0.0153  0.0091  0.0007  0.0016  0.0029  0.0010  0.0010  0.0160 </r>
        <r>  0.0000  0.0153  0.0091  0.0007  0.0016  0.0029  0.0010  0.0010  0.0160 </r>
        <r>  0.0000  0.0153  0.0091  0.0007  0.0016  0.0029  0.0010  0.0010  0.0160 </r>
        <r>  0.0043  0.0016  0.0049  0.0170  0.0000  0.0000  0.0000  0.0000  0.0000 </r>
        <r>  0.0043  0.0016  0.0049  0.0170  0.0000  0.0000  0.0000  0.0000  0.0000 </r>
        <r>  0.0043  0.0016  0.0049  0.0170  0.0000  0.0000  0.0000  0.0000  0.0000 </r>
        <r>  0.0043  0.0016  0.0049  0.0170  0.0000  0.0000  0.0000  0.0000  0.0000 </r>
       </set>
       <set comment="band 59">
        <r>  0.0002  0.0015  0.0072  0.0008  0.0037  0.0007  0.0111  0.0047  0.0002 </r>
        <r>  0.0002  0.0015  0.0072  0.0008  0.0037  0.0007  0.0111  0.0047  0.0002 </r>
        <r>  0.0002  0.0015  0.0072  0.0008  0.0037  0.0007  0.0111  0.0047  0.0002 </r>
        <r>  0.0002  0.0015  0.0072  0.0008  0.0037  0.0007  0.0111  0.0047  0.0002 </r>
        <r>  0.0002  0.0031  0.0039  0.0006  0.0000  0.0000  0.0000  0.0000  0.0000 </r>
        <r>  0.0002  0.0031  0.0039  0.0006  0.0000  0.0000  0.0000  0.0000  0.0000 </r>
        <r>  0.0002  0.0031  0.0039  0.0006  0.0000  0.0000  0.0000  0.0000  0.0000 </r>
        <r>  0.0002  0.0031  0.0039  0.0006  0.0000  0.0000  0.0000  0.0000  0.0000 </r>
       </set>
       <set comment="band 60">
        <r>  0.0011  0.0007  0.0128  0.0034  0.0002  0.0009  0.0027  0.0142  0.0009 </r>
        <r>  0.0012  0.0006  0.0124  0.0030  0.0001  0.0013  0.0026  0.0128  0.0012 </r>
        <r>  0.0011  0.0008  0.0128  0.0035  0.0002  0.0010  0.0028  0.0142  0.0009 </r>
        <r>  0.0013  0.0007  0.0130  0.0029  0.0001  0.0013  0.0027  0.0125  0.0011 </r>
        <r>  0.0000  0.0009  0.0031  0.0030  0.0000  0.0000  0.0000  0.0000  0.0000 </r>
        <r>  0.0000  0.0011  0.0034  0.0032  0.0000  0.0000  0.0000  0.0000  0.0000 </r>
        <r>  0.0000  0.0009  0.0031  0.0031  0.0000  0.0000  0.0000  0.0000  0.0000 </r>
        <r>  0.0000  0.0012  0.0034  0.0033  0.0000  0.0000  0.0000  0.0000  0.0000 </r>
       </set>
      </set>
     </set>
    </set>
   </array>
  </projected>
 </calculation>
 <structure name="finalpos" >
  <crystal>
   <varray name="basis" >
    <v>       3.95685521       0.00000000       0.00000000 </v>
    <v>      -0.00000000       4.53281069       0.00000000 </v>
    <v>       0.00000000       0.00000000      11.39201851 </v>
   </varray>
   <i name="volume">    204.32354836 </i>
   <varray name="rec_basis" >
    <v>       0.25272595       0.00000000       0.00000000 </v>
    <v>       0.00000000       0.22061367       0.00000000 </v>
    <v>      -0.00000000      -0.00000000       0.08778076 </v>
   </varray>
  </crystal>
  <varray name="positions" >
   <v>       0.25000000       0.36953984       0.62163275 </v>
   <v>       0.75000000       0.63046016       0.37836725 </v>
   <v>       0.75000000       0.86953984       0.87836725 </v>
   <v>       0.25000000       0.13046016       0.12163275 </v>
   <v>       0.25000000       0.01059680       0.34749746 </v>
   <v>       0.75000000       0.98940320       0.65250254 </v>
   <v>       0.75000000       0.51059680       0.15250254 </v>
   <v>       0.25000000       0.48940320       0.84749746 </v>
  </varray>
 </structure>
</modeling>
