<?xml version="1.0" encoding="ISO-8859-1"?>
<modeling>
 <generator>
  <i name="program" type="string">vasp </i>
  <i name="version" type="string">6.4.2  </i>
  <i name="subversion" type="string">20Jul23 (build Mar 15 2024 16:31:38) complex                          parallel </i>
  <i name="platform" type="string">LinuxIFC </i>
  <i name="date" type="string">2025 03 19 </i>
  <i name="time" type="string">14:44:35 </i>
 </generator>
 <incar>
  <i type="string" name="PREC">Accurate</i>
  <i type="string" name="ALGO">Fast</i>
  <i type="int" name="ISPIN">     1</i>
  <i type="int" name="ICHARG">    11</i>
  <i type="int" name="NELM">   200</i>
  <i name="EDIFF">      0.00001000</i>
  <i type="int" name="NSW">     0</i>
  <i type="int" name="ISYM">     2</i>
  <i name="ENCUT">    680.00000000</i>
  <i name="ENAUG">   1360.00000000</i>
  <i type="int" name="NBANDS">    72</i>
  <i type="int" name="NEDOS">  1561</i>
  <i type="logical" name="LREAL"> F  </i>
  <i type="int" name="ISMEAR">    -5</i>
  <i name="SIGMA">      0.05000000</i>
  <i type="int" name="LMAXMIX">     4</i>
  <i type="logical" name="LWAVE"> T  </i>
  <i type="logical" name="LCHARG"> F  </i>
  <i type="logical" name="LVTOT"> T  </i>
  <i type="int" name="LORBIT">    11</i>
  <i type="logical" name="LELF"> F  </i>
  <i type="logical" name="LASPH"> T  </i>
  <i type="logical" name="LAECHG"> T  </i>
  <i type="string" name="GGA">Ps</i>
  <i type="logical" name="LMIXTAU"> T  </i>
 </incar>
 <primitive_cell>
  <structure name="primitive_cell" >
   <crystal>
    <varray name="basis" >
     <v>       3.95685521       0.00000000       0.00000000 </v>
     <v>      -0.00000000       4.53281069       0.00000000 </v>
     <v>       0.00000000       0.00000000      11.39201851 </v>
    </varray>
    <i name="volume">    204.32354836 </i>
    <varray name="rec_basis" >
     <v>       0.25272595       0.00000000       0.00000000 </v>
     <v>       0.00000000       0.22061367       0.00000000 </v>
     <v>      -0.00000000      -0.00000000       0.08778076 </v>
    </varray>
   </crystal>
   <varray name="positions" >
    <v>       0.25000000       0.36953984       0.62163275 </v>
    <v>       0.75000000       0.63046016       0.37836725 </v>
    <v>       0.75000000       0.86953984       0.87836725 </v>
    <v>       0.25000000       0.13046016       0.12163275 </v>
    <v>       0.25000000       0.01059680       0.34749746 </v>
    <v>       0.75000000       0.98940320       0.65250254 </v>
    <v>       0.75000000       0.51059680       0.15250254 </v>
    <v>       0.25000000       0.48940320       0.84749746 </v>
   </varray>
  </structure>
  <varray name="primitive_index" >
   <v type="int" >        1 </v>
   <v type="int" >        2 </v>
   <v type="int" >        3 </v>
   <v type="int" >        4 </v>
   <v type="int" >        5 </v>
   <v type="int" >        6 </v>
   <v type="int" >        7 </v>
   <v type="int" >        8 </v>
  </varray>
 </primitive_cell>
 <kpoints>
  <generation param="Gamma">
   <v type="int" name="divisions">       7        6        2 </v>
   <v name="usershift">      0.00000000       0.00000000       0.00000000 </v>
   <v name="genvec1">      0.14285714      -0.00000000       0.00000000 </v>
   <v name="genvec2">      0.00000000       0.16666667       0.00000000 </v>
   <v name="genvec3">      0.00000000      -0.00000000       0.50000000 </v>
   <v name="shift">      0.00000000       0.00000000       0.00000000 </v>
  </generation>
  <varray name="kpointlist" >
   <v>       0.00000000       0.00000000       0.00000000 </v>
   <v>       0.14285714      -0.00000000       0.00000000 </v>
   <v>       0.28571429       0.00000000       0.00000000 </v>
   <v>       0.42857143      -0.00000000       0.00000000 </v>
   <v>       0.00000000       0.16666667       0.00000000 </v>
   <v>       0.14285714       0.16666667       0.00000000 </v>
   <v>       0.28571429       0.16666667       0.00000000 </v>
   <v>       0.42857143       0.16666667       0.00000000 </v>
   <v>       0.00000000       0.33333333       0.00000000 </v>
   <v>       0.14285714       0.33333333       0.00000000 </v>
   <v>       0.28571429       0.33333333       0.00000000 </v>
   <v>       0.42857143       0.33333333       0.00000000 </v>
   <v>       0.00000000       0.50000000       0.00000000 </v>
   <v>       0.14285714       0.50000000       0.00000000 </v>
   <v>       0.28571429       0.50000000       0.00000000 </v>
   <v>       0.42857143       0.50000000       0.00000000 </v>
   <v>      -0.00000000       0.00000000       0.50000000 </v>
   <v>       0.14285714      -0.00000000       0.50000000 </v>
   <v>       0.28571429       0.00000000       0.50000000 </v>
   <v>       0.42857143      -0.00000000       0.50000000 </v>
   <v>      -0.00000000       0.16666667       0.50000000 </v>
   <v>       0.14285714       0.16666667       0.50000000 </v>
   <v>       0.28571429       0.16666667       0.50000000 </v>
   <v>       0.42857143       0.16666667       0.50000000 </v>
   <v>      -0.00000000       0.33333333       0.50000000 </v>
   <v>       0.14285714       0.33333333       0.50000000 </v>
   <v>       0.28571429       0.33333333       0.50000000 </v>
   <v>       0.42857143       0.33333333       0.50000000 </v>
   <v>      -0.00000000       0.50000000       0.50000000 </v>
   <v>       0.14285714       0.50000000       0.50000000 </v>
   <v>       0.28571429       0.50000000       0.50000000 </v>
   <v>       0.42857143       0.50000000       0.50000000 </v>
  </varray>
  <varray name="weights" >
   <v>       0.01190476 </v>
   <v>       0.02380952 </v>
   <v>       0.02380952 </v>
   <v>       0.02380952 </v>
   <v>       0.02380952 </v>
   <v>       0.04761905 </v>
   <v>       0.04761905 </v>
   <v>       0.04761905 </v>
   <v>       0.02380952 </v>
   <v>       0.04761905 </v>
   <v>       0.04761905 </v>
   <v>       0.04761905 </v>
   <v>       0.01190476 </v>
   <v>       0.02380952 </v>
   <v>       0.02380952 </v>
   <v>       0.02380952 </v>
   <v>       0.01190476 </v>
   <v>       0.02380952 </v>
   <v>       0.02380952 </v>
   <v>       0.02380952 </v>
   <v>       0.02380952 </v>
   <v>       0.04761905 </v>
   <v>       0.04761905 </v>
   <v>       0.04761905 </v>
   <v>       0.02380952 </v>
   <v>       0.04761905 </v>
   <v>       0.04761905 </v>
   <v>       0.04761905 </v>
   <v>       0.01190476 </v>
   <v>       0.02380952 </v>
   <v>       0.02380952 </v>
   <v>       0.02380952 </v>
  </varray>
  <varray name="tetrahedronlist"  type="int" >
   <v type="int" >        2        3        6        7       22 </v>
   <v type="int" >        2        2        3        6       22 </v>
   <v type="int" >        2        2        3       18       22 </v>
   <v type="int" >        2        3        7       22       23 </v>
   <v type="int" >        2        3       19       22       23 </v>
   <v type="int" >        2        3       18       19       22 </v>
   <v type="int" >        2        6       19       22       23 </v>
   <v type="int" >        2        6       18       19       22 </v>
   <v type="int" >        2        2        6       18       19 </v>
   <v type="int" >        2        6        7       19       23 </v>
   <v type="int" >        2        3        6        7       19 </v>
   <v type="int" >        2        2        3        6       19 </v>
   <v type="int" >        2       11       24       27       28 </v>
   <v type="int" >        2       11       23       24       27 </v>
   <v type="int" >        2        7       11       23       24 </v>
   <v type="int" >        2       11       12       24       28 </v>
   <v type="int" >        2        8       11       12       24 </v>
   <v type="int" >        2        7        8       11       24 </v>
   <v type="int" >        2        8       11       12       27 </v>
   <v type="int" >        2        7        8       11       27 </v>
   <v type="int" >        2        7        8       23       27 </v>
   <v type="int" >        2        8       12       27       28 </v>
   <v type="int" >        2        8       24       27       28 </v>
   <v type="int" >        2        8       23       24       27 </v>
   <v type="int" >        2       12       16       16       32 </v>
   <v type="int" >        2       12       12       16       32 </v>
   <v type="int" >        2       12       12       28       32 </v>
   <v type="int" >        2       12       16       32       32 </v>
   <v type="int" >        2       12       28       32       32 </v>
   <v type="int" >        2       12       28       28       32 </v>
   <v type="int" >        2       16       28       32       32 </v>
   <v type="int" >        2       16       28       28       32 </v>
   <v type="int" >        2       12       16       28       28 </v>
   <v type="int" >        2       16       16       28       32 </v>
   <v type="int" >        2       12       16       16       28 </v>
   <v type="int" >        2       12       12       16       28 </v>
   <v type="int" >        2       12       27       28       31 </v>
   <v type="int" >        2       12       28       31       32 </v>
   <v type="int" >        2       12       16       31       32 </v>
   <v type="int" >        2       11       12       27       31 </v>
   <v type="int" >        2       11       12       15       31 </v>
   <v type="int" >        2       12       15       16       31 </v>
   <v type="int" >        2       11       12       15       28 </v>
   <v type="int" >        2       12       15       16       28 </v>
   <v type="int" >        2       15       16       28       32 </v>
   <v type="int" >        2       11       15       27       28 </v>
   <v type="int" >        2       15       27       28       31 </v>
   <v type="int" >        2       15       28       31       32 </v>
   <v type="int" >        2        6        7       10       23 </v>
   <v type="int" >        2        7       10       11       23 </v>
   <v type="int" >        2       10       11       23       27 </v>
   <v type="int" >        2        6       10       22       23 </v>
   <v type="int" >        2       10       22       23       26 </v>
   <v type="int" >        2       10       23       26       27 </v>
   <v type="int" >        2        7       22       23       26 </v>
   <v type="int" >        2        7       23       26       27 </v>
   <v type="int" >        2        7       11       26       27 </v>
   <v type="int" >        2        6        7       22       26 </v>
   <v type="int" >        2        6        7       10       26 </v>
   <v type="int" >        2        7       10       11       26 </v>
   <v type="int" >        2        2       17       18       21 </v>
   <v type="int" >        2        2       18       21       22 </v>
   <v type="int" >        2        2        6       21       22 </v>
   <v type="int" >        2        1        2       17       21 </v>
   <v type="int" >        2        1        2        5       21 </v>
   <v type="int" >        2        2        5        6       21 </v>
   <v type="int" >        2        1        2        5       18 </v>
   <v type="int" >        2        2        5        6       18 </v>
   <v type="int" >        2        5        6       18       22 </v>
   <v type="int" >        2        1        5       17       18 </v>
   <v type="int" >        2        5       17       18       21 </v>
   <v type="int" >        2        5       18       21       22 </v>
   <v type="int" >        2        1        5        6       22 </v>
   <v type="int" >        2        1        2        6       22 </v>
   <v type="int" >        2        1        2       18       22 </v>
   <v type="int" >        2        1        5       21       22 </v>
   <v type="int" >        2        1       17       21       22 </v>
   <v type="int" >        2        1       17       18       22 </v>
   <v type="int" >        2        6       17       21       22 </v>
   <v type="int" >        2        6       17       18       22 </v>
   <v type="int" >        2        2        6       17       18 </v>
   <v type="int" >        2        5        6       17       21 </v>
   <v type="int" >        2        1        5        6       17 </v>
   <v type="int" >        2        1        2        6       17 </v>
   <v type="int" >        2        9       22       25       26 </v>
   <v type="int" >        2        9       21       22       25 </v>
   <v type="int" >        2        5        9       21       22 </v>
   <v type="int" >        2        9       10       22       26 </v>
   <v type="int" >        2        6        9       10       22 </v>
   <v type="int" >        2        5        6        9       22 </v>
   <v type="int" >        2        6        9       10       25 </v>
   <v type="int" >        2        5        6        9       25 </v>
   <v type="int" >        2        5        6       21       25 </v>
   <v type="int" >        2        6       10       25       26 </v>
   <v type="int" >        2        6       22       25       26 </v>
   <v type="int" >        2        6       21       22       25 </v>
   <v type="int" >        2       11       14       15       30 </v>
   <v type="int" >        2       10       11       14       30 </v>
   <v type="int" >        2       10       11       26       30 </v>
   <v type="int" >        2       11       15       30       31 </v>
   <v type="int" >        2       11       27       30       31 </v>
   <v type="int" >        2       11       26       27       30 </v>
   <v type="int" >        2       14       27       30       31 </v>
   <v type="int" >        2       14       26       27       30 </v>
   <v type="int" >        2       10       14       26       27 </v>
   <v type="int" >        2       14       15       27       31 </v>
   <v type="int" >        2       11       14       15       27 </v>
   <v type="int" >        2       10       11       14       27 </v>
   <v type="int" >        2       11       27       28       32 </v>
   <v type="int" >        2       11       27       31       32 </v>
   <v type="int" >        2       11       15       31       32 </v>
   <v type="int" >        2       11       12       28       32 </v>
   <v type="int" >        2       11       12       16       32 </v>
   <v type="int" >        2       11       15       16       32 </v>
   <v type="int" >        2       11       12       16       27 </v>
   <v type="int" >        2       11       15       16       27 </v>
   <v type="int" >        2       15       16       27       31 </v>
   <v type="int" >        2       12       16       27       28 </v>
   <v type="int" >        2       16       27       28       32 </v>
   <v type="int" >        2       16       27       31       32 </v>
   <v type="int" >        2        8        8       12       24 </v>
   <v type="int" >        2        8       12       12       24 </v>
   <v type="int" >        2       12       12       24       28 </v>
   <v type="int" >        2        8       12       24       24 </v>
   <v type="int" >        2       12       24       24       28 </v>
   <v type="int" >        2       12       24       28       28 </v>
   <v type="int" >        2        8       24       24       28 </v>
   <v type="int" >        2        8       24       28       28 </v>
   <v type="int" >        2        8       12       28       28 </v>
   <v type="int" >        2        8        8       24       28 </v>
   <v type="int" >        2        8        8       12       28 </v>
   <v type="int" >        2        8       12       12       28 </v>
   <v type="int" >        2        4       19       20       23 </v>
   <v type="int" >        2        4       20       23       24 </v>
   <v type="int" >        2        4        8       23       24 </v>
   <v type="int" >        2        3        4       19       23 </v>
   <v type="int" >        2        3        4        7       23 </v>
   <v type="int" >        2        4        7        8       23 </v>
   <v type="int" >        2        3        4        7       20 </v>
   <v type="int" >        2        4        7        8       20 </v>
   <v type="int" >        2        7        8       20       24 </v>
   <v type="int" >        2        3        7       19       20 </v>
   <v type="int" >        2        7       19       20       23 </v>
   <v type="int" >        2        7       20       23       24 </v>
   <v type="int" >        2        2        6        7       23 </v>
   <v type="int" >        2        2        3        7       23 </v>
   <v type="int" >        2        2        3       19       23 </v>
   <v type="int" >        2        2        6       22       23 </v>
   <v type="int" >        2        2       18       22       23 </v>
   <v type="int" >        2        2       18       19       23 </v>
   <v type="int" >        2        7       18       22       23 </v>
   <v type="int" >        2        7       18       19       23 </v>
   <v type="int" >        2        3        7       18       19 </v>
   <v type="int" >        2        6        7       18       22 </v>
   <v type="int" >        2        2        6        7       18 </v>
   <v type="int" >        2        2        3        7       18 </v>
   <v type="int" >        2       10       21       25       26 </v>
   <v type="int" >        2       10       21       22       26 </v>
   <v type="int" >        2        6       10       21       22 </v>
   <v type="int" >        2        9       10       21       25 </v>
   <v type="int" >        2        5        9       10       21 </v>
   <v type="int" >        2        5        6       10       21 </v>
   <v type="int" >        2        5        9       10       26 </v>
   <v type="int" >        2        5        6       10       26 </v>
   <v type="int" >        2        5        6       22       26 </v>
   <v type="int" >        2        5        9       25       26 </v>
   <v type="int" >        2        5       21       25       26 </v>
   <v type="int" >        2        5       21       22       26 </v>
   <v type="int" >        2       10       13       14       29 </v>
   <v type="int" >        2        9       10       13       29 </v>
   <v type="int" >        2        9       10       25       29 </v>
   <v type="int" >        2       10       14       29       30 </v>
   <v type="int" >        2       10       26       29       30 </v>
   <v type="int" >        2       10       25       26       29 </v>
   <v type="int" >        2       13       26       29       30 </v>
   <v type="int" >        2       13       25       26       29 </v>
   <v type="int" >        2        9       13       25       26 </v>
   <v type="int" >        2       13       14       26       30 </v>
   <v type="int" >        2       10       13       14       26 </v>
   <v type="int" >        2        9       10       13       26 </v>
   <v type="int" >        2       10       26       27       31 </v>
   <v type="int" >        2       10       26       30       31 </v>
   <v type="int" >        2       10       14       30       31 </v>
   <v type="int" >        2       10       11       27       31 </v>
   <v type="int" >        2       10       11       15       31 </v>
   <v type="int" >        2       10       14       15       31 </v>
   <v type="int" >        2       10       11       15       26 </v>
   <v type="int" >        2       10       14       15       26 </v>
   <v type="int" >        2       14       15       26       30 </v>
   <v type="int" >        2       11       15       26       27 </v>
   <v type="int" >        2       15       26       27       31 </v>
   <v type="int" >        2       15       26       30       31 </v>
   <v type="int" >        2        7        8       12       23 </v>
   <v type="int" >        2        7       11       12       23 </v>
   <v type="int" >        2       11       12       23       27 </v>
   <v type="int" >        2        8       12       23       24 </v>
   <v type="int" >        2       12       23       24       28 </v>
   <v type="int" >        2       12       23       27       28 </v>
   <v type="int" >        2        7       23       24       28 </v>
   <v type="int" >        2        7       23       27       28 </v>
   <v type="int" >        2        7       11       27       28 </v>
   <v type="int" >        2        7        8       24       28 </v>
   <v type="int" >        2        7        8       12       28 </v>
   <v type="int" >        2        7       11       12       28 </v>
   <v type="int" >        2        4       20       20       24 </v>
   <v type="int" >        2        4       20       24       24 </v>
   <v type="int" >        2        4        8       24       24 </v>
   <v type="int" >        2        4        4       20       24 </v>
   <v type="int" >        2        4        4        8       24 </v>
   <v type="int" >        2        4        8        8       24 </v>
   <v type="int" >        2        4        4        8       20 </v>
   <v type="int" >        2        4        8        8       20 </v>
   <v type="int" >        2        8        8       20       24 </v>
   <v type="int" >        2        4        8       20       20 </v>
   <v type="int" >        2        8       20       20       24 </v>
   <v type="int" >        2        8       20       24       24 </v>
   <v type="int" >        2        3        7        8       24 </v>
   <v type="int" >        2        3        4        8       24 </v>
   <v type="int" >        2        3        4       20       24 </v>
   <v type="int" >        2        3        7       23       24 </v>
   <v type="int" >        2        3       19       23       24 </v>
   <v type="int" >        2        3       19       20       24 </v>
   <v type="int" >        2        8       19       23       24 </v>
   <v type="int" >        2        8       19       20       24 </v>
   <v type="int" >        2        4        8       19       20 </v>
   <v type="int" >        2        7        8       19       23 </v>
   <v type="int" >        2        3        7        8       19 </v>
   <v type="int" >        2        3        4        8       19 </v>
   <v type="int" >        2       11       22       26       27 </v>
   <v type="int" >        2       11       22       23       27 </v>
   <v type="int" >        2        7       11       22       23 </v>
   <v type="int" >        2       10       11       22       26 </v>
   <v type="int" >        2        6       10       11       22 </v>
   <v type="int" >        2        6        7       11       22 </v>
   <v type="int" >        2        6       10       11       27 </v>
   <v type="int" >        2        6        7       11       27 </v>
   <v type="int" >        2        6        7       23       27 </v>
   <v type="int" >        2        6       10       26       27 </v>
   <v type="int" >        2        6       22       26       27 </v>
   <v type="int" >        2        6       22       23       27 </v>
   <v type="int" >        2        9       13       14       30 </v>
   <v type="int" >        2        9       10       14       30 </v>
   <v type="int" >        2        9       10       26       30 </v>
   <v type="int" >        2        9       13       29       30 </v>
   <v type="int" >        2        9       25       29       30 </v>
   <v type="int" >        2        9       25       26       30 </v>
   <v type="int" >        2       14       25       29       30 </v>
   <v type="int" >        2       14       25       26       30 </v>
   <v type="int" >        2       10       14       25       26 </v>
   <v type="int" >        2       13       14       25       29 </v>
   <v type="int" >        2        9       13       14       25 </v>
   <v type="int" >        2        9       10       14       25 </v>
  </varray>
  <i name="volumeweight">      0.00198413 </i>
 </kpoints>
 <parameters>
  <separator name="general" >
   <i type="string" name="SYSTEM">unknown system</i>
   <i type="logical" name="LCOMPAT"> F  </i>
  </separator>
  <separator name="electronic" >
   <i type="string" name="PREC">accura</i>
   <i name="ENMAX">    680.00000000</i>
   <i name="ENAUG">   1360.00000000</i>
   <i name="EDIFF">      0.00001000</i>
   <i type="int" name="IALGO">    68</i>
   <i type="int" name="IWAVPR">    10</i>
   <i type="int" name="NBANDS">    72</i>
   <i type="int" name="NBANDSLOW">    -1</i>
   <i type="int" name="NBANDSHIGH">    -1</i>
   <i name="NELECT">     80.00000000</i>
   <i type="int" name="TURBO">     0</i>
   <i type="int" name="IRESTART">     0</i>
   <i type="int" name="NREBOOT">     0</i>
   <i type="int" name="NMIN">     0</i>
   <i name="EREF">      0.00000000</i>
   <separator name="electronic smearing" >
    <i type="int" name="ISMEAR">    -5</i>
    <i name="SIGMA">      0.05000000</i>
    <i name="KSPACING">      0.50000000</i>
    <i type="logical" name="KGAMMA"> T  </i>
    <i type="logical" name="KBLOWUP"> T  </i>
   </separator>
   <separator name="electronic projectors" >
    <i type="logical" name="LREAL"> F  </i>
    <v name="ROPT">      0.00000000      0.00000000</v>
    <i type="int" name="LMAXPAW">  -100</i>
    <i type="int" name="LMAXMIX">     4</i>
    <i type="logical" name="NLSPLINE"> F  </i>
   </separator>
   <separator name="electronic startup" >
    <i type="int" name="ISTART">     0</i>
    <i type="int" name="ICHARG">    11</i>
    <i type="int" name="INIWAV">     1</i>
   </separator>
   <separator name="electronic spin" >
    <i type="int" name="ISPIN">     1</i>
    <i type="logical" name="LNONCOLLINEAR"> F  </i>
    <v name="MAGMOM">      1.00000000      1.00000000      1.00000000      1.00000000      1.00000000      1.00000000      1.00000000      1.00000000</v>
    <i name="NUPDOWN">     -1.00000000</i>
    <i type="logical" name="LSORBIT"> F  </i>
    <v name="SAXIS">      0.00000000      0.00000000      1.00000000</v>
    <i type="logical" name="LSPIRAL"> F  </i>
    <v name="QSPIRAL">      0.00000000      0.00000000      0.00000000</v>
    <i type="logical" name="LZEROZ"> F  </i>
   </separator>
   <separator name="electronic exchange-correlation" >
    <i type="logical" name="LASPH"> T  </i>
    <i type="logical" name="LMETAGGA"> F  </i>
   </separator>
   <separator name="electronic convergence" >
    <i type="int" name="NELM">   200</i>
    <i type="int" name="NELMDL">    -5</i>
    <i type="int" name="NELMIN">     2</i>
    <i name="ENINI">    680.00000000</i>
    <separator name="electronic convergence detail" >
     <i type="logical" name="LDIAG"> T  </i>
     <i type="logical" name="LSUBROT"> F  </i>
     <i name="WEIMIN">      0.00000000</i>
     <i name="EBREAK">      0.00000003</i>
     <i name="DEPER">      0.30000000</i>
     <i type="int" name="NRMM">     4</i>
     <i name="TIME">      0.40000000</i>
    </separator>
   </separator>
   <separator name="electronic mixer" >
    <i name="AMIX">      0.40000000</i>
    <i name="BMIX">      1.00000000</i>
    <i name="AMIN">      0.10000000</i>
    <i name="AMIX_MAG">      1.60000000</i>
    <i name="BMIX_MAG">      1.00000000</i>
    <separator name="electronic mixer details" >
     <i type="int" name="IMIX">     4</i>
     <i type="logical" name="MIXFIRST"> F  </i>
     <i type="int" name="MAXMIX">   -45</i>
     <i name="WC">    100.00000000</i>
     <i type="int" name="INIMIX">     1</i>
     <i type="int" name="MIXPRE">     1</i>
     <i type="int" name="MREMOVE">     5</i>
    </separator>
   </separator>
   <separator name="electronic dipolcorrection" >
    <i type="logical" name="LDIPOL"> F  </i>
    <i type="logical" name="LMONO"> F  </i>
    <i type="int" name="IDIPOL">     0</i>
    <i name="EPSILON">      1.00000000</i>
    <v name="DIPOL">   -100.00000000   -100.00000000   -100.00000000</v>
    <i name="EFIELD">      0.00000000</i>
   </separator>
  </separator>
  <separator name="grids" >
   <i type="int" name="NGX">    36</i>
   <i type="int" name="NGY">    40</i>
   <i type="int" name="NGZ">    98</i>
   <i type="int" name="NGXF">    72</i>
   <i type="int" name="NGYF">    80</i>
   <i type="int" name="NGZF">   196</i>
   <i type="logical" name="ADDGRID"> F  </i>
  </separator>
  <separator name="ionic" >
   <i type="int" name="NSW">     0</i>
   <i type="int" name="IBRION">    -1</i>
   <i type="int" name="MDALGO">     0</i>
   <i type="int" name="ISIF">     2</i>
   <i name="PSTRESS">      0.00000000</i>
   <i name="EDIFFG">      0.00010000</i>
   <i type="int" name="NFREE">     0</i>
   <i name="POTIM">      0.50000000</i>
   <i name="SMASS">     -3.00000000</i>
   <i name="SCALEE">      1.00000000</i>
  </separator>
  <separator name="ionic md" >
   <i name="TEBEG">      0.00010000</i>
   <i name="TEEND">      0.00010000</i>
   <i type="int" name="NBLOCK">     1</i>
   <i type="int" name="KBLOCK">     1</i>
   <i type="int" name="NPACO">   256</i>
   <i name="APACO">     10.00000000</i>
  </separator>
  <separator name="symmetry" >
   <i type="int" name="ISYM">     2</i>
   <i name="SYMPREC">      0.00001000</i>
  </separator>
  <separator name="dos" >
   <i type="int" name="LORBIT">    11</i>
   <v name="RWIGS">     -1.00000000     -1.00000000</v>
   <i type="int" name="NEDOS">  1561</i>
   <i name="EMIN">     10.00000000</i>
   <i name="EMAX">    -10.00000000</i>
   <i name="EFERMI">      0.00000000</i>
  </separator>
  <separator name="writing" >
   <i type="int" name="NWRITE">     2</i>
   <i type="logical" name="LWAVE"> T  </i>
   <i type="logical" name="LDOWNSAMPLE"> F  </i>
   <i type="logical" name="LCHARG"> F  </i>
   <i type="logical" name="LPARD"> F  </i>
   <i type="logical" name="LVTOT"> T  </i>
   <i type="logical" name="LVHAR"> F  </i>
   <i type="logical" name="LELF"> F  </i>
   <i type="logical" name="LOPTICS"> F  </i>
   <v name="STM">      0.00000000      0.00000000      0.00000000      0.00000000      0.00000000      0.00000000      0.00000000</v>
  </separator>
  <separator name="performance" >
   <i type="int" name="NPAR">    12</i>
   <i type="int" name="NSIM">     4</i>
   <i type="int" name="NBLK">    -1</i>
   <i type="logical" name="LPLANE"> T  </i>
   <i type="logical" name="LSCALAPACK"> T  </i>
   <i type="logical" name="LSCAAWARE"> F  </i>
   <i type="logical" name="LSCALU"> F  </i>
   <i type="logical" name="LASYNC"> F  </i>
   <i type="logical" name="LORBITALREAL"> F  </i>
  </separator>
  <separator name="miscellaneous" >
   <i type="int" name="IDIOT">     3</i>
   <i type="int" name="PHON_NSTRUCT">    -1</i>
   <i type="logical" name="LMUSIC"> F  </i>
   <v name="POMASS">    118.71000000     32.06600000</v>
   <v name="DARWINR">      0.00000000      0.00000000</v>
   <v name="DARWINV">      1.00000000      1.00000000</v>
   <i type="logical" name="LCORR"> T  </i>
  </separator>
  <i type="logical" name="GGA_COMPAT"> T  </i>
  <i type="logical" name="LBERRY"> F  </i>
  <i type="int" name="ICORELEVEL">     0</i>
  <i type="logical" name="LDAU"> F  </i>
  <i type="int" name="I_CONSTRAINED_M">     0</i>
  <separator name="electronic exchange-correlation" >
   <i type="string" name="GGA">PS</i>
   <i type="int" name="VOSKOWN">     0</i>
   <i type="logical" name="LHFCALC"> F  </i>
   <i type="string" name="PRECFOCK"></i>
   <i type="logical" name="LSYMGRAD"> F  </i>
   <i type="logical" name="LHFONE"> F  </i>
   <i type="logical" name="LRHFCALC"> F  </i>
   <i type="logical" name="LTHOMAS"> F  </i>
   <i type="logical" name="LMODELHF"> F  </i>
   <i type="logical" name="LFOCKACE"> F  </i>
   <i name="ENCUT4O">     -1.00000000</i>
   <i type="int" name="EXXOEP">     0</i>
   <i type="int" name="FOURORBIT">     0</i>
   <i name="AEXX">      0.00000000</i>
   <i name="HFALPHA">      0.00000000</i>
   <i name="MCALPHA">      0.00000000</i>
   <i name="ALDAX">      1.00000000</i>
   <i name="AGGAX">      1.00000000</i>
   <i name="ALDAC">      1.00000000</i>
   <i name="AGGAC">      1.00000000</i>
   <i type="int" name="NKREDX">     1</i>
   <i type="int" name="NKREDY">     1</i>
   <i type="int" name="NKREDZ">     1</i>
   <i type="logical" name="SHIFTRED"> F  </i>
   <i type="logical" name="ODDONLY"> F  </i>
   <i type="logical" name="EVENONLY"> F  </i>
   <i type="int" name="LMAXFOCK">     0</i>
   <i type="int" name="NMAXFOCKAE">     0</i>
   <i type="logical" name="LFOCKAEDFT"> F  </i>
   <i name="HFSCREEN">      0.00000000</i>
   <i name="HFSCREENC">      0.00000000</i>
   <i type="int" name="NBANDSGWLOW">     0</i>
  </separator>
  <separator name="vdW DFT" >
   <i type="logical" name="LUSE_VDW"> F  </i>
   <i type="int" name="IVDW_NL">     1</i>
   <i type="logical" name="LSPIN_VDW"> F  </i>
   <i name="Zab_VDW">     -0.84910000</i>
   <i name="PARAM1">      0.12340000</i>
   <i name="PARAM2">      1.00000000</i>
   <i name="PARAM3">      0.00000000</i>
  </separator>
  <separator name="model GW" >
   <i type="int" name="MODEL_GW">     0</i>
   <i name="MODEL_EPS0">     15.32426613</i>
   <i name="MODEL_ALPHA">      1.00000000</i>
  </separator>
  <separator name="linear response parameters" >
   <i type="logical" name="LEPSILON"> F  </i>
   <i type="logical" name="LRPA"> F  </i>
   <i type="logical" name="LNABLA"> F  </i>
   <i type="logical" name="LVEL"> F  </i>
   <i name="CSHIFT">      0.10000000</i>
   <i name="OMEGAMAX">     -1.00000000</i>
   <i name="DEG_THRESHOLD">      0.00200000</i>
   <i name="RTIME">     -0.10000000</i>
   <i name="WPLASMAI">      0.00000000</i>
   <v name="DFIELD">      0.00000000      0.00000000      0.00000000</v>
   <v name="WPLASMA">      0.00000000      0.00000000      0.00000000      0.00000000      0.00000000      0.00000000      0.00000000      0.00000000      0.00000000</v>
  </separator>
  <separator name="orbital magnetization" >
   <i type="logical" name="NUCIND"> F  </i>
   <v name="MAGPOS">      0.00000000      0.00000000      0.00000000</v>
   <i type="logical" name="LNICSALL"> T  </i>
   <i type="logical" name="ORBITALMAG"> F  </i>
   <i type="logical" name="LMAGBLOCH"> F  </i>
   <i type="logical" name="LCHIMAG"> F  </i>
   <i type="logical" name="LGAUGE"> T  </i>
   <i type="int" name="MAGATOM">     0</i>
   <v name="MAGDIPOL">      0.00000000      0.00000000      0.00000000</v>
   <v name="AVECCONST">      0.00000000      0.00000000      0.00000000</v>
  </separator>
  <separator name="response functions" >
   <i type="logical" name="LALL_IN_ONE"> F  </i>
   <i type="int" name="IALL_IN_ONE">    -1</i>
   <i type="int" name="NBANDS_WAVE">    -1</i>
   <i type="logical" name="LFINITE_TEMPERATURE"> F  </i>
   <i type="logical" name="LADDER"> F  </i>
   <i type="logical" name="LRPAFORCE"> F  </i>
   <i type="logical" name="LFXC"> F  </i>
   <i type="logical" name="LHARTREE"> T  </i>
   <i type="int" name="IBSE">     0</i>
   <v type="int" name="KPOINT">    -1     0     0     0</v>
   <i type="logical" name="LTCTC"> F  </i>
   <i type="logical" name="LTCTE"> F  </i>
   <i type="logical" name="LTETE"> F  </i>
   <i type="logical" name="LTRIPLET"> F  </i>
   <i type="logical" name="LFXCEPS"> F  </i>
   <i type="logical" name="LFXHEG"> F  </i>
   <i type="int" name="NATURALO">     2</i>
   <i type="logical" name="LHOLEGF"> F  </i>
   <i type="logical" name="L2ORDER"> F  </i>
   <i type="logical" name="LDMP1"> F  </i>
   <i type="logical" name="LMP2LT"> F  </i>
   <i type="logical" name="LSMP2LT"> F  </i>
   <i type="logical" name="LGWLF"> F  </i>
   <i name="ENCUTGW">     -1.60000002</i>
   <i name="ENCUTGWSOFT">     -1.60000002</i>
   <i name="ENCUTLF">     -1.00000000</i>
   <i type="logical" name="LESF_SPLINES"> F  </i>
   <i type="int" name="LMAXMP2">    -1</i>
   <i name="SCISSOR">      0.00000000</i>
   <i type="int" name="NOMEGA">     0</i>
   <i type="int" name="NOMEGAR">     0</i>
   <i type="int" name="NBANDSGW">    -1</i>
   <i type="int" name="NBANDSO">    -1</i>
   <i type="int" name="NBANDSV">    -1</i>
   <i type="int" name="NELMGW">     1</i>
   <i type="int" name="NELMHF">     1</i>
   <i type="int" name="DIM">     3</i>
   <i type="int" name="IESPILON">     4</i>
   <i type="int" name="ANTIRES">     0</i>
   <i name="OMEGAMAX">    -30.00000000</i>
   <i name="OMEGAMIN">    -30.00000000</i>
   <i name="OMEGATL">   -200.00000000</i>
   <i type="int" name="OMEGAGRID">     0</i>
   <i name="CSHIFT">     -0.10000000</i>
   <i type="logical" name="LSELFENERGY"> F  </i>
   <i type="logical" name="LSPECTRAL"> F  </i>
   <i type="logical" name="LSPECTRALGW"> F  </i>
   <i type="logical" name="LSINGLES"> F  </i>
   <i type="logical" name="LFERMIGW"> F  </i>
   <i type="logical" name="ODDONLYGW"> F  </i>
   <i type="logical" name="EVENONLYGW"> F  </i>
   <i type="int" name="NKREDLFX">     1</i>
   <i type="int" name="NKREDLFY">     1</i>
   <i type="int" name="NKREDLFZ">     1</i>
   <i type="int" name="MAXMEM">  2800</i>
   <i type="int" name="TELESCOPE">     0</i>
   <i type="int" name="NTAUPAR">    -1</i>
   <i type="int" name="NOMEGAPAR">    -1</i>
   <i name="DAMP_NEWTON">      0.80000001</i>
   <i name="LAMBDA">      1.00000000</i>
  </separator>
  <separator name="External order field" >
   <i name="OFIELD_KAPPA">      0.00000000</i>
   <v name="OFIELD_K">      0.00000000      0.00000000      0.00000000</v>
   <i name="OFIELD_Q6_NEAR">      0.00000000</i>
   <i name="OFIELD_Q6_FAR">      0.00000000</i>
   <i name="OFIELD_A">      0.00000000</i>
  </separator>
  <separator name="optional k-points parameters" >
   <i type="int" name="KPOINTS_OPT_MODE">     1</i>
   <i type="logical" name="LKPOINTS_OPT"> F  </i>
  </separator>
 </parameters>
 <atominfo>
  <atoms>       8 </atoms>
  <types>       2 </types>
  <array name="atoms" >
   <dimension dim="1">ion</dimension>
   <field type="string">element</field>
   <field type="int">atomtype</field>
   <set>
    <rc><c>Sn</c><c>   1</c></rc>
    <rc><c>Sn</c><c>   1</c></rc>
    <rc><c>Sn</c><c>   1</c></rc>
    <rc><c>Sn</c><c>   1</c></rc>
    <rc><c>S </c><c>   2</c></rc>
    <rc><c>S </c><c>   2</c></rc>
    <rc><c>S </c><c>   2</c></rc>
    <rc><c>S </c><c>   2</c></rc>
   </set>
  </array>
  <array name="atomtypes" >
   <dimension dim="1">type</dimension>
   <field type="int">atomspertype</field>
   <field type="string">element</field>
   <field>mass</field>
   <field>valence</field>
   <field type="string">pseudopotential</field>
   <set>
    <rc><c>   4</c><c>Sn</c><c>    118.71000000</c><c>     14.00000000</c><c>  PAW_PBE Sn_d 06Sep2000                </c></rc>
    <rc><c>   4</c><c>S </c><c>     32.06600000</c><c>      6.00000000</c><c>  PAW_PBE S 06Sep2000                   </c></rc>
   </set>
  </array>
 </atominfo>
 <structure name="initialpos" >
  <crystal>
   <varray name="basis" >
    <v>       3.95685521       0.00000000       0.00000000 </v>
    <v>      -0.00000000       4.53281069       0.00000000 </v>
    <v>       0.00000000       0.00000000      11.39201851 </v>
   </varray>
   <i name="volume">    204.32354836 </i>
   <varray name="rec_basis" >
    <v>       0.25272595       0.00000000       0.00000000 </v>
    <v>       0.00000000       0.22061367       0.00000000 </v>
    <v>      -0.00000000      -0.00000000       0.08778076 </v>
   </varray>
  </crystal>
  <varray name="positions" >
   <v>       0.25000000       0.36953984       0.62163275 </v>
   <v>       0.75000000       0.63046016       0.37836725 </v>
   <v>       0.75000000       0.86953984       0.87836725 </v>
   <v>       0.25000000       0.13046016       0.12163275 </v>
   <v>       0.25000000       0.01059680       0.34749746 </v>
   <v>       0.75000000       0.98940320       0.65250254 </v>
   <v>       0.75000000       0.51059680       0.15250254 </v>
   <v>       0.25000000       0.48940320       0.84749746 </v>
  </varray>
 </structure>
 <calculation>
  <scstep>
   <time name="dav">    1.13    1.14</time>
   <time name="total">    1.32    1.33</time>
   <energy>
    <i name="alphaZ">    164.67690988 </i>
    <i name="ewald">  -6009.93810534 </i>
    <i name="hartreedc">  -2391.60779511 </i>
    <i name="XCdc">    280.39784118 </i>
    <i name="pawpsdc">   9113.64370929 </i>
    <i name="pawaedc">  -9250.52643428 </i>
    <i name="eentropy">      0.00000000 </i>
    <i name="bandstr">    373.03651574 </i>
    <i name="atom">   8674.79762248 </i>
    <i name="e_fr_energy">    954.48026384 </i>
    <i name="e_wo_entrp">    954.48026384 </i>
    <i name="e_0_energy">    954.48026384 </i>
   </energy>
  </scstep>
  <scstep>
   <time name="dav">    0.92    0.92</time>
   <time name="total">    0.96    0.96</time>
   <energy>
    <i name="e_fr_energy">    134.55590311 </i>
    <i name="e_wo_entrp">    134.55590311 </i>
    <i name="e_0_energy">    134.55590311 </i>
   </energy>
  </scstep>
  <scstep>
   <time name="dav">    0.97    0.99</time>
   <time name="total">    0.99    1.01</time>
   <energy>
    <i name="e_fr_energy">    -27.74811343 </i>
    <i name="e_wo_entrp">    -27.74811343 </i>
    <i name="e_0_energy">    -27.74811343 </i>
   </energy>
  </scstep>
  <scstep>
   <time name="dav">    0.99    1.01</time>
   <time name="total">    1.02    1.03</time>
   <energy>
    <i name="e_fr_energy">    -37.93101304 </i>
    <i name="e_wo_entrp">    -37.93101304 </i>
    <i name="e_0_energy">    -37.93101304 </i>
   </energy>
  </scstep>
  <scstep>
   <time name="dav">    1.00    1.01</time>
   <time name="total">    1.02    1.04</time>
   <energy>
    <i name="e_fr_energy">    -38.20654334 </i>
    <i name="e_wo_entrp">    -38.20654334 </i>
    <i name="e_0_energy">    -38.20654334 </i>
   </energy>
  </scstep>
  <scstep>
   <time name="diag">    0.30    0.32</time>
   <time name="diis">    0.38    0.38</time>
   <time name="orth">    0.04    0.04</time>
   <time name="total">    0.75    0.76</time>
   <energy>
    <i name="e_fr_energy">    -38.21412188 </i>
    <i name="e_wo_entrp">    -38.21412188 </i>
    <i name="e_0_energy">    -38.21412188 </i>
   </energy>
  </scstep>
  <scstep>
   <time name="diag">    0.30    0.31</time>
   <time name="diis">    0.50    0.50</time>
   <time name="orth">    0.04    0.04</time>
   <time name="total">    0.86    0.87</time>
   <energy>
    <i name="e_fr_energy">    -38.21736074 </i>
    <i name="e_wo_entrp">    -38.21736074 </i>
    <i name="e_0_energy">    -38.21736074 </i>
   </energy>
  </scstep>
  <scstep>
   <time name="diag">    0.31    0.32</time>
   <time name="diis">    0.49    0.49</time>
   <time name="orth">    0.04    0.04</time>
   <time name="total">    0.86    0.87</time>
   <energy>
    <i name="e_fr_energy">    -38.21755941 </i>
    <i name="e_wo_entrp">    -38.21755941 </i>
    <i name="e_0_energy">    -38.21755941 </i>
   </energy>
  </scstep>
  <scstep>
   <time name="diag">    0.31    0.32</time>
   <time name="diis">    0.47    0.47</time>
   <time name="orth">    0.04    0.04</time>
   <time name="total">    0.84    0.86</time>
   <energy>
    <i name="e_fr_energy">    -38.21760167 </i>
    <i name="e_wo_entrp">    -38.21760167 </i>
    <i name="e_0_energy">    -38.21760167 </i>
   </energy>
  </scstep>
  <scstep>
   <time name="diag">    0.30    0.32</time>
   <time name="diis">    0.36    0.37</time>
   <time name="orth">    0.04    0.04</time>
   <time name="total">    0.73    0.75</time>
   <energy>
    <i name="alphaZ">    164.67690988 </i>
    <i name="ewald">  -6009.93810534 </i>
    <i name="hartreedc">  -2391.60779511 </i>
    <i name="XCdc">    280.39784118 </i>
    <i name="pawpsdc">   9113.64370929 </i>
    <i name="pawaedc">  -9250.52643428 </i>
    <i name="eentropy">      0.00000000 </i>
    <i name="bandstr">   -619.66135388 </i>
    <i name="atom">   8674.79762248 </i>
    <i name="e_fr_energy">    -38.21760578 </i>
    <i name="e_wo_entrp">    -38.21760578 </i>
    <i name="e_0_energy">    -38.21760578 </i>
   </energy>
  </scstep>
  <structure>
   <crystal>
    <varray name="basis" >
     <v>       3.95685521       0.00000000       0.00000000 </v>
     <v>      -0.00000000       4.53281069       0.00000000 </v>
     <v>       0.00000000       0.00000000      11.39201851 </v>
    </varray>
    <i name="volume">    204.32354836 </i>
    <varray name="rec_basis" >
     <v>       0.25272595       0.00000000       0.00000000 </v>
     <v>       0.00000000       0.22061367       0.00000000 </v>
     <v>      -0.00000000      -0.00000000       0.08778076 </v>
    </varray>
   </crystal>
   <varray name="positions" >
    <v>       0.25000000       0.36953984       0.62163275 </v>
    <v>       0.75000000       0.63046016       0.37836725 </v>
    <v>       0.75000000       0.86953984       0.87836725 </v>
    <v>       0.25000000       0.13046016       0.12163275 </v>
    <v>       0.25000000       0.01059680       0.34749746 </v>
    <v>       0.75000000       0.98940320       0.65250254 </v>
    <v>       0.75000000       0.51059680       0.15250254 </v>
    <v>       0.25000000       0.48940320       0.84749746 </v>
   </varray>
  </structure>
  <varray name="forces" >
   <v>      -0.00000000       0.06279450      -0.06674394 </v>
   <v>       0.00000000      -0.06279450       0.06674394 </v>
   <v>      -0.00000000       0.06279450       0.06674394 </v>
   <v>       0.00000000      -0.06279450      -0.06674394 </v>
   <v>      -0.00000000       0.08061074       0.06876590 </v>
   <v>       0.00000000      -0.08061074      -0.06876590 </v>
   <v>      -0.00000000       0.08061074      -0.06876590 </v>
   <v>       0.00000000      -0.08061074       0.06876590 </v>
  </varray>
  <varray name="stress" >
   <v>     -13.43429973      -0.00000000      -0.00000000 </v>
   <v>       0.00000000     -18.04049776      -0.00000000 </v>
   <v>      -0.00000000      -0.00000000     -14.20131757 </v>
  </varray>
  <energy>
   <i name="e_fr_energy">    -38.21760578 </i>
   <i name="e_wo_entrp">    -38.21760578 </i>
   <i name="e_0_energy">    -38.21760578 </i>
  </energy>
  <time name="totalsc">   11.14   11.31</time>
  <eigenvalues>
   <array>
    <dimension dim="1">band</dimension>
    <dimension dim="2">kpoint</dimension>
    <dimension dim="3">spin</dimension>
    <field>eigene</field>
    <field>occ</field>
    <set>
     <set comment="spin 1">
      <set comment="kpoint 1">
       <r>  -15.6702    1.0000 </r>
       <r>  -15.6575    1.0000 </r>
       <r>  -15.6488    1.0000 </r>
       <r>  -15.6417    1.0000 </r>
       <r>  -15.6378    1.0000 </r>
       <r>  -15.6344    1.0000 </r>
       <r>  -15.6323    1.0000 </r>
       <r>  -15.6285    1.0000 </r>
       <r>  -15.6175    1.0000 </r>
       <r>  -15.6174    1.0000 </r>
       <r>  -15.6075    1.0000 </r>
       <r>  -15.6011    1.0000 </r>
       <r>  -15.5983    1.0000 </r>
       <r>  -15.5967    1.0000 </r>
       <r>  -15.5778    1.0000 </r>
       <r>  -15.5735    1.0000 </r>
       <r>  -15.5660    1.0000 </r>
       <r>  -15.5655    1.0000 </r>
       <r>  -15.5612    1.0000 </r>
       <r>  -15.5548    1.0000 </r>
       <r>   -8.1968    1.0000 </r>
       <r>   -7.9440    1.0000 </r>
       <r>   -6.9473    1.0000 </r>
       <r>   -6.5663    1.0000 </r>
       <r>   -1.7850    1.0000 </r>
       <r>   -0.9366    1.0000 </r>
       <r>    0.0983    1.0000 </r>
       <r>    0.7844    1.0000 </r>
       <r>    0.8200    1.0000 </r>
       <r>    1.8255    1.0000 </r>
       <r>    2.1536    1.0000 </r>
       <r>    2.1962    1.0000 </r>
       <r>    2.2045    1.0000 </r>
       <r>    2.5103    1.0000 </r>
       <r>    3.2921    1.0000 </r>
       <r>    3.3967    1.0000 </r>
       <r>    3.6815    1.0000 </r>
       <r>    4.4114    1.0000 </r>
       <r>    4.6367    1.0000 </r>
       <r>    5.1478    1.0000 </r>
       <r>    6.5260    0.0000 </r>
       <r>    8.0765    0.0000 </r>
       <r>    8.1984    0.0000 </r>
       <r>    8.2761    0.0000 </r>
       <r>    8.5923    0.0000 </r>
       <r>    9.1290    0.0000 </r>
       <r>    9.1862    0.0000 </r>
       <r>   10.2209    0.0000 </r>
       <r>   10.4819    0.0000 </r>
       <r>   10.8648    0.0000 </r>
       <r>   10.8656    0.0000 </r>
       <r>   11.4489    0.0000 </r>
       <r>   11.6880    0.0000 </r>
       <r>   12.2408    0.0000 </r>
       <r>   12.5457    0.0000 </r>
       <r>   12.8308    0.0000 </r>
       <r>   13.0133    0.0000 </r>
       <r>   13.7620    0.0000 </r>
       <r>   13.8738    0.0000 </r>
       <r>   14.0560    0.0000 </r>
       <r>   14.2330    0.0000 </r>
       <r>   14.4789    0.0000 </r>
       <r>   14.5002    0.0000 </r>
       <r>   14.6553    0.0000 </r>
       <r>   15.3369    0.0000 </r>
       <r>   15.4415    0.0000 </r>
       <r>   15.6362    0.0000 </r>
       <r>   16.1730    0.0000 </r>
       <r>   16.3192    0.0000 </r>
       <r>   16.6672    0.0000 </r>
       <r>   16.8354    0.0000 </r>
       <r>   17.2299    0.0000 </r>
      </set>
      <set comment="kpoint 2">
       <r>  -15.6644    1.0000 </r>
       <r>  -15.6544    1.0000 </r>
       <r>  -15.6429    1.0000 </r>
       <r>  -15.6415    1.0000 </r>
       <r>  -15.6384    1.0000 </r>
       <r>  -15.6367    1.0000 </r>
       <r>  -15.6346    1.0000 </r>
       <r>  -15.6313    1.0000 </r>
       <r>  -15.6158    1.0000 </r>
       <r>  -15.6156    1.0000 </r>
       <r>  -15.6081    1.0000 </r>
       <r>  -15.6034    1.0000 </r>
       <r>  -15.5988    1.0000 </r>
       <r>  -15.5962    1.0000 </r>
       <r>  -15.5793    1.0000 </r>
       <r>  -15.5711    1.0000 </r>
       <r>  -15.5700    1.0000 </r>
       <r>  -15.5642    1.0000 </r>
       <r>  -15.5601    1.0000 </r>
       <r>  -15.5548    1.0000 </r>
       <r>   -8.0685    1.0000 </r>
       <r>   -7.8263    1.0000 </r>
       <r>   -6.8860    1.0000 </r>
       <r>   -6.5435    1.0000 </r>
       <r>   -1.8981    1.0000 </r>
       <r>   -1.1332    1.0000 </r>
       <r>    0.0356    1.0000 </r>
       <r>    0.2852    1.0000 </r>
       <r>    0.7369    1.0000 </r>
       <r>    1.9512    1.0000 </r>
       <r>    1.9741    1.0000 </r>
       <r>    2.2606    1.0000 </r>
       <r>    2.3275    1.0000 </r>
       <r>    2.4515    1.0000 </r>
       <r>    3.3351    1.0000 </r>
       <r>    3.4336    1.0000 </r>
       <r>    3.5672    1.0000 </r>
       <r>    4.6406    1.0000 </r>
       <r>    4.7292    1.0000 </r>
       <r>    5.0615    1.0000 </r>
       <r>    6.6822    0.0000 </r>
       <r>    7.7220    0.0000 </r>
       <r>    8.3844    0.0000 </r>
       <r>    8.3943    0.0000 </r>
       <r>    8.6680    0.0000 </r>
       <r>    8.8433    0.0000 </r>
       <r>    9.3750    0.0000 </r>
       <r>    9.4401    0.0000 </r>
       <r>    9.6846    0.0000 </r>
       <r>   10.9761    0.0000 </r>
       <r>   11.0461    0.0000 </r>
       <r>   11.1479    0.0000 </r>
       <r>   11.6160    0.0000 </r>
       <r>   11.8309    0.0000 </r>
       <r>   11.8642    0.0000 </r>
       <r>   12.1350    0.0000 </r>
       <r>   12.3712    0.0000 </r>
       <r>   13.7137    0.0000 </r>
       <r>   14.3081    0.0000 </r>
       <r>   14.3460    0.0000 </r>
       <r>   14.5929    0.0000 </r>
       <r>   14.6745    0.0000 </r>
       <r>   14.9315    0.0000 </r>
       <r>   15.4446    0.0000 </r>
       <r>   15.9537    0.0000 </r>
       <r>   16.0885    0.0000 </r>
       <r>   16.1956    0.0000 </r>
       <r>   16.4692    0.0000 </r>
       <r>   17.2020    0.0000 </r>
       <r>   17.2707    0.0000 </r>
       <r>   17.3728    0.0000 </r>
       <r>   17.4006    0.0000 </r>
      </set>
      <set comment="kpoint 3">
       <r>  -15.6550    1.0000 </r>
       <r>  -15.6546    1.0000 </r>
       <r>  -15.6488    1.0000 </r>
       <r>  -15.6481    1.0000 </r>
       <r>  -15.6345    1.0000 </r>
       <r>  -15.6309    1.0000 </r>
       <r>  -15.6298    1.0000 </r>
       <r>  -15.6275    1.0000 </r>
       <r>  -15.6142    1.0000 </r>
       <r>  -15.6138    1.0000 </r>
       <r>  -15.6085    1.0000 </r>
       <r>  -15.6042    1.0000 </r>
       <r>  -15.6012    1.0000 </r>
       <r>  -15.5943    1.0000 </r>
       <r>  -15.5841    1.0000 </r>
       <r>  -15.5799    1.0000 </r>
       <r>  -15.5656    1.0000 </r>
       <r>  -15.5597    1.0000 </r>
       <r>  -15.5577    1.0000 </r>
       <r>  -15.5544    1.0000 </r>
       <r>   -7.7099    1.0000 </r>
       <r>   -7.5056    1.0000 </r>
       <r>   -6.7724    1.0000 </r>
       <r>   -6.5522    1.0000 </r>
       <r>   -2.1609    1.0000 </r>
       <r>   -1.5441    1.0000 </r>
       <r>   -0.7869    1.0000 </r>
       <r>   -0.5189    1.0000 </r>
       <r>    1.0167    1.0000 </r>
       <r>    1.9443    1.0000 </r>
       <r>    2.2135    1.0000 </r>
       <r>    2.4164    1.0000 </r>
       <r>    2.5203    1.0000 </r>
       <r>    2.6936    1.0000 </r>
       <r>    3.3443    1.0000 </r>
       <r>    3.4711    1.0000 </r>
       <r>    3.7354    1.0000 </r>
       <r>    4.5829    1.0000 </r>
       <r>    4.7129    1.0000 </r>
       <r>    5.1775    1.0000 </r>
       <r>    6.3830    0.0000 </r>
       <r>    7.0788    0.0000 </r>
       <r>    7.5840    0.0000 </r>
       <r>    7.8368    0.0000 </r>
       <r>    8.1452    0.0000 </r>
       <r>    8.5108    0.0000 </r>
       <r>    8.8531    0.0000 </r>
       <r>    9.2021    0.0000 </r>
       <r>    9.7914    0.0000 </r>
       <r>    9.9630    0.0000 </r>
       <r>   10.4603    0.0000 </r>
       <r>   10.6338    0.0000 </r>
       <r>   11.7876    0.0000 </r>
       <r>   12.1330    0.0000 </r>
       <r>   12.2507    0.0000 </r>
       <r>   12.8818    0.0000 </r>
       <r>   13.1182    0.0000 </r>
       <r>   13.1651    0.0000 </r>
       <r>   14.1919    0.0000 </r>
       <r>   14.5157    0.0000 </r>
       <r>   14.7175    0.0000 </r>
       <r>   14.8773    0.0000 </r>
       <r>   14.9342    0.0000 </r>
       <r>   15.6190    0.0000 </r>
       <r>   16.7463    0.0000 </r>
       <r>   17.3567    0.0000 </r>
       <r>   17.4613    0.0000 </r>
       <r>   17.5113    0.0000 </r>
       <r>   18.0423    0.0000 </r>
       <r>   18.2930    0.0000 </r>
       <r>   18.3205    0.0000 </r>
       <r>   18.8142    0.0000 </r>
      </set>
      <set comment="kpoint 4">
       <r>  -15.6583    1.0000 </r>
       <r>  -15.6564    1.0000 </r>
       <r>  -15.6550    1.0000 </r>
       <r>  -15.6545    1.0000 </r>
       <r>  -15.6281    1.0000 </r>
       <r>  -15.6233    1.0000 </r>
       <r>  -15.6225    1.0000 </r>
       <r>  -15.6215    1.0000 </r>
       <r>  -15.6138    1.0000 </r>
       <r>  -15.6122    1.0000 </r>
       <r>  -15.6112    1.0000 </r>
       <r>  -15.6059    1.0000 </r>
       <r>  -15.5968    1.0000 </r>
       <r>  -15.5918    1.0000 </r>
       <r>  -15.5896    1.0000 </r>
       <r>  -15.5888    1.0000 </r>
       <r>  -15.5592    1.0000 </r>
       <r>  -15.5553    1.0000 </r>
       <r>  -15.5551    1.0000 </r>
       <r>  -15.5551    1.0000 </r>
       <r>   -7.2139    1.0000 </r>
       <r>   -7.0947    1.0000 </r>
       <r>   -6.8009    1.0000 </r>
       <r>   -6.7651    1.0000 </r>
       <r>   -2.2259    1.0000 </r>
       <r>   -1.7451    1.0000 </r>
       <r>   -1.6764    1.0000 </r>
       <r>   -1.2647    1.0000 </r>
       <r>    1.6027    1.0000 </r>
       <r>    2.0439    1.0000 </r>
       <r>    2.4613    1.0000 </r>
       <r>    2.6764    1.0000 </r>
       <r>    2.8021    1.0000 </r>
       <r>    3.0516    1.0000 </r>
       <r>    3.0994    1.0000 </r>
       <r>    3.5261    1.0000 </r>
       <r>    4.1350    1.0000 </r>
       <r>    4.4207    1.0000 </r>
       <r>    4.4258    1.0000 </r>
       <r>    4.6156    1.0000 </r>
       <r>    6.5455    0.0000 </r>
       <r>    6.8630    0.0000 </r>
       <r>    6.9283    0.0000 </r>
       <r>    7.2149    0.0000 </r>
       <r>    7.7220    0.0000 </r>
       <r>    7.8973    0.0000 </r>
       <r>    8.3644    0.0000 </r>
       <r>    8.6615    0.0000 </r>
       <r>    9.0033    0.0000 </r>
       <r>    9.4653    0.0000 </r>
       <r>    9.9628    0.0000 </r>
       <r>   10.3550    0.0000 </r>
       <r>   12.2869    0.0000 </r>
       <r>   12.8059    0.0000 </r>
       <r>   13.2480    0.0000 </r>
       <r>   13.2481    0.0000 </r>
       <r>   14.0610    0.0000 </r>
       <r>   14.1648    0.0000 </r>
       <r>   14.2703    0.0000 </r>
       <r>   14.6492    0.0000 </r>
       <r>   15.4903    0.0000 </r>
       <r>   15.7362    0.0000 </r>
       <r>   15.8831    0.0000 </r>
       <r>   16.4905    0.0000 </r>
       <r>   16.6919    0.0000 </r>
       <r>   16.9611    0.0000 </r>
       <r>   17.3357    0.0000 </r>
       <r>   17.5149    0.0000 </r>
       <r>   17.5161    0.0000 </r>
       <r>   17.6759    0.0000 </r>
       <r>   18.0452    0.0000 </r>
       <r>   18.1001    0.0000 </r>
      </set>
      <set comment="kpoint 5">
       <r>  -15.6683    1.0000 </r>
       <r>  -15.6564    1.0000 </r>
       <r>  -15.6497    1.0000 </r>
       <r>  -15.6424    1.0000 </r>
       <r>  -15.6387    1.0000 </r>
       <r>  -15.6345    1.0000 </r>
       <r>  -15.6340    1.0000 </r>
       <r>  -15.6292    1.0000 </r>
       <r>  -15.6150    1.0000 </r>
       <r>  -15.6143    1.0000 </r>
       <r>  -15.6066    1.0000 </r>
       <r>  -15.6008    1.0000 </r>
       <r>  -15.5981    1.0000 </r>
       <r>  -15.5972    1.0000 </r>
       <r>  -15.5773    1.0000 </r>
       <r>  -15.5729    1.0000 </r>
       <r>  -15.5668    1.0000 </r>
       <r>  -15.5647    1.0000 </r>
       <r>  -15.5627    1.0000 </r>
       <r>  -15.5555    1.0000 </r>
       <r>   -8.0847    1.0000 </r>
       <r>   -7.8385    1.0000 </r>
       <r>   -6.9655    1.0000 </r>
       <r>   -6.6240    1.0000 </r>
       <r>   -2.0866    1.0000 </r>
       <r>   -1.0988    1.0000 </r>
       <r>   -0.4223    1.0000 </r>
       <r>    0.1948    1.0000 </r>
       <r>    0.7950    1.0000 </r>
       <r>    2.1091    1.0000 </r>
       <r>    2.3399    1.0000 </r>
       <r>    2.6303    1.0000 </r>
       <r>    2.6326    1.0000 </r>
       <r>    2.8255    1.0000 </r>
       <r>    3.3315    1.0000 </r>
       <r>    3.6798    1.0000 </r>
       <r>    3.7951    1.0000 </r>
       <r>    4.2797    1.0000 </r>
       <r>    4.8385    1.0000 </r>
       <r>    5.1003    1.0000 </r>
       <r>    6.7183    0.0000 </r>
       <r>    7.4390    0.0000 </r>
       <r>    8.2172    0.0000 </r>
       <r>    8.3252    0.0000 </r>
       <r>    8.3440    0.0000 </r>
       <r>    8.7079    0.0000 </r>
       <r>    9.4472    0.0000 </r>
       <r>    9.8430    0.0000 </r>
       <r>    9.9127    0.0000 </r>
       <r>   10.6136    0.0000 </r>
       <r>   10.8274    0.0000 </r>
       <r>   11.0772    0.0000 </r>
       <r>   11.8028    0.0000 </r>
       <r>   12.0457    0.0000 </r>
       <r>   12.3531    0.0000 </r>
       <r>   12.7304    0.0000 </r>
       <r>   13.0186    0.0000 </r>
       <r>   13.4169    0.0000 </r>
       <r>   14.0262    0.0000 </r>
       <r>   14.4448    0.0000 </r>
       <r>   14.4480    0.0000 </r>
       <r>   14.9887    0.0000 </r>
       <r>   15.1886    0.0000 </r>
       <r>   15.6185    0.0000 </r>
       <r>   15.8300    0.0000 </r>
       <r>   15.8586    0.0000 </r>
       <r>   16.2161    0.0000 </r>
       <r>   16.3603    0.0000 </r>
       <r>   16.7726    0.0000 </r>
       <r>   16.9697    0.0000 </r>
       <r>   17.2961    0.0000 </r>
       <r>   18.0045    0.0000 </r>
      </set>
      <set comment="kpoint 6">
       <r>  -15.6631    1.0000 </r>
       <r>  -15.6538    1.0000 </r>
       <r>  -15.6441    1.0000 </r>
       <r>  -15.6428    1.0000 </r>
       <r>  -15.6393    1.0000 </r>
       <r>  -15.6361    1.0000 </r>
       <r>  -15.6355    1.0000 </r>
       <r>  -15.6328    1.0000 </r>
       <r>  -15.6140    1.0000 </r>
       <r>  -15.6124    1.0000 </r>
       <r>  -15.6069    1.0000 </r>
       <r>  -15.6031    1.0000 </r>
       <r>  -15.5998    1.0000 </r>
       <r>  -15.5955    1.0000 </r>
       <r>  -15.5787    1.0000 </r>
       <r>  -15.5708    1.0000 </r>
       <r>  -15.5706    1.0000 </r>
       <r>  -15.5634    1.0000 </r>
       <r>  -15.5617    1.0000 </r>
       <r>  -15.5551    1.0000 </r>
       <r>   -7.9595    1.0000 </r>
       <r>   -7.7244    1.0000 </r>
       <r>   -6.9020    1.0000 </r>
       <r>   -6.5937    1.0000 </r>
       <r>   -2.0927    1.0000 </r>
       <r>   -1.1857    1.0000 </r>
       <r>   -0.4675    1.0000 </r>
       <r>    0.0024    1.0000 </r>
       <r>    0.8332    1.0000 </r>
       <r>    1.5522    1.0000 </r>
       <r>    1.8241    1.0000 </r>
       <r>    2.5689    1.0000 </r>
       <r>    2.8911    1.0000 </r>
       <r>    2.9293    1.0000 </r>
       <r>    3.1079    1.0000 </r>
       <r>    3.3895    1.0000 </r>
       <r>    4.0704    1.0000 </r>
       <r>    4.3404    1.0000 </r>
       <r>    5.0106    1.0000 </r>
       <r>    5.1006    1.0000 </r>
       <r>    6.8611    0.0000 </r>
       <r>    7.5325    0.0000 </r>
       <r>    7.9428    0.0000 </r>
       <r>    8.1905    0.0000 </r>
       <r>    8.5390    0.0000 </r>
       <r>    8.5661    0.0000 </r>
       <r>    9.3632    0.0000 </r>
       <r>    9.6273    0.0000 </r>
       <r>    9.6408    0.0000 </r>
       <r>   10.3815    0.0000 </r>
       <r>   10.4213    0.0000 </r>
       <r>   11.3149    0.0000 </r>
       <r>   11.7227    0.0000 </r>
       <r>   12.3589    0.0000 </r>
       <r>   12.6189    0.0000 </r>
       <r>   12.7249    0.0000 </r>
       <r>   12.8674    0.0000 </r>
       <r>   13.9078    0.0000 </r>
       <r>   14.0958    0.0000 </r>
       <r>   14.2252    0.0000 </r>
       <r>   14.3318    0.0000 </r>
       <r>   14.6514    0.0000 </r>
       <r>   15.2210    0.0000 </r>
       <r>   15.3076    0.0000 </r>
       <r>   15.7401    0.0000 </r>
       <r>   16.4985    0.0000 </r>
       <r>   16.8218    0.0000 </r>
       <r>   17.0112    0.0000 </r>
       <r>   17.0779    0.0000 </r>
       <r>   17.3593    0.0000 </r>
       <r>   17.8379    0.0000 </r>
       <r>   18.0070    0.0000 </r>
      </set>
      <set comment="kpoint 7">
       <r>  -15.6578    1.0000 </r>
       <r>  -15.6532    1.0000 </r>
       <r>  -15.6511    1.0000 </r>
       <r>  -15.6492    1.0000 </r>
       <r>  -15.6356    1.0000 </r>
       <r>  -15.6307    1.0000 </r>
       <r>  -15.6305    1.0000 </r>
       <r>  -15.6276    1.0000 </r>
       <r>  -15.6133    1.0000 </r>
       <r>  -15.6107    1.0000 </r>
       <r>  -15.6086    1.0000 </r>
       <r>  -15.6030    1.0000 </r>
       <r>  -15.6010    1.0000 </r>
       <r>  -15.5939    1.0000 </r>
       <r>  -15.5832    1.0000 </r>
       <r>  -15.5796    1.0000 </r>
       <r>  -15.5657    1.0000 </r>
       <r>  -15.5594    1.0000 </r>
       <r>  -15.5590    1.0000 </r>
       <r>  -15.5538    1.0000 </r>
       <r>   -7.6127    1.0000 </r>
       <r>   -7.4165    1.0000 </r>
       <r>   -6.7781    1.0000 </r>
       <r>   -6.5756    1.0000 </r>
       <r>   -2.1457    1.0000 </r>
       <r>   -1.4539    1.0000 </r>
       <r>   -0.8511    1.0000 </r>
       <r>   -0.6568    1.0000 </r>
       <r>    1.1498    1.0000 </r>
       <r>    1.1756    1.0000 </r>
       <r>    1.5549    1.0000 </r>
       <r>    2.2387    1.0000 </r>
       <r>    2.8267    1.0000 </r>
       <r>    3.1410    1.0000 </r>
       <r>    3.1499    1.0000 </r>
       <r>    3.2829    1.0000 </r>
       <r>    3.8754    1.0000 </r>
       <r>    4.4742    1.0000 </r>
       <r>    4.7973    1.0000 </r>
       <r>    4.8117    1.0000 </r>
       <r>    6.9310    0.0000 </r>
       <r>    7.1507    0.0000 </r>
       <r>    7.3412    0.0000 </r>
       <r>    7.6308    0.0000 </r>
       <r>    8.4429    0.0000 </r>
       <r>    8.8235    0.0000 </r>
       <r>    9.2803    0.0000 </r>
       <r>    9.6516    0.0000 </r>
       <r>    9.6993    0.0000 </r>
       <r>    9.8961    0.0000 </r>
       <r>   10.5413    0.0000 </r>
       <r>   11.1357    0.0000 </r>
       <r>   11.4612    0.0000 </r>
       <r>   12.6990    0.0000 </r>
       <r>   12.7745    0.0000 </r>
       <r>   13.0242    0.0000 </r>
       <r>   13.0295    0.0000 </r>
       <r>   13.6004    0.0000 </r>
       <r>   13.6787    0.0000 </r>
       <r>   14.3790    0.0000 </r>
       <r>   14.5945    0.0000 </r>
       <r>   15.2078    0.0000 </r>
       <r>   15.9003    0.0000 </r>
       <r>   16.0270    0.0000 </r>
       <r>   16.6545    0.0000 </r>
       <r>   16.8275    0.0000 </r>
       <r>   16.9228    0.0000 </r>
       <r>   17.0080    0.0000 </r>
       <r>   18.0180    0.0000 </r>
       <r>   18.1240    0.0000 </r>
       <r>   18.4195    0.0000 </r>
       <r>   18.7199    0.0000 </r>
      </set>
      <set comment="kpoint 8">
       <r>  -15.6611    1.0000 </r>
       <r>  -15.6591    1.0000 </r>
       <r>  -15.6563    1.0000 </r>
       <r>  -15.6560    1.0000 </r>
       <r>  -15.6288    1.0000 </r>
       <r>  -15.6243    1.0000 </r>
       <r>  -15.6225    1.0000 </r>
       <r>  -15.6217    1.0000 </r>
       <r>  -15.6123    1.0000 </r>
       <r>  -15.6115    1.0000 </r>
       <r>  -15.6093    1.0000 </r>
       <r>  -15.6048    1.0000 </r>
       <r>  -15.5964    1.0000 </r>
       <r>  -15.5930    1.0000 </r>
       <r>  -15.5871    1.0000 </r>
       <r>  -15.5868    1.0000 </r>
       <r>  -15.5599    1.0000 </r>
       <r>  -15.5574    1.0000 </r>
       <r>  -15.5545    1.0000 </r>
       <r>  -15.5532    1.0000 </r>
       <r>   -7.1438    1.0000 </r>
       <r>   -7.0329    1.0000 </r>
       <r>   -6.7783    1.0000 </r>
       <r>   -6.7409    1.0000 </r>
       <r>   -2.1038    1.0000 </r>
       <r>   -1.6451    1.0000 </r>
       <r>   -1.5846    1.0000 </r>
       <r>   -1.2541    1.0000 </r>
       <r>    1.4196    1.0000 </r>
       <r>    1.6066    1.0000 </r>
       <r>    1.8352    1.0000 </r>
       <r>    2.3672    1.0000 </r>
       <r>    2.3993    1.0000 </r>
       <r>    2.7503    1.0000 </r>
       <r>    3.2067    1.0000 </r>
       <r>    3.3956    1.0000 </r>
       <r>    3.5666    1.0000 </r>
       <r>    4.0687    1.0000 </r>
       <r>    4.6346    1.0000 </r>
       <r>    4.6895    1.0000 </r>
       <r>    6.5503    0.0000 </r>
       <r>    6.6851    0.0000 </r>
       <r>    7.3499    0.0000 </r>
       <r>    7.6852    0.0000 </r>
       <r>    8.5440    0.0000 </r>
       <r>    8.6784    0.0000 </r>
       <r>    9.1660    0.0000 </r>
       <r>    9.3373    0.0000 </r>
       <r>    9.6119    0.0000 </r>
       <r>    9.6829    0.0000 </r>
       <r>   10.1600    0.0000 </r>
       <r>   10.2251    0.0000 </r>
       <r>   11.5703    0.0000 </r>
       <r>   11.9286    0.0000 </r>
       <r>   13.3558    0.0000 </r>
       <r>   13.5058    0.0000 </r>
       <r>   14.2402    0.0000 </r>
       <r>   14.4292    0.0000 </r>
       <r>   14.7981    0.0000 </r>
       <r>   14.9936    0.0000 </r>
       <r>   15.2047    0.0000 </r>
       <r>   15.8452    0.0000 </r>
       <r>   16.1798    0.0000 </r>
       <r>   16.2382    0.0000 </r>
       <r>   16.8880    0.0000 </r>
       <r>   17.0699    0.0000 </r>
       <r>   17.3870    0.0000 </r>
       <r>   17.5807    0.0000 </r>
       <r>   17.9556    0.0000 </r>
       <r>   18.0906    0.0000 </r>
       <r>   18.5548    0.0000 </r>
       <r>   18.5981    0.0000 </r>
      </set>
      <set comment="kpoint 9">
       <r>  -15.6634    1.0000 </r>
       <r>  -15.6534    1.0000 </r>
       <r>  -15.6525    1.0000 </r>
       <r>  -15.6449    1.0000 </r>
       <r>  -15.6400    1.0000 </r>
       <r>  -15.6375    1.0000 </r>
       <r>  -15.6344    1.0000 </r>
       <r>  -15.6312    1.0000 </r>
       <r>  -15.6088    1.0000 </r>
       <r>  -15.6078    1.0000 </r>
       <r>  -15.6043    1.0000 </r>
       <r>  -15.6011    1.0000 </r>
       <r>  -15.5988    1.0000 </r>
       <r>  -15.5984    1.0000 </r>
       <r>  -15.5757    1.0000 </r>
       <r>  -15.5712    1.0000 </r>
       <r>  -15.5691    1.0000 </r>
       <r>  -15.5660    1.0000 </r>
       <r>  -15.5626    1.0000 </r>
       <r>  -15.5573    1.0000 </r>
       <r>   -7.7797    1.0000 </r>
       <r>   -7.5503    1.0000 </r>
       <r>   -7.0858    1.0000 </r>
       <r>   -6.8243    1.0000 </r>
       <r>   -2.4221    1.0000 </r>
       <r>   -1.5015    1.0000 </r>
       <r>   -1.3051    1.0000 </r>
       <r>   -0.5359    1.0000 </r>
       <r>    1.1415    1.0000 </r>
       <r>    2.4545    1.0000 </r>
       <r>    2.7004    1.0000 </r>
       <r>    2.9463    1.0000 </r>
       <r>    3.3041    1.0000 </r>
       <r>    3.3460    1.0000 </r>
       <r>    3.3843    1.0000 </r>
       <r>    3.5950    1.0000 </r>
       <r>    3.9303    1.0000 </r>
       <r>    4.8363    1.0000 </r>
       <r>    5.0153    1.0000 </r>
       <r>    5.2717    1.0000 </r>
       <r>    6.7046    0.0000 </r>
       <r>    7.3397    0.0000 </r>
       <r>    7.3726    0.0000 </r>
       <r>    7.8367    0.0000 </r>
       <r>    8.0926    0.0000 </r>
       <r>    8.3264    0.0000 </r>
       <r>    8.8530    0.0000 </r>
       <r>    9.3198    0.0000 </r>
       <r>    9.6686    0.0000 </r>
       <r>   10.0721    0.0000 </r>
       <r>   10.2389    0.0000 </r>
       <r>   11.1823    0.0000 </r>
       <r>   11.9617    0.0000 </r>
       <r>   12.5181    0.0000 </r>
       <r>   12.9194    0.0000 </r>
       <r>   13.2458    0.0000 </r>
       <r>   13.3193    0.0000 </r>
       <r>   13.3286    0.0000 </r>
       <r>   14.1162    0.0000 </r>
       <r>   14.4557    0.0000 </r>
       <r>   14.8952    0.0000 </r>
       <r>   15.2882    0.0000 </r>
       <r>   16.0234    0.0000 </r>
       <r>   16.2442    0.0000 </r>
       <r>   16.3732    0.0000 </r>
       <r>   16.7252    0.0000 </r>
       <r>   16.7537    0.0000 </r>
       <r>   16.9062    0.0000 </r>
       <r>   17.6534    0.0000 </r>
       <r>   17.6836    0.0000 </r>
       <r>   17.8825    0.0000 </r>
       <r>   18.4010    0.0000 </r>
      </set>
      <set comment="kpoint 10">
       <r>  -15.6592    1.0000 </r>
       <r>  -15.6518    1.0000 </r>
       <r>  -15.6483    1.0000 </r>
       <r>  -15.6455    1.0000 </r>
       <r>  -15.6402    1.0000 </r>
       <r>  -15.6377    1.0000 </r>
       <r>  -15.6360    1.0000 </r>
       <r>  -15.6351    1.0000 </r>
       <r>  -15.6096    1.0000 </r>
       <r>  -15.6065    1.0000 </r>
       <r>  -15.6040    1.0000 </r>
       <r>  -15.6033    1.0000 </r>
       <r>  -15.6004    1.0000 </r>
       <r>  -15.5956    1.0000 </r>
       <r>  -15.5769    1.0000 </r>
       <r>  -15.5721    1.0000 </r>
       <r>  -15.5697    1.0000 </r>
       <r>  -15.5648    1.0000 </r>
       <r>  -15.5614    1.0000 </r>
       <r>  -15.5564    1.0000 </r>
       <r>   -7.6652    1.0000 </r>
       <r>   -7.4481    1.0000 </r>
       <r>   -7.0117    1.0000 </r>
       <r>   -6.7720    1.0000 </r>
       <r>   -2.3198    1.0000 </r>
       <r>   -1.4218    1.0000 </r>
       <r>   -1.2593    1.0000 </r>
       <r>   -0.5636    1.0000 </r>
       <r>    1.2531    1.0000 </r>
       <r>    1.6618    1.0000 </r>
       <r>    1.8886    1.0000 </r>
       <r>    2.7163    1.0000 </r>
       <r>    2.7489    1.0000 </r>
       <r>    2.9985    1.0000 </r>
       <r>    3.3511    1.0000 </r>
       <r>    3.6746    1.0000 </r>
       <r>    4.2410    1.0000 </r>
       <r>    4.5030    1.0000 </r>
       <r>    5.0492    1.0000 </r>
       <r>    5.1657    1.0000 </r>
       <r>    7.1700    0.0000 </r>
       <r>    7.3963    0.0000 </r>
       <r>    7.5014    0.0000 </r>
       <r>    7.7655    0.0000 </r>
       <r>    8.4276    0.0000 </r>
       <r>    8.5942    0.0000 </r>
       <r>    9.0065    0.0000 </r>
       <r>    9.3816    0.0000 </r>
       <r>   10.0123    0.0000 </r>
       <r>   10.0420    0.0000 </r>
       <r>   10.2551    0.0000 </r>
       <r>   11.1691    0.0000 </r>
       <r>   11.8251    0.0000 </r>
       <r>   12.8730    0.0000 </r>
       <r>   12.9272    0.0000 </r>
       <r>   13.1016    0.0000 </r>
       <r>   13.2353    0.0000 </r>
       <r>   13.9400    0.0000 </r>
       <r>   13.9576    0.0000 </r>
       <r>   14.8757    0.0000 </r>
       <r>   15.2667    0.0000 </r>
       <r>   15.3741    0.0000 </r>
       <r>   15.7581    0.0000 </r>
       <r>   15.8794    0.0000 </r>
       <r>   16.5206    0.0000 </r>
       <r>   16.5843    0.0000 </r>
       <r>   16.7621    0.0000 </r>
       <r>   16.8513    0.0000 </r>
       <r>   17.3346    0.0000 </r>
       <r>   17.8613    0.0000 </r>
       <r>   18.0368    0.0000 </r>
       <r>   18.2555    0.0000 </r>
      </set>
      <set comment="kpoint 11">
       <r>  -15.6603    1.0000 </r>
       <r>  -15.6561    1.0000 </r>
       <r>  -15.6531    1.0000 </r>
       <r>  -15.6514    1.0000 </r>
       <r>  -15.6364    1.0000 </r>
       <r>  -15.6324    1.0000 </r>
       <r>  -15.6303    1.0000 </r>
       <r>  -15.6284    1.0000 </r>
       <r>  -15.6107    1.0000 </r>
       <r>  -15.6088    1.0000 </r>
       <r>  -15.6056    1.0000 </r>
       <r>  -15.6004    1.0000 </r>
       <r>  -15.5994    1.0000 </r>
       <r>  -15.5943    1.0000 </r>
       <r>  -15.5810    1.0000 </r>
       <r>  -15.5789    1.0000 </r>
       <r>  -15.5655    1.0000 </r>
       <r>  -15.5621    1.0000 </r>
       <r>  -15.5572    1.0000 </r>
       <r>  -15.5539    1.0000 </r>
       <r>   -7.3575    1.0000 </r>
       <r>   -7.1825    1.0000 </r>
       <r>   -6.8464    1.0000 </r>
       <r>   -6.6784    1.0000 </r>
       <r>   -2.0750    1.0000 </r>
       <r>   -1.3011    1.0000 </r>
       <r>   -1.2530    1.0000 </r>
       <r>   -0.8163    1.0000 </r>
       <r>    0.7867    1.0000 </r>
       <r>    1.1961    1.0000 </r>
       <r>    1.4574    1.0000 </r>
       <r>    1.8130    1.0000 </r>
       <r>    2.1682    1.0000 </r>
       <r>    2.8110    1.0000 </r>
       <r>    2.9363    1.0000 </r>
       <r>    3.5053    1.0000 </r>
       <r>    3.6105    1.0000 </r>
       <r>    4.2638    1.0000 </r>
       <r>    4.5100    1.0000 </r>
       <r>    4.7203    1.0000 </r>
       <r>    6.6372    0.0000 </r>
       <r>    7.8957    0.0000 </r>
       <r>    8.3097    0.0000 </r>
       <r>    8.5286    0.0000 </r>
       <r>    8.7144    0.0000 </r>
       <r>    8.9938    0.0000 </r>
       <r>    9.6685    0.0000 </r>
       <r>    9.8871    0.0000 </r>
       <r>   10.0650    0.0000 </r>
       <r>   10.2101    0.0000 </r>
       <r>   10.9363    0.0000 </r>
       <r>   11.0605    0.0000 </r>
       <r>   11.2834    0.0000 </r>
       <r>   11.7957    0.0000 </r>
       <r>   13.0279    0.0000 </r>
       <r>   13.3734    0.0000 </r>
       <r>   14.2063    0.0000 </r>
       <r>   14.5439    0.0000 </r>
       <r>   14.5594    0.0000 </r>
       <r>   14.6281    0.0000 </r>
       <r>   15.4068    0.0000 </r>
       <r>   15.4368    0.0000 </r>
       <r>   15.9031    0.0000 </r>
       <r>   15.9502    0.0000 </r>
       <r>   16.3346    0.0000 </r>
       <r>   16.5501    0.0000 </r>
       <r>   17.2883    0.0000 </r>
       <r>   17.4236    0.0000 </r>
       <r>   17.6913    0.0000 </r>
       <r>   17.7703    0.0000 </r>
       <r>   18.6210    0.0000 </r>
       <r>   18.9421    0.0000 </r>
      </set>
      <set comment="kpoint 12">
       <r>  -15.6659    1.0000 </r>
       <r>  -15.6646    1.0000 </r>
       <r>  -15.6592    1.0000 </r>
       <r>  -15.6590    1.0000 </r>
       <r>  -15.6296    1.0000 </r>
       <r>  -15.6267    1.0000 </r>
       <r>  -15.6225    1.0000 </r>
       <r>  -15.6220    1.0000 </r>
       <r>  -15.6100    1.0000 </r>
       <r>  -15.6099    1.0000 </r>
       <r>  -15.6062    1.0000 </r>
       <r>  -15.6035    1.0000 </r>
       <r>  -15.5947    1.0000 </r>
       <r>  -15.5932    1.0000 </r>
       <r>  -15.5837    1.0000 </r>
       <r>  -15.5832    1.0000 </r>
       <r>  -15.5607    1.0000 </r>
       <r>  -15.5594    1.0000 </r>
       <r>  -15.5532    1.0000 </r>
       <r>  -15.5522    1.0000 </r>
       <r>   -6.9748    1.0000 </r>
       <r>   -6.8864    1.0000 </r>
       <r>   -6.7536    1.0000 </r>
       <r>   -6.7096    1.0000 </r>
       <r>   -1.8030    1.0000 </r>
       <r>   -1.4466    1.0000 </r>
       <r>   -1.3772    1.0000 </r>
       <r>   -1.2674    1.0000 </r>
       <r>    0.7095    1.0000 </r>
       <r>    1.2990    1.0000 </r>
       <r>    1.3278    1.0000 </r>
       <r>    1.6004    1.0000 </r>
       <r>    2.0558    1.0000 </r>
       <r>    2.3068    1.0000 </r>
       <r>    2.3970    1.0000 </r>
       <r>    3.0346    1.0000 </r>
       <r>    3.1249    1.0000 </r>
       <r>    3.5697    1.0000 </r>
       <r>    4.3923    1.0000 </r>
       <r>    4.4409    1.0000 </r>
       <r>    6.9367    0.0000 </r>
       <r>    7.7595    0.0000 </r>
       <r>    8.5359    0.0000 </r>
       <r>    8.6554    0.0000 </r>
       <r>    9.3205    0.0000 </r>
       <r>    9.4696    0.0000 </r>
       <r>    9.5838    0.0000 </r>
       <r>    9.8502    0.0000 </r>
       <r>   10.1430    0.0000 </r>
       <r>   10.7246    0.0000 </r>
       <r>   10.7845    0.0000 </r>
       <r>   11.3129    0.0000 </r>
       <r>   11.3589    0.0000 </r>
       <r>   11.5250    0.0000 </r>
       <r>   12.8398    0.0000 </r>
       <r>   12.9810    0.0000 </r>
       <r>   14.4142    0.0000 </r>
       <r>   14.5450    0.0000 </r>
       <r>   15.4832    0.0000 </r>
       <r>   15.5249    0.0000 </r>
       <r>   16.1747    0.0000 </r>
       <r>   16.1957    0.0000 </r>
       <r>   16.4963    0.0000 </r>
       <r>   16.6438    0.0000 </r>
       <r>   16.9306    0.0000 </r>
       <r>   17.2064    0.0000 </r>
       <r>   17.2200    0.0000 </r>
       <r>   17.5471    0.0000 </r>
       <r>   17.7451    0.0000 </r>
       <r>   18.1929    0.0000 </r>
       <r>   18.4613    0.0000 </r>
       <r>   18.7740    0.0000 </r>
      </set>
      <set comment="kpoint 13">
       <r>  -15.6574    1.0000 </r>
       <r>  -15.6574    1.0000 </r>
       <r>  -15.6491    1.0000 </r>
       <r>  -15.6491    1.0000 </r>
       <r>  -15.6399    1.0000 </r>
       <r>  -15.6399    1.0000 </r>
       <r>  -15.6333    1.0000 </r>
       <r>  -15.6333    1.0000 </r>
       <r>  -15.6035    1.0000 </r>
       <r>  -15.6035    1.0000 </r>
       <r>  -15.6015    1.0000 </r>
       <r>  -15.6015    1.0000 </r>
       <r>  -15.6014    1.0000 </r>
       <r>  -15.6014    1.0000 </r>
       <r>  -15.5726    1.0000 </r>
       <r>  -15.5726    1.0000 </r>
       <r>  -15.5689    1.0000 </r>
       <r>  -15.5689    1.0000 </r>
       <r>  -15.5599    1.0000 </r>
       <r>  -15.5599    1.0000 </r>
       <r>   -7.3886    1.0000 </r>
       <r>   -7.3886    1.0000 </r>
       <r>   -7.1676    1.0000 </r>
       <r>   -7.1676    1.0000 </r>
       <r>   -2.2445    1.0000 </r>
       <r>   -2.2445    1.0000 </r>
       <r>   -1.1322    1.0000 </r>
       <r>   -1.1322    1.0000 </r>
       <r>    1.8392    1.0000 </r>
       <r>    1.8392    1.0000 </r>
       <r>    3.1236    1.0000 </r>
       <r>    3.1236    1.0000 </r>
       <r>    3.3246    1.0000 </r>
       <r>    3.3246    1.0000 </r>
       <r>    3.7066    1.0000 </r>
       <r>    3.7066    1.0000 </r>
       <r>    4.4007    1.0000 </r>
       <r>    4.4007    1.0000 </r>
       <r>    5.3275    1.0000 </r>
       <r>    5.3275    1.0000 </r>
       <r>    6.9859    0.0000 </r>
       <r>    6.9859    0.0000 </r>
       <r>    7.4752    0.0000 </r>
       <r>    7.4752    0.0000 </r>
       <r>    8.1168    0.0000 </r>
       <r>    8.1168    0.0000 </r>
       <r>    8.4914    0.0000 </r>
       <r>    8.4914    0.0000 </r>
       <r>    9.3719    0.0000 </r>
       <r>    9.3719    0.0000 </r>
       <r>   11.0585    0.0000 </r>
       <r>   11.0585    0.0000 </r>
       <r>   13.0087    0.0000 </r>
       <r>   13.0087    0.0000 </r>
       <r>   13.2635    0.0000 </r>
       <r>   13.2635    0.0000 </r>
       <r>   14.0513    0.0000 </r>
       <r>   14.0513    0.0000 </r>
[...]
        <r>  0.0087  0.0020  0.0001  0.0538  0.0053  0.0000  0.0020  0.0001  0.0000 </r>
        <r>  0.0087  0.0020  0.0001  0.0538  0.0053  0.0000  0.0020  0.0001  0.0000 </r>
        <r>  0.0037  0.0047  0.0235  0.0319  0.0000  0.0000  0.0000  0.0000  0.0000 </r>
        <r>  0.0037  0.0047  0.0235  0.0319  0.0000  0.0000  0.0000  0.0000  0.0000 </r>
        <r>  0.0001  0.0770  0.0024  0.0001  0.0000  0.0000  0.0000  0.0000  0.0000 </r>
        <r>  0.0001  0.0770  0.0024  0.0001  0.0000  0.0000  0.0000  0.0000  0.0000 </r>
       </set>
       <set comment="band 49">
        <r>  0.0056  0.0790  0.0094  0.0197  0.0003  0.0000  0.0017  0.0000  0.0000 </r>
        <r>  0.0056  0.0790  0.0094  0.0197  0.0003  0.0000  0.0017  0.0000  0.0000 </r>
        <r>  0.0005  0.0031  0.0041  0.0275  0.0031  0.0018  0.0003  0.0003  0.0001 </r>
        <r>  0.0005  0.0031  0.0041  0.0275  0.0031  0.0018  0.0003  0.0003  0.0001 </r>
        <r>  0.0039  0.0055  0.0014  0.0981  0.0000  0.0000  0.0000  0.0000  0.0000 </r>
        <r>  0.0039  0.0055  0.0014  0.0981  0.0000  0.0000  0.0000  0.0000  0.0000 </r>
        <r>  0.0003  0.0503  0.0015  0.0046  0.0000  0.0000  0.0000  0.0000  0.0000 </r>
        <r>  0.0003  0.0503  0.0015  0.0046  0.0000  0.0000  0.0000  0.0000  0.0000 </r>
       </set>
       <set comment="band 50">
        <r>  0.0005  0.0031  0.0041  0.0275  0.0031  0.0018  0.0003  0.0003  0.0001 </r>
        <r>  0.0005  0.0031  0.0041  0.0275  0.0031  0.0018  0.0003  0.0003  0.0001 </r>
        <r>  0.0056  0.0790  0.0094  0.0197  0.0003  0.0000  0.0017  0.0000  0.0000 </r>
        <r>  0.0056  0.0790  0.0094  0.0197  0.0003  0.0000  0.0017  0.0000  0.0000 </r>
        <r>  0.0003  0.0503  0.0015  0.0046  0.0000  0.0000  0.0000  0.0000  0.0000 </r>
        <r>  0.0003  0.0503  0.0015  0.0046  0.0000  0.0000  0.0000  0.0000  0.0000 </r>
        <r>  0.0039  0.0055  0.0014  0.0981  0.0000  0.0000  0.0000  0.0000  0.0000 </r>
        <r>  0.0039  0.0055  0.0014  0.0981  0.0000  0.0000  0.0000  0.0000  0.0000 </r>
       </set>
       <set comment="band 51">
        <r>  0.0013  0.0494  0.0205  0.0271  0.0058  0.0014  0.0006  0.0006  0.0000 </r>
        <r>  0.0013  0.0494  0.0205  0.0271  0.0058  0.0014  0.0006  0.0006  0.0000 </r>
        <r>  0.0025  0.0373  0.0009  0.0021  0.0003  0.0001  0.0012  0.0000  0.0000 </r>
        <r>  0.0025  0.0373  0.0009  0.0021  0.0003  0.0001  0.0012  0.0000  0.0000 </r>
        <r>  0.0003  0.0389  0.0004  0.0533  0.0000  0.0000  0.0000  0.0000  0.0000 </r>
        <r>  0.0003  0.0389  0.0004  0.0533  0.0000  0.0000  0.0000  0.0000  0.0000 </r>
        <r>  0.0003  0.0117  0.0069  0.0545  0.0000  0.0000  0.0000  0.0000  0.0000 </r>
        <r>  0.0003  0.0117  0.0069  0.0545  0.0000  0.0000  0.0000  0.0000  0.0000 </r>
       </set>
       <set comment="band 52">
        <r>  0.0025  0.0373  0.0009  0.0021  0.0003  0.0001  0.0012  0.0000  0.0000 </r>
        <r>  0.0025  0.0373  0.0009  0.0021  0.0003  0.0001  0.0012  0.0000  0.0000 </r>
        <r>  0.0013  0.0494  0.0205  0.0271  0.0058  0.0014  0.0006  0.0006  0.0000 </r>
        <r>  0.0013  0.0494  0.0205  0.0271  0.0058  0.0014  0.0006  0.0006  0.0000 </r>
        <r>  0.0003  0.0117  0.0069  0.0545  0.0000  0.0000  0.0000  0.0000  0.0000 </r>
        <r>  0.0003  0.0117  0.0069  0.0545  0.0000  0.0000  0.0000  0.0000  0.0000 </r>
        <r>  0.0003  0.0389  0.0004  0.0533  0.0000  0.0000  0.0000  0.0000  0.0000 </r>
        <r>  0.0003  0.0389  0.0004  0.0533  0.0000  0.0000  0.0000  0.0000  0.0000 </r>
       </set>
       <set comment="band 53">
        <r>  0.0002  0.0038  0.0371  0.0254  0.0004  0.0065  0.0088  0.0008  0.0001 </r>
        <r>  0.0002  0.0038  0.0371  0.0254  0.0004  0.0065  0.0088  0.0008  0.0001 </r>
        <r>  0.0020  0.0006  0.0225  0.0014  0.0003  0.0036  0.0025  0.0143  0.0000 </r>
        <r>  0.0020  0.0006  0.0225  0.0014  0.0003  0.0036  0.0025  0.0143  0.0000 </r>
        <r>  0.0050  0.0008  0.0028  0.0035  0.0000  0.0000  0.0000  0.0000  0.0000 </r>
        <r>  0.0050  0.0008  0.0028  0.0035  0.0000  0.0000  0.0000  0.0000  0.0000 </r>
        <r>  0.0013  0.0032  0.0266  0.0002  0.0000  0.0000  0.0000  0.0000  0.0000 </r>
        <r>  0.0013  0.0032  0.0266  0.0002  0.0000  0.0000  0.0000  0.0000  0.0000 </r>
       </set>
       <set comment="band 54">
        <r>  0.0020  0.0006  0.0225  0.0014  0.0003  0.0036  0.0025  0.0143  0.0000 </r>
        <r>  0.0020  0.0006  0.0225  0.0014  0.0003  0.0036  0.0025  0.0143  0.0000 </r>
        <r>  0.0002  0.0038  0.0371  0.0254  0.0004  0.0065  0.0088  0.0008  0.0001 </r>
        <r>  0.0002  0.0038  0.0371  0.0254  0.0004  0.0065  0.0088  0.0008  0.0001 </r>
        <r>  0.0013  0.0032  0.0266  0.0002  0.0000  0.0000  0.0000  0.0000  0.0000 </r>
        <r>  0.0013  0.0032  0.0266  0.0002  0.0000  0.0000  0.0000  0.0000  0.0000 </r>
        <r>  0.0050  0.0008  0.0028  0.0035  0.0000  0.0000  0.0000  0.0000  0.0000 </r>
        <r>  0.0050  0.0008  0.0028  0.0035  0.0000  0.0000  0.0000  0.0000  0.0000 </r>
       </set>
       <set comment="band 55">
        <r>  0.0011  0.0025  0.0094  0.0225  0.0017  0.0145  0.0080  0.0052  0.0000 </r>
        <r>  0.0011  0.0025  0.0094  0.0225  0.0017  0.0145  0.0080  0.0052  0.0000 </r>
        <r>  0.0007  0.0007  0.0439  0.0210  0.0005  0.0013  0.0003  0.0068  0.0000 </r>
        <r>  0.0007  0.0007  0.0439  0.0210  0.0005  0.0013  0.0003  0.0068  0.0000 </r>
        <r>  0.0018  0.0094  0.0080  0.0075  0.0000  0.0000  0.0000  0.0000  0.0000 </r>
        <r>  0.0018  0.0094  0.0080  0.0075  0.0000  0.0000  0.0000  0.0000  0.0000 </r>
        <r>  0.0006  0.0001  0.0170  0.0029  0.0000  0.0000  0.0000  0.0000  0.0000 </r>
        <r>  0.0006  0.0001  0.0170  0.0029  0.0000  0.0000  0.0000  0.0000  0.0000 </r>
       </set>
       <set comment="band 56">
        <r>  0.0007  0.0007  0.0439  0.0210  0.0005  0.0013  0.0003  0.0068  0.0000 </r>
        <r>  0.0007  0.0007  0.0439  0.0210  0.0005  0.0013  0.0003  0.0068  0.0000 </r>
        <r>  0.0011  0.0025  0.0094  0.0225  0.0017  0.0145  0.0080  0.0052  0.0000 </r>
        <r>  0.0011  0.0025  0.0094  0.0225  0.0017  0.0145  0.0080  0.0052  0.0000 </r>
        <r>  0.0006  0.0001  0.0170  0.0029  0.0000  0.0000  0.0000  0.0000  0.0000 </r>
        <r>  0.0006  0.0001  0.0170  0.0029  0.0000  0.0000  0.0000  0.0000  0.0000 </r>
        <r>  0.0018  0.0094  0.0080  0.0075  0.0000  0.0000  0.0000  0.0000  0.0000 </r>
        <r>  0.0018  0.0094  0.0080  0.0075  0.0000  0.0000  0.0000  0.0000  0.0000 </r>
       </set>
       <set comment="band 57">
        <r>  0.0000  0.0006  0.0024  0.0050  0.0058  0.0034  0.0078  0.0105  0.0002 </r>
        <r>  0.0000  0.0006  0.0024  0.0050  0.0058  0.0034  0.0078  0.0105  0.0002 </r>
        <r>  0.0000  0.0322  0.0075  0.0101  0.0008  0.0118  0.0059  0.0002  0.0000 </r>
        <r>  0.0000  0.0323  0.0075  0.0101  0.0008  0.0118  0.0059  0.0002  0.0000 </r>
        <r>  0.0016  0.0000  0.0023  0.0000  0.0000  0.0000  0.0000  0.0000  0.0000 </r>
        <r>  0.0016  0.0000  0.0023  0.0000  0.0000  0.0000  0.0000  0.0000  0.0000 </r>
        <r>  0.0000  0.0010  0.0031  0.0002  0.0000  0.0000  0.0000  0.0000  0.0000 </r>
        <r>  0.0000  0.0010  0.0031  0.0002  0.0000  0.0000  0.0000  0.0000  0.0000 </r>
       </set>
       <set comment="band 58">
        <r>  0.0000  0.0323  0.0075  0.0101  0.0008  0.0118  0.0059  0.0002  0.0000 </r>
        <r>  0.0000  0.0322  0.0075  0.0101  0.0008  0.0118  0.0059  0.0002  0.0000 </r>
        <r>  0.0000  0.0006  0.0024  0.0050  0.0058  0.0034  0.0078  0.0105  0.0002 </r>
        <r>  0.0000  0.0006  0.0024  0.0050  0.0058  0.0034  0.0078  0.0105  0.0002 </r>
        <r>  0.0000  0.0010  0.0031  0.0002  0.0000  0.0000  0.0000  0.0000  0.0000 </r>
        <r>  0.0000  0.0010  0.0031  0.0002  0.0000  0.0000  0.0000  0.0000  0.0000 </r>
        <r>  0.0016  0.0000  0.0023  0.0000  0.0000  0.0000  0.0000  0.0000  0.0000 </r>
        <r>  0.0016  0.0000  0.0023  0.0000  0.0000  0.0000  0.0000  0.0000  0.0000 </r>
       </set>
       <set comment="band 59">
        <r>  0.0056  0.0299  0.0006  0.0004  0.0049  0.0004  0.0013  0.0060  0.0003 </r>
        <r>  0.0056  0.0299  0.0006  0.0004  0.0049  0.0004  0.0013  0.0060  0.0003 </r>
        <r>  0.0004  0.0167  0.0098  0.0002  0.0051  0.0088  0.0094  0.0026  0.0001 </r>
        <r>  0.0004  0.0167  0.0098  0.0002  0.0051  0.0088  0.0094  0.0026  0.0001 </r>
        <r>  0.0004  0.0009  0.0001  0.0005  0.0000  0.0000  0.0000  0.0000  0.0000 </r>
        <r>  0.0004  0.0009  0.0001  0.0005  0.0000  0.0000  0.0000  0.0000  0.0000 </r>
        <r>  0.0079  0.0001  0.0017  0.0006  0.0000  0.0000  0.0000  0.0000  0.0000 </r>
        <r>  0.0079  0.0001  0.0017  0.0006  0.0000  0.0000  0.0000  0.0000  0.0000 </r>
       </set>
       <set comment="band 60">
        <r>  0.0004  0.0167  0.0098  0.0002  0.0051  0.0088  0.0094  0.0026  0.0001 </r>
        <r>  0.0004  0.0167  0.0098  0.0002  0.0051  0.0088  0.0094  0.0026  0.0001 </r>
        <r>  0.0056  0.0299  0.0006  0.0004  0.0049  0.0004  0.0013  0.0060  0.0003 </r>
        <r>  0.0056  0.0299  0.0006  0.0004  0.0049  0.0004  0.0013  0.0060  0.0003 </r>
        <r>  0.0079  0.0001  0.0017  0.0006  0.0000  0.0000  0.0000  0.0000  0.0000 </r>
        <r>  0.0079  0.0001  0.0017  0.0006  0.0000  0.0000  0.0000  0.0000  0.0000 </r>
        <r>  0.0004  0.0009  0.0001  0.0005  0.0000  0.0000  0.0000  0.0000  0.0000 </r>
        <r>  0.0004  0.0009  0.0001  0.0005  0.0000  0.0000  0.0000  0.0000  0.0000 </r>
       </set>
       <set comment="band 61">
        <r>  0.0042  0.0000  0.0017  0.0001  0.0045  0.0011  0.0018  0.0023  0.0032 </r>
        <r>  0.0042  0.0000  0.0017  0.0001  0.0045  0.0011  0.0018  0.0023  0.0032 </r>
        <r>  0.0014  0.0177  0.0003  0.0000  0.0095  0.0040  0.0004  0.0041  0.0024 </r>
        <r>  0.0014  0.0177  0.0003  0.0000  0.0095  0.0040  0.0004  0.0041  0.0024 </r>
        <r>  0.0026  0.0001  0.0053  0.0000  0.0000  0.0000  0.0000  0.0000  0.0000 </r>
        <r>  0.0026  0.0001  0.0053  0.0000  0.0000  0.0000  0.0000  0.0000  0.0000 </r>
        <r>  0.0100  0.0012  0.0077  0.0089  0.0000  0.0000  0.0000  0.0000  0.0000 </r>
        <r>  0.0100  0.0012  0.0077  0.0089  0.0000  0.0000  0.0000  0.0000  0.0000 </r>
       </set>
       <set comment="band 62">
        <r>  0.0014  0.0178  0.0003  0.0000  0.0095  0.0040  0.0004  0.0041  0.0024 </r>
        <r>  0.0014  0.0178  0.0003  0.0000  0.0095  0.0040  0.0004  0.0041  0.0024 </r>
        <r>  0.0042  0.0000  0.0017  0.0001  0.0045  0.0011  0.0018  0.0023  0.0032 </r>
        <r>  0.0042  0.0000  0.0017  0.0001  0.0045  0.0011  0.0018  0.0023  0.0032 </r>
        <r>  0.0100  0.0012  0.0077  0.0089  0.0000  0.0000  0.0000  0.0000  0.0000 </r>
        <r>  0.0100  0.0012  0.0077  0.0089  0.0000  0.0000  0.0000  0.0000  0.0000 </r>
        <r>  0.0026  0.0001  0.0053  0.0000  0.0000  0.0000  0.0000  0.0000  0.0000 </r>
        <r>  0.0026  0.0001  0.0053  0.0000  0.0000  0.0000  0.0000  0.0000  0.0000 </r>
       </set>
       <set comment="band 63">
        <r>  0.0017  0.0105  0.0001  0.0031  0.0108  0.0029  0.0014  0.0014  0.0001 </r>
        <r>  0.0017  0.0105  0.0001  0.0031  0.0108  0.0029  0.0014  0.0014  0.0001 </r>
        <r>  0.0006  0.0186  0.0003  0.0005  0.0119  0.0005  0.0002  0.0051  0.0001 </r>
        <r>  0.0006  0.0186  0.0003  0.0005  0.0119  0.0005  0.0002  0.0051  0.0001 </r>
        <r>  0.0049  0.0007  0.0031  0.0014  0.0000  0.0000  0.0000  0.0000  0.0000 </r>
        <r>  0.0049  0.0007  0.0031  0.0014  0.0000  0.0000  0.0000  0.0000  0.0000 </r>
        <r>  0.0120  0.0008  0.0056  0.0003  0.0000  0.0000  0.0000  0.0000  0.0000 </r>
        <r>  0.0120  0.0008  0.0056  0.0003  0.0000  0.0000  0.0000  0.0000  0.0000 </r>
       </set>
       <set comment="band 64">
        <r>  0.0006  0.0186  0.0003  0.0005  0.0119  0.0005  0.0002  0.0051  0.0001 </r>
        <r>  0.0006  0.0186  0.0003  0.0005  0.0119  0.0005  0.0002  0.0051  0.0001 </r>
        <r>  0.0017  0.0105  0.0001  0.0031  0.0108  0.0029  0.0014  0.0014  0.0001 </r>
        <r>  0.0017  0.0105  0.0001  0.0031  0.0108  0.0029  0.0014  0.0014  0.0001 </r>
        <r>  0.0120  0.0008  0.0056  0.0003  0.0000  0.0000  0.0000  0.0000  0.0000 </r>
        <r>  0.0120  0.0008  0.0056  0.0003  0.0000  0.0000  0.0000  0.0000  0.0000 </r>
        <r>  0.0049  0.0007  0.0031  0.0014  0.0000  0.0000  0.0000  0.0000  0.0000 </r>
        <r>  0.0049  0.0007  0.0031  0.0014  0.0000  0.0000  0.0000  0.0000  0.0000 </r>
       </set>
       <set comment="band 65">
        <r>  0.0166  0.0311  0.0024  0.0033  0.0204  0.0007  0.0020  0.0013  0.0015 </r>
        <r>  0.0166  0.0311  0.0024  0.0033  0.0204  0.0007  0.0020  0.0013  0.0015 </r>
        <r>  0.0007  0.0059  0.0033  0.0054  0.0003  0.0009  0.0080  0.0019  0.0011 </r>
        <r>  0.0007  0.0059  0.0033  0.0054  0.0003  0.0009  0.0080  0.0019  0.0011 </r>
        <r>  0.0027  0.0003  0.0004  0.0023  0.0000  0.0000  0.0000  0.0000  0.0000 </r>
        <r>  0.0027  0.0003  0.0004  0.0023  0.0000  0.0000  0.0000  0.0000  0.0000 </r>
        <r>  0.0007  0.0000  0.0019  0.0000  0.0000  0.0000  0.0000  0.0000  0.0000 </r>
        <r>  0.0007  0.0000  0.0019  0.0000  0.0000  0.0000  0.0000  0.0000  0.0000 </r>
       </set>
       <set comment="band 66">
        <r>  0.0007  0.0060  0.0033  0.0054  0.0003  0.0009  0.0080  0.0019  0.0011 </r>
        <r>  0.0007  0.0060  0.0033  0.0054  0.0003  0.0009  0.0080  0.0019  0.0011 </r>
        <r>  0.0165  0.0310  0.0024  0.0033  0.0204  0.0007  0.0020  0.0013  0.0015 </r>
        <r>  0.0166  0.0311  0.0024  0.0033  0.0204  0.0007  0.0020  0.0012  0.0015 </r>
        <r>  0.0007  0.0000  0.0018  0.0000  0.0000  0.0000  0.0000  0.0000  0.0000 </r>
        <r>  0.0007  0.0000  0.0019  0.0000  0.0000  0.0000  0.0000  0.0000  0.0000 </r>
        <r>  0.0027  0.0003  0.0004  0.0023  0.0000  0.0000  0.0000  0.0000  0.0000 </r>
        <r>  0.0027  0.0003  0.0004  0.0023  0.0000  0.0000  0.0000  0.0000  0.0000 </r>
       </set>
       <set comment="band 67">
        <r>  0.0037  0.0020  0.0016  0.0014  0.0044  0.0008  0.0015  0.0036  0.0030 </r>
        <r>  0.0037  0.0020  0.0016  0.0014  0.0045  0.0008  0.0015  0.0036  0.0030 </r>
        <r>  0.0106  0.0034  0.0006  0.0044  0.0065  0.0025  0.0008  0.0014  0.0025 </r>
        <r>  0.0106  0.0034  0.0007  0.0044  0.0065  0.0025  0.0008  0.0014  0.0025 </r>
        <r>  0.0028  0.0003  0.0002  0.0004  0.0000  0.0000  0.0000  0.0000  0.0000 </r>
        <r>  0.0028  0.0003  0.0002  0.0004  0.0000  0.0000  0.0000  0.0000  0.0000 </r>
        <r>  0.0079  0.0006  0.0003  0.0009  0.0000  0.0000  0.0000  0.0000  0.0000 </r>
        <r>  0.0079  0.0006  0.0003  0.0009  0.0000  0.0000  0.0000  0.0000  0.0000 </r>
       </set>
       <set comment="band 68">
        <r>  0.0105  0.0034  0.0007  0.0044  0.0066  0.0025  0.0008  0.0014  0.0025 </r>
        <r>  0.0106  0.0034  0.0007  0.0044  0.0065  0.0025  0.0008  0.0014  0.0025 </r>
        <r>  0.0037  0.0020  0.0016  0.0014  0.0044  0.0008  0.0015  0.0036  0.0030 </r>
        <r>  0.0037  0.0020  0.0016  0.0014  0.0045  0.0008  0.0015  0.0036  0.0030 </r>
        <r>  0.0079  0.0006  0.0003  0.0009  0.0000  0.0000  0.0000  0.0000  0.0000 </r>
        <r>  0.0080  0.0006  0.0003  0.0009  0.0000  0.0000  0.0000  0.0000  0.0000 </r>
        <r>  0.0028  0.0003  0.0002  0.0004  0.0000  0.0000  0.0000  0.0000  0.0000 </r>
        <r>  0.0028  0.0003  0.0002  0.0004  0.0000  0.0000  0.0000  0.0000  0.0000 </r>
       </set>
       <set comment="band 69">
        <r>  0.0098  0.0080  0.0008  0.0016  0.0011  0.0007  0.0055  0.0022  0.0037 </r>
        <r>  0.0097  0.0079  0.0008  0.0017  0.0011  0.0007  0.0054  0.0021  0.0037 </r>
        <r>  0.0034  0.0008  0.0026  0.0234  0.0205  0.0017  0.0213  0.0013  0.0163 </r>
        <r>  0.0034  0.0008  0.0026  0.0236  0.0201  0.0017  0.0211  0.0012  0.0165 </r>
        <r>  0.0020  0.0027  0.0001  0.0026  0.0000  0.0000  0.0000  0.0000  0.0000 </r>
        <r>  0.0020  0.0027  0.0001  0.0026  0.0000  0.0000  0.0000  0.0000  0.0000 </r>
        <r>  0.0030  0.0001  0.0013  0.0047  0.0000  0.0000  0.0000  0.0000  0.0000 </r>
        <r>  0.0030  0.0001  0.0013  0.0048  0.0000  0.0000  0.0000  0.0000  0.0000 </r>
       </set>
       <set comment="band 70">
        <r>  0.0032  0.0008  0.0026  0.0232  0.0204  0.0018  0.0211  0.0013  0.0162 </r>
        <r>  0.0034  0.0009  0.0025  0.0238  0.0207  0.0017  0.0211  0.0014  0.0166 </r>
        <r>  0.0096  0.0079  0.0008  0.0018  0.0012  0.0007  0.0055  0.0021  0.0038 </r>
        <r>  0.0096  0.0080  0.0007  0.0015  0.0010  0.0007  0.0052  0.0021  0.0038 </r>
        <r>  0.0031  0.0001  0.0013  0.0049  0.0000  0.0000  0.0000  0.0000  0.0000 </r>
        <r>  0.0030  0.0002  0.0013  0.0048  0.0000  0.0000  0.0000  0.0000  0.0000 </r>
        <r>  0.0020  0.0027  0.0000  0.0025  0.0000  0.0000  0.0000  0.0000  0.0000 </r>
        <r>  0.0020  0.0027  0.0001  0.0025  0.0000  0.0000  0.0000  0.0000  0.0000 </r>
       </set>
       <set comment="band 71">
        <r>  0.0074  0.0003  0.0001  0.0276  0.0138  0.0001  0.0006  0.0006  0.0106 </r>
        <r>  0.0075  0.0003  0.0001  0.0277  0.0138  0.0001  0.0007  0.0006  0.0107 </r>
        <r>  0.0024  0.0007  0.0003  0.0127  0.0031  0.0003  0.0032  0.0002  0.0119 </r>
        <r>  0.0022  0.0007  0.0003  0.0126  0.0032  0.0003  0.0032  0.0002  0.0119 </r>
        <r>  0.0121  0.0002  0.0011  0.0026  0.0000  0.0000  0.0000  0.0000  0.0000 </r>
        <r>  0.0121  0.0002  0.0011  0.0026  0.0000  0.0000  0.0000  0.0000  0.0000 </r>
        <r>  0.0040  0.0004  0.0018  0.0031  0.0000  0.0000  0.0000  0.0000  0.0000 </r>
        <r>  0.0040  0.0004  0.0017  0.0032  0.0000  0.0000  0.0000  0.0000  0.0000 </r>
       </set>
       <set comment="band 72">
        <r>  0.0021  0.0009  0.0004  0.0129  0.0030  0.0003  0.0032  0.0003  0.0121 </r>
        <r>  0.0021  0.0009  0.0004  0.0120  0.0025  0.0003  0.0032  0.0002  0.0123 </r>
        <r>  0.0077  0.0002  0.0000  0.0275  0.0150  0.0001  0.0006  0.0007  0.0105 </r>
        <r>  0.0080  0.0002  0.0000  0.0277  0.0151  0.0001  0.0006  0.0007  0.0102 </r>
        <r>  0.0037  0.0004  0.0015  0.0028  0.0000  0.0000  0.0000  0.0000  0.0000 </r>
        <r>  0.0039  0.0004  0.0015  0.0031  0.0000  0.0000  0.0000  0.0000  0.0000 </r>
        <r>  0.0127  0.0003  0.0010  0.0031  0.0000  0.0000  0.0000  0.0000  0.0000 </r>
        <r>  0.0126  0.0003  0.0010  0.0027  0.0000  0.0000  0.0000  0.0000  0.0000 </r>
       </set>
      </set>
     </set>
    </set>
   </array>
  </projected>
 </calculation>
 <structure name="finalpos" >
  <crystal>
   <varray name="basis" >
    <v>       3.95685521       0.00000000       0.00000000 </v>
    <v>      -0.00000000       4.53281069       0.00000000 </v>
    <v>       0.00000000       0.00000000      11.39201851 </v>
   </varray>
   <i name="volume">    204.32354836 </i>
   <varray name="rec_basis" >
    <v>       0.25272595       0.00000000       0.00000000 </v>
    <v>       0.00000000       0.22061367       0.00000000 </v>
    <v>      -0.00000000      -0.00000000       0.08778076 </v>
   </varray>
  </crystal>
  <varray name="positions" >
   <v>       0.25000000       0.36953984       0.62163275 </v>
   <v>       0.75000000       0.63046016       0.37836725 </v>
   <v>       0.75000000       0.86953984       0.87836725 </v>
   <v>       0.25000000       0.13046016       0.12163275 </v>
   <v>       0.25000000       0.01059680       0.34749746 </v>
   <v>       0.75000000       0.98940320       0.65250254 </v>
   <v>       0.75000000       0.51059680       0.15250254 </v>
   <v>       0.25000000       0.48940320       0.84749746 </v>
  </varray>
 </structure>
</modeling>
