 vasp.6.4.2 20Jul23 (build Mar 15 2024 16:31:38) complex                        
  
 executed on             LinuxIFC date 2025.03.19  14:52:20
 running  120 mpi-ranks, on    3 nodes
 distrk:  each k-point on  120 cores,    1 groups
 distr:  one band on NCORE=  10 cores,   12 groups


--------------------------------------------------------------------------------------------------------


 INCAR:
   ALGO = Fast
   EDIFF = 1e-05
   ENAUG = 1360
   ENCUT = 680
   GGA = Ps
   ICHARG = 11
   ISMEAR = -5
   ISPIN = 1
   ISYM = 2
   LAECHG = True
   LASPH = True
   LCHARG = False
   LELF = False
   LMAXMIX = 4
   LMIXTAU = True
   LORBIT = 11
   LREAL = False
   LVTOT = True
   LWAVE = True
   NBANDS = 58
   NCORE = 10
   NEDOS = 1529
   NELM = 200
   NSW = 0
   PREC = Accurate
   SIGMA = 0.05

 POTCAR:    PAW_PBE Zn 06Sep2000                  
 POTCAR:    PAW_PBE Cu 22Jun2005                  
 POTCAR:    PAW_PBE Sn_d 06Sep2000                
 POTCAR:    PAW_PBE S 06Sep2000                   
 WARNING: For LVTOT=.TRUE., VASP.5.x writes the TOTAL local potential to the
     file LOCPOT. If you want only the Hartree contributions, use LVHAR=.TRUE.
     instead. 

 POTCAR:    PAW_PBE Zn 06Sep2000                  
   VRHFIN =Zn: d10 p2                                                                               
   LEXCH  = PE                                                                                      
   EATOM  =  1748.8345 eV,  128.5357 Ry                                                             
                                                                                                    
   TITEL  = PAW_PBE Zn 06Sep2000                                                                    
   LULTRA =        F    use ultrasoft PP ?                                                          
   IUNSCR =        1    unscreen: 0-lin 1-nonlin 2-no                                               
   RPACOR =    2.000    partial core radius                                                         
   POMASS =   65.390; ZVAL   =   12.000    mass and valenz                                          
   RCORE  =    2.300    outmost cutoff radius                                                       
   RWIGS  =    2.400; RWIGS  =    1.270    wigner-seitz radius (au A)                               
   ENMAX  =  276.723; ENMIN  =  207.542 eV                                                          
   RCLOC  =    1.828    cutoff for local pot                                                        
   LCOR   =        T    correct aug charges                                                         
   LPAW   =        T    paw PP                                                                      
   EAUG   =  575.892                                                                                
   DEXC   =    0.000                                                                                
   RMAX   =    2.347    core radius for proj-oper                                                   
   RAUG   =    1.300    factor for augmentation sphere                                              
   RDEP   =    2.324    radius for radial grids                                                     
   RDEPT  =    1.788    core radius for aug-charge                                                  
                                                                                                    
   Atomic configuration                                                                             
    9 entries                                                                                       
     n  l   j            E        occ.                                                              
     1  0  0.50     -9524.6913   2.0000                                                             
     2  0  0.50     -1158.1882   2.0000                                                             
     2  1  1.50     -1003.8506   6.0000                                                             
     3  0  0.50      -129.2194   2.0000                                                             
     3  1  1.50       -83.3890   6.0000                                                             
     3  2  2.50       -10.1410  10.0000                                                             
     4  0  0.50        -5.9785   2.0000                                                             
     4  1  0.50        -4.0817   0.0000                                                             
     4  3  2.50        -1.3606   0.0000                                                             
   Description                                                                                      
     l       E           TYP  RCUT    TYP  RCUT                                                     
     2    -10.1410010     23  2.300                                                                 
     2    -11.5015836     23  2.300                                                                 
     0     -5.9785163     23  2.300                                                                 
     0      1.1858015     23  2.300                                                                 
     1     -2.7211652     23  2.300                                                                 
     1     13.2444212     23  2.300                                                                 
  local pseudopotential read in
  partial core-charges read in
  partial kinetic energy density read in
  atomic valenz-charges read in
  non local Contribution for L=           2  read in
    real space projection operators read in
  non local Contribution for L=           2  read in
    real space projection operators read in
  non local Contribution for L=           0  read in
    real space projection operators read in
  non local Contribution for L=           0  read in
    real space projection operators read in
  non local Contribution for L=           1  read in
    real space projection operators read in
  non local Contribution for L=           1  read in
    real space projection operators read in
    PAW grid and wavefunctions read in
 
   number of l-projection  operators is LMAX  =           6
   number of lm-projection operators is LMMAX =          18
 
 POTCAR:    PAW_PBE Cu 22Jun2005                  
   VRHFIN =Cu: d10 p1                                                                               
   LEXCH  = PE                                                                                      
   EATOM  =  1390.9808 eV,  102.2342 Ry                                                             
                                                                                                    
   TITEL  = PAW_PBE Cu 22Jun2005                                                                    
   LULTRA =        F    use ultrasoft PP ?                                                          
   IUNSCR =        1    unscreen: 0-lin 1-nonlin 2-no                                               
   RPACOR =    2.000    partial core radius                                                         
   POMASS =   63.546; ZVAL   =   11.000    mass and valenz                                          
   RCORE  =    2.300    outmost cutoff radius                                                       
   RWIGS  =    2.200; RWIGS  =    1.164    wigner-seitz radius (au A)                               
   ENMAX  =  295.446; ENMIN  =  221.585 eV                                                          
   ICORE  =        3    local potential                                                             
   LCOR   =        T    correct aug charges                                                         
   LPAW   =        T    paw PP                                                                      
   EAUG   =  586.980                                                                                
   DEXC   =    0.000                                                                                
   RMAX   =    2.344    core radius for proj-oper                                                   
   RAUG   =    1.300    factor for augmentation sphere                                              
   RDEP   =    2.302    radius for radial grids                                                     
   RDEPT  =    1.771    core radius for aug-charge                                                  
                                                                                                    
   Atomic configuration                                                                             
    9 entries                                                                                       
     n  l   j            E        occ.                                                              
     1  0  0.50     -8850.2468   2.0000                                                             
     2  0  0.50     -1062.3498   2.0000                                                             
     2  1  1.50      -916.8226   6.0000                                                             
     3  0  0.50      -114.6929   2.0000                                                             
     3  1  1.50       -72.1325   6.0000                                                             
     3  2  2.50        -5.0394  10.0000                                                             
     4  0  0.50        -4.6097   1.0000                                                             
     4  1  0.50        -4.0817   0.0000                                                             
     4  3  2.50        -1.3606   0.0000                                                             
   Description                                                                                      
     l       E           TYP  RCUT    TYP  RCUT                                                     
     2     -5.0393973     23  2.200                                                                 
     2     10.8846608     23  2.200                                                                 
     0     -4.6097109     23  2.200                                                                 
     0      8.2520465     23  2.200                                                                 
     1     -2.7211652     23  2.200                                                                 
     1     21.7055443     23  2.200                                                                 
     3      2.7211652     23  2.300                                                                 
  local pseudopotential read in
  partial core-charges read in
  partial kinetic energy density read in
  atomic valenz-charges read in
  non local Contribution for L=           2  read in
    real space projection operators read in
  non local Contribution for L=           2  read in
    real space projection operators read in
  non local Contribution for L=           0  read in
    real space projection operators read in
  non local Contribution for L=           0  read in
    real space projection operators read in
  non local Contribution for L=           1  read in
    real space projection operators read in
  non local Contribution for L=           1  read in
    real space projection operators read in
    PAW grid and wavefunctions read in
 
   number of l-projection  operators is LMAX  =           6
   number of lm-projection operators is LMMAX =          18
 
 POTCAR:    PAW_PBE Sn_d 06Sep2000                
   VRHFIN =Sn: s2p2                                                                                 
   LEXCH  = PE                                                                                      
   EATOM  =  1893.1092 eV,  139.1396 Ry                                                             
                                                                                                    
   TITEL  = PAW_PBE Sn_d 06Sep2000                                                                  
   LULTRA =        F    use ultrasoft PP ?                                                          
   IUNSCR =        1    unscreen: 0-lin 1-nonlin 2-no                                               
   RPACOR =    2.300    partial core radius                                                         
   POMASS =  118.710; ZVAL   =   14.000    mass and valenz                                          
   RCORE  =    2.500    outmost cutoff radius                                                       
   RWIGS  =    2.960; RWIGS  =    1.566    wigner-seitz radius (au A)                               
   ENMAX  =  241.083; ENMIN  =  180.812 eV                                                          
   ICORE  =        3    local potential                                                             
   LCOR   =        T    correct aug charges                                                         
   LPAW   =        T    paw PP                                                                      
   EAUG   =  439.825                                                                                
   DEXC   =    0.000                                                                                
   RMAX   =    2.560    core radius for proj-oper                                                   
   RAUG   =    1.300    factor for augmentation sphere                                              
   RDEP   =    2.659    radius for radial grids                                                     
   RDEPT  =    2.046    core radius for aug-charge                                                  
                                                                                                    
   Atomic configuration                                                                             
   12 entries                                                                                       
     n  l   j            E        occ.                                                              
     1  0  0.50    -29007.2859   2.0000                                                             
     2  0  0.50     -4378.8056   2.0000                                                             
     2  1  1.50     -3930.4293   6.0000                                                             
     3  0  0.50      -845.0264   2.0000                                                             
     3  1  1.50      -698.5725   6.0000                                                             
     3  2  2.50      -473.2839  10.0000                                                             
     4  0  0.50      -133.9036   2.0000                                                             
     4  1  1.50       -89.6752   6.0000                                                             
     4  2  2.50       -25.8375  10.0000                                                             
     5  0  0.50       -10.5484   2.0000                                                             
     5  1  0.50        -3.6940   2.0000                                                             
     4  3  2.50        -2.7416   0.0000                                                             
   Description                                                                                      
     l       E           TYP  RCUT    TYP  RCUT                                                     
     2    -25.8374624     23  2.500                                                                 
     2     -5.4423304     23  2.500                                                                 
     0    -10.5483727     23  2.500                                                                 
     0     13.6058260     23  2.500                                                                 
     1     -3.6939829     23  2.500                                                                 
     1      1.9821976     23  2.500                                                                 
     3     -1.3605826      7  2.500                                                                 
  local pseudopotential read in
  partial core-charges read in
  partial kinetic energy density read in
  atomic valenz-charges read in
  non local Contribution for L=           2  read in
    real space projection operators read in
  non local Contribution for L=           2  read in
    real space projection operators read in
  non local Contribution for L=           0  read in
    real space projection operators read in
  non local Contribution for L=           0  read in
    real space projection operators read in
  non local Contribution for L=           1  read in
    real space projection operators read in
  non local Contribution for L=           1  read in
    real space projection operators read in
    PAW grid and wavefunctions read in
 
   number of l-projection  operators is LMAX  =           6
   number of lm-projection operators is LMMAX =          18
 
 POTCAR:    PAW_PBE S 06Sep2000                   
   VRHFIN =S : s2p4                                                                                 
   LEXCH  = PE                                                                                      
   EATOM  =   276.8230 eV,   20.3459 Ry                                                             
                                                                                                    
   TITEL  = PAW_PBE S 06Sep2000                                                                     
   LULTRA =        F    use ultrasoft PP ?                                                          
   IUNSCR =        1    unscreen: 0-lin 1-nonlin 2-no                                               
   RPACOR =    1.500    partial core radius                                                         
   POMASS =   32.066; ZVAL   =    6.000    mass and valenz                                          
   RCORE  =    1.900    outmost cutoff radius                                                       
   RWIGS  =    2.200; RWIGS  =    1.164    wigner-seitz radius (au A)                               
   ENMAX  =  258.689; ENMIN  =  194.016 eV                                                          
   ICORE  =        2    local potential                                                             
   LCOR   =        T    correct aug charges                                                         
   LPAW   =        T    paw PP                                                                      
   EAUG   =  335.092                                                                                
   DEXC   =    0.000                                                                                
   RMAX   =    1.942    core radius for proj-oper                                                   
   RAUG   =    1.300    factor for augmentation sphere                                              
   RDEP   =    1.954    radius for radial grids                                                     
   RDEPT  =    1.744    core radius for aug-charge                                                  
                                                                                                    
   Atomic configuration                                                                             
    6 entries                                                                                       
     n  l   j            E        occ.                                                              
     1  0  0.50     -2405.8406   2.0000                                                             
     2  0  0.50      -211.7007   2.0000                                                             
     2  1  1.50      -156.4958   6.0000                                                             
     3  0  0.50       -17.2562   2.0000                                                             
     3  1  0.50        -7.0085   4.0000                                                             
     3  2  1.50        -6.8029   0.0000                                                             
   Description                                                                                      
     l       E           TYP  RCUT    TYP  RCUT                                                     
     0    -17.2561641     23  1.900                                                                 
     0    -15.8743224     23  1.900                                                                 
     1     -7.0085400     23  1.900                                                                 
     1     -2.7779785     23  1.900                                                                 
     2     -6.8029130     23  1.900                                                                 
  local pseudopotential read in
  partial core-charges read in
  partial kinetic energy density read in
  atomic valenz-charges read in
  non local Contribution for L=           0  read in
    real space projection operators read in
  non local Contribution for L=           0  read in
    real space projection operators read in
  non local Contribution for L=           1  read in
    real space projection operators read in
  non local Contribution for L=           1  read in
    real space projection operators read in
    PAW grid and wavefunctions read in
 
   number of l-projection  operators is LMAX  =           4
   number of lm-projection operators is LMMAX =           8
 
 -----------------------------------------------------------------------------
|                                                                             |
|               ----> ADVICE to this user running VASP <----                  |
|                                                                             |
|     You enforced a specific xc type in the INCAR file but a different       |
|     type was found in the POTCAR file.                                      |
|     I HOPE YOU KNOW WHAT YOU ARE DOING!                                     |
|                                                                             |
 -----------------------------------------------------------------------------

  PAW_PBE Zn 06Sep2000                  :
 energy of atom  1       EATOM=-1748.8345
 kinetic energy error for atom=    0.0008 (will be added to EATOM!!)
  PAW_PBE Cu 22Jun2005                  :
 energy of atom  2       EATOM=-1390.9808
 kinetic energy error for atom=    0.0018 (will be added to EATOM!!)
  PAW_PBE Sn_d 06Sep2000                :
 energy of atom  3       EATOM=-1893.1092
 kinetic energy error for atom=    0.0008 (will be added to EATOM!!)
  PAW_PBE S 06Sep2000                   :
 energy of atom  4       EATOM= -276.8230
 kinetic energy error for atom=    0.0008 (will be added to EATOM!!)
 
 
 POSCAR: Zn1 Cu2 Sn1 S4
  positions in direct lattice
  No initial velocities read in
 exchange correlation table for  LEXCH =       14
   RHO(1)=    0.500       N(1)  =     2000
   RHO(2)=  100.500       N(2)  =     4000
 


--------------------------------------------------------------------------------------------------------


 ion  position               nearest neighbor table
   1  0.750  0.250  0.500-   6 2.34   8 2.34   7 2.34   5 2.34
   2  0.000  0.000  0.000-   7 2.30   5 2.30   8 2.30   6 2.30
   3  0.250  0.750  0.500-   6 2.30   5 2.30   8 2.30   7 2.30
   4  0.500  0.500  0.000-   5 2.44   6 2.44   8 2.44   7 2.44
   5  0.364  0.371  0.478-   3 2.30   2 2.30   1 2.34   4 2.44
   6  0.894  0.887  0.522-   3 2.30   2 2.30   1 2.34   4 2.44
   7  0.113  0.636  0.007-   3 2.30   2 2.30   1 2.34   4 2.44
   8  0.629  0.106  0.993-   3 2.30   2 2.30   1 2.34   4 2.44
 
  LATTYP: Found a body centered tetragonal cell.
 ALAT       =     5.4102945305
 C/A-ratio  =     2.0003379298
  
  Lattice vectors:
  
 A1 = (   4.9390118450,   0.0000000000,  -4.4184821860)
 A2 = (  -0.9875353717,   4.8392780344,  -4.4184821860)
 A3 = (   0.0000000000,   0.0000000000,   6.6269769000)


Analysis of symmetry for initial positions (statically):
=====================================================================
 Subroutine PRICEL returns:
 Original cell was already a primitive cell.
 

 Routine SETGRP: Setting up the symmetry group for a 
 body centered tetragonal supercell.


 Subroutine GETGRP returns: Found  4 space group operations
 (whereof  4 operations were pure point group operations)
 out of a pool of 16 trial point group operations.


The static configuration has the point symmetry S_4 .


Analysis of symmetry for dynamics (positions and initial velocities):
=====================================================================
 Subroutine PRICEL returns:
 Original cell was already a primitive cell.
 

 Routine SETGRP: Setting up the symmetry group for a 
 body centered tetragonal supercell.


 Subroutine GETGRP returns: Found  4 space group operations
 (whereof  4 operations were pure point group operations)
 out of a pool of 16 trial point group operations.


The dynamic configuration has the point symmetry S_4 .


 Subroutine INISYM returns: Found  4 space group operations
 (whereof  4 operations are pure point group operations),
 and found     1 'primitive' translations


----------------------------------------------------------------------------------------

                                     Primitive cell                                     

  volume of cell :     158.3930

  direct lattice vectors                    reciprocal lattice vectors
     4.939011845  0.000000000 -4.418482186     0.202469650  0.041317308  0.000000000
    -0.987535372  4.839278034 -4.418482186     0.000000000  0.206642394  0.000000000
     0.000000000  0.000000000  6.626976900     0.134994969  0.165325086  0.150898368

  length of vectors
     6.626976900  6.626976900  6.626976900     0.206642394  0.206642394  0.261393082

  position of ions in fractional coordinates (direct lattice)
     0.750000000  0.250000000  0.500000000
     0.000000000  0.000000000  0.000000000
     0.250000000  0.750000000  0.500000000
     0.500000000  0.500000000  0.000000000
     0.364327140  0.371240320  0.477580560
     0.893659770  0.886747590  0.522419440
     0.113252410  0.635672860  0.006912180
     0.628759680  0.106340230  0.993087820

  ion indices of the primitive-cell ions
   primitive index   ion index
                 1           1
                 2           2
                 3           3
                 4           4
                 5           5
                 6           6
                 7           7
                 8           8

----------------------------------------------------------------------------------------

 
 
 KPOINTS: pymatgen with grid density = 1253 / numb

Automatic generation of k-mesh.
 Grid dimensions read from file:
 generate k-points for:    5    5    5

 Generating k-lattice:

  Cartesian coordinates                     Fractional coordinates (reciprocal lattice)
     0.040493930  0.008263462  0.000000000     0.200000000  0.000000000  0.000000000
     0.000000000  0.041328479  0.000000000     0.000000000  0.200000000  0.000000000
     0.026998994  0.033065017  0.030179674    -0.000000000 -0.000000000  0.200000000

  Length of vectors
     0.041328479  0.041328479  0.052278616

  Shift w.r.t. Gamma in fractional coordinates (k-lattice)
     0.000000000  0.000000000  0.000000000

 TETIRR: Found    270 inequivalent tetrahedra from      750
 
 Subroutine IBZKPT returns following result:
 ===========================================
 
 Found     21 irreducible k-points:
 
 Following reciprocal coordinates:
            Coordinates               Weight
  0.000000  0.000000  0.000000      1.000000
  0.200000  0.000000  0.000000      8.000000
  0.400000 -0.000000  0.000000      8.000000
  0.200000  0.200000  0.000000      8.000000
  0.400000  0.200000  0.000000      8.000000
 -0.400000 -0.200000 -0.400000      8.000000
 -0.400000  0.200000  0.000000      8.000000
  0.400000 -0.200000 -0.200000      8.000000
 -0.200000  0.200000  0.000000      4.000000
  0.400000  0.400000  0.000000      8.000000
 -0.400000  0.400000  0.000000      4.000000
  0.200000  0.200000  0.200000      8.000000
 -0.200000  0.200000  0.200000      4.000000
 -0.400000  0.400000  0.200000      4.000000
  0.400000 -0.400000  0.200000      4.000000
 -0.200000  0.400000  0.200000      8.000000
 -0.400000 -0.400000  0.200000      8.000000
 -0.200000 -0.400000  0.200000      8.000000
 -0.200000 -0.200000  0.200000      2.000000
 -0.400000  0.400000  0.400000      4.000000
 -0.400000 -0.400000  0.400000      2.000000
 
 Following cartesian coordinates:
            Coordinates               Weight
  0.000000  0.000000  0.000000      1.000000
  0.040494  0.008263  0.000000      8.000000
  0.080988  0.016527  0.000000      8.000000
  0.040494  0.049592  0.000000      8.000000
  0.080988  0.057855  0.000000      8.000000
 -0.134986 -0.123985 -0.060359      8.000000
 -0.080988  0.024802  0.000000      8.000000
  0.053989 -0.057867 -0.030180      8.000000
 -0.040494  0.033065  0.000000      4.000000
  0.080988  0.099184  0.000000      8.000000
 -0.080988  0.066130  0.000000      4.000000
  0.067493  0.082657  0.030180      8.000000
 -0.013495  0.066130  0.030180      4.000000
 -0.053989  0.099195  0.030180      4.000000
  0.107987 -0.033065  0.030180      4.000000
 -0.013495  0.107459  0.030180      8.000000
 -0.053989 -0.066119  0.030180      8.000000
 -0.013495 -0.057855  0.030180      8.000000
 -0.013495 -0.016527  0.030180      2.000000
 -0.026990  0.132260  0.060359      4.000000
 -0.026990 -0.033054  0.060359      2.000000
 
 -----------------------------------------------------------------------------
|                                                                             |
|           W    W    AA    RRRRR   N    N  II  N    N   GGGG   !!!           |
|           W    W   A  A   R    R  NN   N  II  NN   N  G    G  !!!           |
|           W    W  A    A  R    R  N N  N  II  N N  N  G       !!!           |
|           W WW W  AAAAAA  RRRRR   N  N N  II  N  N N  G  GGG   !            |
|           WW  WW  A    A  R   R   N   NN  II  N   NN  G    G                |
|           W    W  A    A  R    R  N    N  II  N    N   GGGG   !!!           |
|                                                                             |
|     The number of bands has been changed from the values supplied in        |
|     the INCAR file. This is a result of running the parallel version.       |
|     The orbitals not found in the WAVECAR file will be initialized with     |
|     random numbers, which is usually adequate. For correlated               |
|     calculations, however, you should redo the groundstate calculation.     |
|     I found NBANDS = 58. Now, NBANDS = 60.                                  |
|                                                                             |
 -----------------------------------------------------------------------------



--------------------------------------------------------------------------------------------------------




 Dimension of arrays:
   k-points           NKPTS =     21   k-points in BZ     NKDIM =     21   number of bands    NBANDS=     60
   number of dos      NEDOS =   1529   number of ions     NIONS =      8
   non local maximal  LDIM  =      6   non local SUM 2l+1 LMDIM =     18
   total plane-waves  NPLWV = 175616
   max r-space proj   IRMAX =      1   max aug-charges    IRDMAX=  49708
   dimension x,y,z NGX =    56 NGY =   56 NGZ =   56
   dimension x,y,z NGXF=   112 NGYF=  112 NGZF=  112
   support grid    NGXF=   112 NGYF=  112 NGZF=  112
   ions per type =               1   2   1   4
   NGX,Y,Z   is equivalent  to a cutoff of  14.05, 14.05, 14.05 a.u.
   NGXF,Y,Z  is equivalent  to a cutoff of  28.10, 28.10, 28.10 a.u.

 SYSTEM =  unknown system                          
 POSCAR =  Zn1 Cu2 Sn1 S4                          

 Startparameter for this run:
   NWRITE =      2    write-flag & timer
   PREC   = accura    normal or accurate (medium, high low for compatibility)
   ISTART =      0    job   : 0-new  1-cont  2-samecut
   ICHARG =     11    charge: 1-file 2-atom 10-const
   ISPIN  =      1    spin polarized calculation?
   LNONCOLLINEAR =      F non collinear calculations
   LSORBIT =      F    spin-orbit coupling
   INIWAV =      1    electr: 0-lowe 1-rand  2-diag
   LASPH  =      T    aspherical Exc in radial PAW
 Electronic Relaxation 1
   ENCUT  =  680.0 eV  49.98 Ry    7.07 a.u.  14.09 14.09 14.09*2*pi/ulx,y,z
   ENINI  =  680.0     initial cutoff
   ENAUG  = 1360.0 eV  augmentation charge cutoff
   NELM   =    200;   NELMIN=  2; NELMDL= -5     # of ELM steps 
   EDIFF  = 0.1E-04   stopping-criterion for ELM
   LREAL  =      F    real-space projection
   NLSPLINE    = F    spline interpolate recip. space projectors
   LCOMPAT=      F    compatible to vasp.4.4
   GGA_COMPAT  = T    GGA compatible to vasp.4.4-vasp.4.6
   LMAXPAW     = -100 max onsite density
   LMAXMIX     =    4 max onsite mixed and CHGCAR
   VOSKOWN=      0    Vosko Wilk Nusair interpolation
   ROPT   =    0.00000   0.00000   0.00000   0.00000
 Ionic relaxation
   EDIFFG = 0.1E-03   stopping-criterion for IOM
   NSW    =      0    number of steps for IOM
   NBLOCK =      1;   KBLOCK =      1    inner block; outer block 
   IBRION =     -1    ionic relax: 0-MD 1-quasi-New 2-CG
   NFREE  =      0    steps in history (QN), initial steepest desc. (CG)
   ISIF   =      2    stress and relaxation
   IWAVPR =     10    prediction:  0-non 1-charg 2-wave 3-comb
   ISYM   =      2    0-nonsym 1-usesym 2-fastsym
   LCORR  =      T    Harris-Foulkes like correction to forces

   POTIM  = 0.5000    time-step for ionic-motion
   TEIN   =    0.0    initial temperature
   TEBEG  =    0.0;   TEEND  =   0.0 temperature during run
   SMASS  =  -3.00    Nose mass-parameter (am)
   estimated Nose-frequenzy (Omega)   =  0.10E-29 period in steps = 0.13E+47 mass=  -0.100E-26a.u.
   SCALEE = 1.0000    scale energy and forces
   NPACO  =    256;   APACO  = 10.0  distance and # of slots for P.C.
   PSTRESS=    0.0 pullay stress

  Mass of Ions in am
   POMASS =  65.39 63.55118.71 32.07
  Ionic Valenz
   ZVAL   =  12.00 11.00 14.00  6.00
  Atomic Wigner-Seitz radii
   RWIGS  =  -1.00 -1.00 -1.00 -1.00
  virtual crystal weights 
   VCA    =   1.00  1.00  1.00  1.00
   NELECT =      72.0000    total number of electrons
   NUPDOWN=      -1.0000    fix difference up-down

 DOS related values:
   EMIN   =  10.00;   EMAX   =-10.00  energy-range for DOS
   EFERMI =   0.00;   METHOD = LEGACY      
   ISMEAR =    -5;   SIGMA  =   0.05  broadening in eV -4-tet -1-fermi 0-gaus

 Electronic relaxation 2 (details)
   IALGO  =     68    algorithm
   LDIAG  =      T    sub-space diagonalisation (order eigenvalues)
   LSUBROT=      F    optimize rotation matrix (better conditioning)
   TURBO    =      0    0=normal 1=particle mesh
   IRESTART =      0    0=no restart 2=restart with 2 vectors
   NREBOOT  =      0    no. of reboots
   NMIN     =      0    reboot dimension
   EREF     =   0.00    reference energy to select bands
   IMIX   =      4    mixing-type and parameters
     AMIX     =   0.40;   BMIX     =  1.00
     AMIX_MAG =   1.60;   BMIX_MAG =  1.00
     AMIN     =   0.10
     WC   =   100.;   INIMIX=   1;  MIXPRE=   1;  MAXMIX= -45

 Intra band minimization:
   WEIMIN = 0.0000     energy-eigenvalue tresh-hold
   EBREAK =  0.42E-07  absolut break condition
   DEPER  =   0.30     relativ break condition  

   TIME   =   0.40     timestep for ELM

  volume/ion in A,a.u.               =      19.80       133.61
  Fermi-wavevector in a.u.,A,eV,Ry     =   1.258752  2.378697 21.557853  1.584457
  Thomas-Fermi vector in A             =   2.392346
 
 Write flags
   LWAVE        =      T    write WAVECAR
   LDOWNSAMPLE  =      F    k-point downsampling of WAVECAR
   LCHARG       =      F    write CHGCAR
   LVTOT        =      T    write LOCPOT, total local potential
   LVHAR        =      F    write LOCPOT, Hartree potential only
   LELF         =      F    write electronic localiz. function (ELF)
   LORBIT       =     11    0 simple, 1 ext, 2 COOP (PROOUT), +10 PAW based schemes


 Dipole corrections
   LMONO  =      F    monopole corrections only (constant potential shift)
   LDIPOL =      F    correct potential (dipole corrections)
   IDIPOL =      0    1-x, 2-y, 3-z, 4-all directions 
   EPSILON=  1.0000000 bulk dielectric constant

 Exchange correlation treatment:
   GGA     =    PS    GGA type
   LEXCH   =    14    internal setting for exchange type
   LIBXC   =     F    Libxc                    
   VOSKOWN =     0    Vosko Wilk Nusair interpolation
   LHFCALC =     F    Hartree Fock is set to
   LHFONE  =     F    Hartree Fock one center treatment
   AEXX    =    0.0000 exact exchange contribution

 Linear response parameters
   LEPSILON=     F    determine dielectric tensor
   LRPA    =     F    only Hartree local field effects (RPA)
   LNABLA  =     F    use nabla operator in PAW spheres
   LVEL    =     F    velocity operator in full k-point grid
   CSHIFT  =0.1000    complex shift for real part using Kramers Kronig
   OMEGAMAX=  -1.0    maximum frequency
   DEG_THRESHOLD= 0.2000000E-02 threshold for treating states as degnerate
   RTIME   =   -0.100 relaxation time in fs
  (WPLASMAI=    0.000 imaginary part of plasma frequency in eV, 0.658/RTIME)
   DFIELD  = 0.0000000 0.0000000 0.0000000 field for delta impulse in time
 
  Optional k-point grid parameters
   LKPOINTS_OPT  =     F    use optional k-point grid
   KPOINTS_OPT_MODE=     1    mode for optional k-point grid
 
 Orbital magnetization related:
   ORBITALMAG=     F  switch on orbital magnetization
   LCHIMAG   =     F  perturbation theory with respect to B field
   DQ        =  0.001000  dq finite difference perturbation B field
   LLRAUG    =     F  two centre corrections for induced B field
   LBONE     =     F  B-component reconstruction in AE one-centre
   LVGVCALC  =     T  calculate vGv susceptibility
   LVGVAPPL  =     F  apply vGv susceptibility instead of pGv for G=0

 Random number generation:
   RANDOM_GENERATOR = DEFAULT
   PCG_SEED         = not used


--------------------------------------------------------------------------------------------------------


 Static calculation
 charge density and potential remain constant during run
 non-spin polarized calculation
 RMM-DIIS sequential band-by-band and
  variant of blocked Davidson during initial phase
 perform sub-space diagonalisation
    before iterative eigenvector-optimisation
 no mixing
 using additional bands           24
 reciprocal scheme for non local part
 use partial core corrections
 calculate Harris-corrections to forces 
   (improved forces if not selfconsistent)
 use gradient corrections 
 WARNING: stress and forces are not correct
  (second derivative of E(xc) not defined)
 use of overlap-Matrix (Vanderbilt PP)
 Fermi weights with tetrahedron method with Bloechl corrections


--------------------------------------------------------------------------------------------------------


  energy-cutoff  :      680.00
  volume of cell :      158.39
      direct lattice vectors                 reciprocal lattice vectors
     4.939011845  0.000000000 -4.418482186     0.202469650  0.041317308  0.000000000
    -0.987535372  4.839278034 -4.418482186     0.000000000  0.206642394  0.000000000
     0.000000000  0.000000000  6.626976900     0.134994969  0.165325086  0.150898368

  length of vectors
     6.626976900  6.626976900  6.626976900     0.206642394  0.206642394  0.261393082


 
 k-points in units of 2pi/SCALE and weight: pymatgen with grid density = 1253 / numb
   0.00000000  0.00000000  0.00000000       0.008
   0.04049393  0.00826346  0.00000000       0.064
   0.08098786  0.01652692  0.00000000       0.064
   0.04049393  0.04959194  0.00000000       0.064
   0.08098786  0.05785540  0.00000000       0.064
  -0.13498585 -0.12398544 -0.06035935       0.064
  -0.08098786  0.02480156  0.00000000       0.064
   0.05398887 -0.05786657 -0.03017967       0.064
  -0.04049393  0.03306502  0.00000000       0.032
   0.08098786  0.09918388  0.00000000       0.064
  -0.08098786  0.06613003  0.00000000       0.032
   0.06749292  0.08265696  0.03017967       0.064
  -0.01349494  0.06613003  0.03017967       0.032
  -0.05398887  0.09919505  0.03017967       0.032
   0.10798685 -0.03306502  0.03017967       0.032
  -0.01349494  0.10745851  0.03017967       0.064
  -0.05398887 -0.06611886  0.03017967       0.064
  -0.01349494 -0.05785540  0.03017967       0.064
  -0.01349494 -0.01652692  0.03017967       0.016
  -0.02698987  0.13226007  0.06035935       0.032
  -0.02698987 -0.03305385  0.06035935       0.016
 
 k-points in reciprocal lattice and weights: pymatgen with grid density = 1253 / numb
   0.00000000  0.00000000  0.00000000       0.008
   0.20000000  0.00000000  0.00000000       0.064
   0.40000000 -0.00000000  0.00000000       0.064
   0.20000000  0.20000000  0.00000000       0.064
   0.40000000  0.20000000  0.00000000       0.064
  -0.40000000 -0.20000000 -0.40000000       0.064
  -0.40000000  0.20000000  0.00000000       0.064
   0.40000000 -0.20000000 -0.20000000       0.064
  -0.20000000  0.20000000  0.00000000       0.032
   0.40000000  0.40000000  0.00000000       0.064
  -0.40000000  0.40000000  0.00000000       0.032
   0.20000000  0.20000000  0.20000000       0.064
  -0.20000000  0.20000000  0.20000000       0.032
  -0.40000000  0.40000000  0.20000000       0.032
   0.40000000 -0.40000000  0.20000000       0.032
  -0.20000000  0.40000000  0.20000000       0.064
  -0.40000000 -0.40000000  0.20000000       0.064
  -0.20000000 -0.40000000  0.20000000       0.064
  -0.20000000 -0.20000000  0.20000000       0.016
  -0.40000000  0.40000000  0.40000000       0.032
  -0.40000000 -0.40000000  0.40000000       0.016
 
 position of ions in fractional coordinates (direct lattice) 
   0.75000000  0.25000000  0.50000000
   0.00000000  0.00000000  0.00000000
   0.25000000  0.75000000  0.50000000
   0.50000000  0.50000000  0.00000000
   0.36432714  0.37124032  0.47758056
   0.89365977  0.88674759  0.52241944
   0.11325241  0.63567286  0.00691218
   0.62875968  0.10634023  0.99308782
 
 position of ions in cartesian coordinates  (Angst):
   3.45737504  1.20981951 -1.10499374
   0.00000000  0.00000000  0.00000000
   0.49410143  3.62945853 -1.10499374
   1.97573824  2.41963902 -4.41848219
   1.43280311  1.79653513 -0.08517638
   3.53810158  4.29121813 -4.40463664
  -0.06839444  3.07619771 -3.26330611
   3.00043677  0.51460994  3.33314419
 


--------------------------------------------------------------------------------------------------------


 k-point   1 :   0.0000 0.0000 0.0000  plane waves:    6435
 k-point   2 :   0.2000 0.0000 0.0000  plane waves:    6374
 k-point   3 :   0.4000-0.0000 0.0000  plane waves:    6373
 k-point   4 :   0.2000 0.2000 0.0000  plane waves:    6376
 k-point   5 :   0.4000 0.2000 0.0000  plane waves:    6390
 k-point   6 :  -0.4000-0.2000-0.4000  plane waves:    6390
 k-point   7 :  -0.4000 0.2000 0.0000  plane waves:    6377
 k-point   8 :   0.4000-0.2000-0.2000  plane waves:    6377
 k-point   9 :  -0.2000 0.2000 0.0000  plane waves:    6360
 k-point  10 :   0.4000 0.4000 0.0000  plane waves:    6380
 k-point  11 :  -0.4000 0.4000 0.0000  plane waves:    6350
 k-point  12 :   0.2000 0.2000 0.2000  plane waves:    6374
 k-point  13 :  -0.2000 0.2000 0.2000  plane waves:    6397
 k-point  14 :  -0.4000 0.4000 0.2000  plane waves:    6385
 k-point  15 :   0.4000-0.4000 0.2000  plane waves:    6385
 k-point  16 :  -0.2000 0.4000 0.2000  plane waves:    6369
 k-point  17 :  -0.4000-0.4000 0.2000  plane waves:    6412
 k-point  18 :  -0.2000-0.4000 0.2000  plane waves:    6394
 k-point  19 :  -0.2000-0.2000 0.2000  plane waves:    6415
 k-point  20 :  -0.4000 0.4000 0.4000  plane waves:    6392
 k-point  21 :  -0.4000-0.4000 0.4000  plane waves:    6411

 maximum and minimum number of plane-waves per node :       669      605

 maximum number of plane-waves:      6435
 maximum index in each direction: 
   IXMAX=   14   IYMAX=   14   IZMAX=   14
   IXMIN=  -14   IYMIN=  -14   IZMIN=  -14


 parallel 3D FFT for wavefunctions:
    minimum data exchange during FFTs selected (reduces bandwidth)
 parallel 3D FFT for charge:
    minimum data exchange during FFTs selected (reduces bandwidth)


 total amount of memory used by VASP MPI-rank0    41916. kBytes
=======================================================================

   base      :      30000. kBytes
   nonl-proj :       8067. kBytes
   fftplans  :       1012. kBytes
   grid      :       1673. kBytes
   one-center:         15. kBytes
   wavefun   :       1149. kBytes
 
     INWAV:  cpu time      0.0001: real time      0.0005
 initial charge density was supplied:
 number of electron      71.9999992 magnetization 
 keeping initial charge density in first step


--------------------------------------------------------------------------------------------------------


 Maximum index for augmentation-charges         1075 (set IRDMAX)


--------------------------------------------------------------------------------------------------------


 First call to EWALD:  gamma=   0.328
 Maximum number of real-space cells 3x 3x 4
 Maximum number of reciprocal cells 3x 3x 3

    FEWALD:  cpu time      0.0027: real time      0.0028


--------------------------------------- Ionic step        1  -------------------------------------------




--------------------------------------- Iteration      1(   1)  ---------------------------------------


    POTLOK:  cpu time      0.0207: real time      0.0227
    SETDIJ:  cpu time      0.1262: real time      0.1265
     EDDAV:  cpu time      0.5825: real time      0.5867
 BZINTS: Fermi energy:   20.434348;   72.000000 electrons
         Band energy: 0.583085E+03;  BLOECHL correction:   -0.321606
       DOS:  cpu time      0.0367: real time      0.0370
    --------------------------------------------
      LOOP:  cpu time      0.7661: real time      0.7730

 eigenvalue-minimisations  :  2664
 total energy-change (2. order) : 0.7339758E+03  (-0.3643643E+04)
 number of electron      71.9999992 magnetization 
 augmentation part       71.9999992 magnetization 

 Free energy of the ion-electron system (eV)
  ---------------------------------------------------
  alpha Z        PSCENC =       202.50320330
  Ewald energy   TEWEN  =     -5034.42253749
  -Hartree energ DENC   =     -2381.54141530
  -exchange      EXHF   =         0.00000000
  -V(xc)+E(xc)   XCENC  =       257.71606940
  PAW double counting   =      8501.51294912    -8920.30715743
  entropy T*S    EENTRO =         0.00000000
  eigenvalues    EBANDS =       583.08521838
  atomic energy  EATOM  =      7525.42945373
  Solvation  Ediel_sol  =         0.00000000
  ---------------------------------------------------
  free energy    TOTEN  =       733.97578371 eV

  energy without entropy =      733.97578371  energy(sigma->0) =      733.97578371


--------------------------------------------------------------------------------------------------------




--------------------------------------- Iteration      1(   2)  ---------------------------------------


     EDDAV:  cpu time      0.5639: real time      0.5671
 BZINTS: Fermi energy:    8.404064;   72.000000 electrons
         Band energy:-0.632108E+02;  BLOECHL correction:   -0.000815
       DOS:  cpu time      0.0338: real time      0.0340
    --------------------------------------------
      LOOP:  cpu time      0.5976: real time      0.6011

 eigenvalue-minimisations  :  2520
 total energy-change (2. order) :-0.6462960E+03  (-0.5942787E+03)
 number of electron      71.9999992 magnetization 
 augmentation part       71.9999992 magnetization 

 Free energy of the ion-electron system (eV)
  ---------------------------------------------------
  alpha Z        PSCENC =       202.50320330
  Ewald energy   TEWEN  =     -5034.42253749
  -Hartree energ DENC   =     -2381.54141530
  -exchange      EXHF   =         0.00000000
  -V(xc)+E(xc)   XCENC  =       257.71606940
  PAW double counting   =      8501.51294912    -8920.30715743
  entropy T*S    EENTRO =         0.00000000
  eigenvalues    EBANDS =       -63.21077861
  atomic energy  EATOM  =      7525.42945373
  Solvation  Ediel_sol  =         0.00000000
  ---------------------------------------------------
  free energy    TOTEN  =        87.67978672 eV

  energy without entropy =       87.67978672  energy(sigma->0) =       87.67978672


--------------------------------------------------------------------------------------------------------




--------------------------------------- Iteration      1(   3)  ---------------------------------------


     EDDAV:  cpu time      0.5761: real time      0.5899
 BZINTS: Fermi energy:    5.079628;   72.000000 electrons
         Band energy:-0.179892E+03;  BLOECHL correction:    0.000000
       DOS:  cpu time      0.0223: real time      0.0223
    --------------------------------------------
      LOOP:  cpu time      0.5984: real time      0.6123

 eigenvalue-minimisations  :  2928
 total energy-change (2. order) :-0.1166812E+03  (-0.1115969E+03)
 number of electron      71.9999992 magnetization 
 augmentation part       71.9999992 magnetization 

 Free energy of the ion-electron system (eV)
  ---------------------------------------------------
  alpha Z        PSCENC =       202.50320330
  Ewald energy   TEWEN  =     -5034.42253749
  -Hartree energ DENC   =     -2381.54141530
  -exchange      EXHF   =         0.00000000
  -V(xc)+E(xc)   XCENC  =       257.71606940
  PAW double counting   =      8501.51294912    -8920.30715743
  entropy T*S    EENTRO =         0.00000000
  eigenvalues    EBANDS =      -179.89200528
  atomic energy  EATOM  =      7525.42945373
  Solvation  Ediel_sol  =         0.00000000
  ---------------------------------------------------
  free energy    TOTEN  =       -29.00143995 eV

  energy without entropy =      -29.00143995  energy(sigma->0) =      -29.00143995


--------------------------------------------------------------------------------------------------------




--------------------------------------- Iteration      1(   4)  ---------------------------------------


     EDDAV:  cpu time      0.5541: real time      0.5687
 BZINTS: Fermi energy:    4.908061;   72.000000 electrons
         Band energy:-0.186437E+03;  BLOECHL correction:    0.000000
       DOS:  cpu time      0.0220: real time      0.0221
    --------------------------------------------
      LOOP:  cpu time      0.5761: real time      0.5908

 eigenvalue-minimisations  :  3072
 total energy-change (2. order) :-0.6544608E+01  (-0.6497820E+01)
 number of electron      71.9999992 magnetization 
 augmentation part       71.9999992 magnetization 

 Free energy of the ion-electron system (eV)
  ---------------------------------------------------
  alpha Z        PSCENC =       202.50320330
  Ewald energy   TEWEN  =     -5034.42253749
  -Hartree energ DENC   =     -2381.54141530
  -exchange      EXHF   =         0.00000000
  -V(xc)+E(xc)   XCENC  =       257.71606940
  PAW double counting   =      8501.51294912    -8920.30715743
  entropy T*S    EENTRO =         0.00000000
  eigenvalues    EBANDS =      -186.43661360
  atomic energy  EATOM  =      7525.42945373
  Solvation  Ediel_sol  =         0.00000000
  ---------------------------------------------------
  free energy    TOTEN  =       -35.54604827 eV

  energy without entropy =      -35.54604827  energy(sigma->0) =      -35.54604827


--------------------------------------------------------------------------------------------------------




--------------------------------------- Iteration      1(   5)  ---------------------------------------


     EDDAV:  cpu time      0.6230: real time      0.6396
 BZINTS: Fermi energy:    4.900794;   72.000000 electrons
         Band energy:-0.186685E+03;  BLOECHL correction:    0.000000
       DOS:  cpu time      0.0220: real time      0.0220
    --------------------------------------------
      LOOP:  cpu time      0.6449: real time      0.6616

 eigenvalue-minimisations  :  3480
 total energy-change (2. order) :-0.2487388E+00  (-0.2486321E+00)
 number of electron      71.9999992 magnetization 
 augmentation part       71.9999992 magnetization 

 Free energy of the ion-electron system (eV)
  ---------------------------------------------------
  alpha Z        PSCENC =       202.50320330
  Ewald energy   TEWEN  =     -5034.42253749
  -Hartree energ DENC   =     -2381.54141530
  -exchange      EXHF   =         0.00000000
  -V(xc)+E(xc)   XCENC  =       257.71606940
  PAW double counting   =      8501.51294912    -8920.30715743
  entropy T*S    EENTRO =         0.00000000
  eigenvalues    EBANDS =      -186.68535245
  atomic energy  EATOM  =      7525.42945373
  Solvation  Ediel_sol  =         0.00000000
  ---------------------------------------------------
  free energy    TOTEN  =       -35.79478712 eV

  energy without entropy =      -35.79478712  energy(sigma->0) =      -35.79478712


--------------------------------------------------------------------------------------------------------




--------------------------------------- Iteration      1(   6)  ---------------------------------------


    EDDIAG:  cpu time      0.1636: real time      0.1800
  RMM-DIIS:  cpu time      0.3118: real time      0.3127
    ORTHCH:  cpu time      0.0277: real time      0.0278
 BZINTS: Fermi energy:    4.912405;   72.000000 electrons
         Band energy:-0.186694E+03;  BLOECHL correction:    0.000000
       DOS:  cpu time      0.0222: real time      0.0222
    --------------------------------------------
      LOOP:  cpu time      0.5252: real time      0.5427

 eigenvalue-minimisations  :  4281
 total energy-change (2. order) :-0.8444601E-02  (-0.8444601E-02)
 number of electron      71.9999992 magnetization 
 augmentation part       71.9999992 magnetization 

 Free energy of the ion-electron system (eV)
  ---------------------------------------------------
  alpha Z        PSCENC =       202.50320330
  Ewald energy   TEWEN  =     -5034.42253749
  -Hartree energ DENC   =     -2381.54141530
  -exchange      EXHF   =         0.00000000
  -V(xc)+E(xc)   XCENC  =       257.71606940
  PAW double counting   =      8501.51294912    -8920.30715743
  entropy T*S    EENTRO =         0.00000000
  eigenvalues    EBANDS =      -186.69379705
  atomic energy  EATOM  =      7525.42945373
  Solvation  Ediel_sol  =         0.00000000
  ---------------------------------------------------
  free energy    TOTEN  =       -35.80323172 eV

  energy without entropy =      -35.80323172  energy(sigma->0) =      -35.80323172


--------------------------------------------------------------------------------------------------------




--------------------------------------- Iteration      1(   7)  ---------------------------------------


    EDDIAG:  cpu time      0.1611: real time      0.1761
  RMM-DIIS:  cpu time      0.3323: real time      0.3331
    ORTHCH:  cpu time      0.0279: real time      0.0279
 BZINTS: Fermi energy:    4.908016;   72.000000 electrons
         Band energy:-0.186696E+03;  BLOECHL correction:    0.000000
       DOS:  cpu time      0.0221: real time      0.0221
    --------------------------------------------
      LOOP:  cpu time      0.5434: real time      0.5592

 eigenvalue-minimisations  :  4649
 total energy-change (2. order) :-0.1936383E-02  (-0.1964336E-02)
 number of electron      71.9999992 magnetization 
 augmentation part       71.9999992 magnetization 

 Free energy of the ion-electron system (eV)
  ---------------------------------------------------
  alpha Z        PSCENC =       202.50320330
  Ewald energy   TEWEN  =     -5034.42253749
  -Hartree energ DENC   =     -2381.54141530
  -exchange      EXHF   =         0.00000000
  -V(xc)+E(xc)   XCENC  =       257.71606940
  PAW double counting   =      8501.51294912    -8920.30715743
  entropy T*S    EENTRO =         0.00000000
  eigenvalues    EBANDS =      -186.69573343
  atomic energy  EATOM  =      7525.42945373
  Solvation  Ediel_sol  =         0.00000000
  ---------------------------------------------------
  free energy    TOTEN  =       -35.80516810 eV

  energy without entropy =      -35.80516810  energy(sigma->0) =      -35.80516810


--------------------------------------------------------------------------------------------------------




--------------------------------------- Iteration      1(   8)  ---------------------------------------


    EDDIAG:  cpu time      0.1607: real time      0.1756
  RMM-DIIS:  cpu time      0.3391: real time      0.3399
    ORTHCH:  cpu time      0.0275: real time      0.0276
 BZINTS: Fermi energy:    4.905097;   72.000000 electrons
         Band energy:-0.186696E+03;  BLOECHL correction:    0.000000
       DOS:  cpu time      0.0221: real time      0.0223
    --------------------------------------------
      LOOP:  cpu time      0.5494: real time      0.5654

 eigenvalue-minimisations  :  4898
 total energy-change (2. order) :-0.2488733E-03  (-0.2637038E-03)
 number of electron      71.9999992 magnetization 
 augmentation part       71.9999992 magnetization 

 Free energy of the ion-electron system (eV)
  ---------------------------------------------------
  alpha Z        PSCENC =       202.50320330
  Ewald energy   TEWEN  =     -5034.42253749
  -Hartree energ DENC   =     -2381.54141530
  -exchange      EXHF   =         0.00000000
  -V(xc)+E(xc)   XCENC  =       257.71606940
  PAW double counting   =      8501.51294912    -8920.30715743
  entropy T*S    EENTRO =         0.00000000
  eigenvalues    EBANDS =      -186.69598231
  atomic energy  EATOM  =      7525.42945373
  Solvation  Ediel_sol  =         0.00000000
  ---------------------------------------------------
  free energy    TOTEN  =       -35.80541698 eV

  energy without entropy =      -35.80541698  energy(sigma->0) =      -35.80541698


--------------------------------------------------------------------------------------------------------




--------------------------------------- Iteration      1(   9)  ---------------------------------------


    EDDIAG:  cpu time      0.1598: real time      0.1752
  RMM-DIIS:  cpu time      0.3320: real time      0.3328
    ORTHCH:  cpu time      0.0275: real time      0.0276
 BZINTS: Fermi energy:    4.902751;   72.000000 electrons
         Band energy:-0.186696E+03;  BLOECHL correction:    0.000000
       DOS:  cpu time      0.0221: real time      0.0221
    --------------------------------------------
      LOOP:  cpu time      0.5413: real time      0.5575

 eigenvalue-minimisations  :  4732
 total energy-change (2. order) :-0.9880250E-04  (-0.1032928E-03)
 number of electron      71.9999992 magnetization 
 augmentation part       71.9999992 magnetization 

 Free energy of the ion-electron system (eV)
  ---------------------------------------------------
  alpha Z        PSCENC =       202.50320330
  Ewald energy   TEWEN  =     -5034.42253749
  -Hartree energ DENC   =     -2381.54141530
  -exchange      EXHF   =         0.00000000
  -V(xc)+E(xc)   XCENC  =       257.71606940
  PAW double counting   =      8501.51294912    -8920.30715743
  entropy T*S    EENTRO =         0.00000000
  eigenvalues    EBANDS =      -186.69608111
  atomic energy  EATOM  =      7525.42945373
  Solvation  Ediel_sol  =         0.00000000
  ---------------------------------------------------
  free energy    TOTEN  =       -35.80551578 eV

  energy without entropy =      -35.80551578  energy(sigma->0) =      -35.80551578


--------------------------------------------------------------------------------------------------------




--------------------------------------- Iteration      1(  10)  ---------------------------------------


    EDDIAG:  cpu time      0.1633: real time      0.1783
  RMM-DIIS:  cpu time      0.3000: real time      0.3009
    ORTHCH:  cpu time      0.0265: real time      0.0266
 BZINTS: Fermi energy:    4.900488;   72.000000 electrons
         Band energy:-0.186696E+03;  BLOECHL correction:    0.000000
       DOS:  cpu time      0.0222: real time      0.0222
    --------------------------------------------
      LOOP:  cpu time      0.5120: real time      0.5281

 eigenvalue-minimisations  :  4080
 total energy-change (2. order) :-0.2079132E-04  (-0.2366904E-04)
 number of electron      71.9999992 magnetization 
 augmentation part       71.9999992 magnetization 

 Free energy of the ion-electron system (eV)
  ---------------------------------------------------
  alpha Z        PSCENC =       202.50320330
  Ewald energy   TEWEN  =     -5034.42253749
  -Hartree energ DENC   =     -2381.54141530
  -exchange      EXHF   =         0.00000000
  -V(xc)+E(xc)   XCENC  =       257.71606940
  PAW double counting   =      8501.51294912    -8920.30715743
  entropy T*S    EENTRO =         0.00000000
  eigenvalues    EBANDS =      -186.69610190
  atomic energy  EATOM  =      7525.42945373
  Solvation  Ediel_sol  =         0.00000000
  ---------------------------------------------------
  free energy    TOTEN  =       -35.80553657 eV

  energy without entropy =      -35.80553657  energy(sigma->0) =      -35.80553657


--------------------------------------------------------------------------------------------------------




--------------------------------------- Iteration      1(  11)  ---------------------------------------


    EDDIAG:  cpu time      0.1597: real time      0.1727
  RMM-DIIS:  cpu time      0.2602: real time      0.2609
    ORTHCH:  cpu time      0.0272: real time      0.0273
 BZINTS: Fermi energy:    4.898780;   72.000000 electrons
         Band energy:-0.186696E+03;  BLOECHL correction:    0.000000
       DOS:  cpu time      0.0221: real time      0.0221
    --------------------------------------------
      LOOP:  cpu time      0.4692: real time      0.4830

 eigenvalue-minimisations  :  3263
 total energy-change (2. order) :-0.8342568E-05  (-0.1020346E-04)
 number of electron      71.9999992 magnetization 
 augmentation part       71.9999992 magnetization 

 Free energy of the ion-electron system (eV)
  ---------------------------------------------------
  alpha Z        PSCENC =       202.50320330
  Ewald energy   TEWEN  =     -5034.42253749
  -Hartree energ DENC   =     -2381.54141530
  -exchange      EXHF   =         0.00000000
  -V(xc)+E(xc)   XCENC  =       257.71606940
  PAW double counting   =      8501.51294912    -8920.30715743
  entropy T*S    EENTRO =         0.00000000
  eigenvalues    EBANDS =      -186.69611024
  atomic energy  EATOM  =      7525.42945373
  Solvation  Ediel_sol  =         0.00000000
  ---------------------------------------------------
  free energy    TOTEN  =       -35.80554491 eV

  energy without entropy =      -35.80554491  energy(sigma->0) =      -35.80554491


--------------------------------------------------------------------------------------------------------




--------------------------------------- Iteration      1(  12)  ---------------------------------------


    EDDIAG:  cpu time      0.1606: real time      0.1749
  RMM-DIIS:  cpu time      0.2295: real time      0.2301
    ORTHCH:  cpu time      0.0272: real time      0.0274
 BZINTS: Fermi energy:    4.896828;   72.000000 electrons
         Band energy:-0.186696E+03;  BLOECHL correction:    0.000000
       DOS:  cpu time      0.0221: real time      0.0222
    --------------------------------------------
      LOOP:  cpu time      0.4394: real time      0.4546

 eigenvalue-minimisations  :  2596
 total energy-change (2. order) :-0.2083649E-05  (-0.2660808E-05)
 number of electron      71.9999992 magnetization 
 augmentation part       71.9999992 magnetization 

 Free energy of the ion-electron system (eV)
  ---------------------------------------------------
  alpha Z        PSCENC =       202.50320330
  Ewald energy   TEWEN  =     -5034.42253749
  -Hartree energ DENC   =     -2381.54141530
  -exchange      EXHF   =         0.00000000
  -V(xc)+E(xc)   XCENC  =       257.71606940
  PAW double counting   =      8501.51294912    -8920.30715743
  entropy T*S    EENTRO =         0.00000000
  eigenvalues    EBANDS =      -186.69611233
  atomic energy  EATOM  =      7525.42945373
  Solvation  Ediel_sol  =         0.00000000
  ---------------------------------------------------
  free energy    TOTEN  =       -35.80554700 eV

  energy without entropy =      -35.80554700  energy(sigma->0) =      -35.80554700


--------------------------------------------------------------------------------------------------------




 average (electrostatic) potential at core
  the test charge radii are     0.9521  0.9430  1.0894  0.9698
  (the norm of the test charge is              1.0000)
       1 -34.2819       2 -65.3644       3 -65.3431       4-102.6254       5 -87.1397
       6 -87.1397       7 -87.1397       8 -87.1397
 
 
 
 E-fermi :   4.8968     XC(G=0): -10.0579     alpha+bet :-10.1671

 Fermi energy:         4.8968282121

 k-point     1 :       0.0000    0.0000    0.0000
  band No.  band energies     occupation 
      1     -17.2910      2.00000
      2     -17.2870      2.00000
      3     -17.2870      2.00000
      4     -17.2064      2.00000
      5     -17.2014      2.00000
      6      -9.6917      2.00000
      7      -8.1376      2.00000
      8      -8.1203      2.00000
      9      -8.1203      2.00000
     10      -3.2325      2.00000
     11      -2.2871      2.00000
     12      -2.2177      2.00000
     13      -2.2080      2.00000
     14      -2.2080      2.00000
     15      -2.1075      2.00000
     16      -0.8969      2.00000
     17      -0.2808      2.00000
     18      -0.1247      2.00000
     19       0.3460      2.00000
     20       0.3789      2.00000
     21       0.3789      2.00000
     22       1.0354      2.00000
     23       1.0354      2.00000
     24       1.5178      2.00000
     25       1.5178      2.00000
     26       1.5399      2.00000
     27       2.6422      2.00000
     28       2.7104      2.00000
     29       2.9162      2.00000
     30       3.1762      2.00000
     31       3.1878      2.00000
     32       3.1878      2.00000
     33       3.3613      2.00000
     34       4.8305      2.00000
     35       4.8305      2.00000
     36       4.8945      2.00000
     37       5.0454      0.00000
     38       6.7471      0.00000
     39       7.6014      0.00000
     40       8.5483      0.00000
     41       8.5484      0.00000
     42       9.6869      0.00000
     43       9.9266      0.00000
     44      10.0949      0.00000
     45      10.0950      0.00000
     46      10.5818      0.00000
     47      11.6284      0.00000
     48      11.6284      0.00000
     49      11.7073      0.00000
     50      11.8422      0.00000
     51      14.5228      0.00000
     52      15.4705      0.00000
     53      15.4914      0.00000
     54      15.5173      0.00000
     55      15.5183      0.00000
     56      15.6769      0.00000
     57      15.7388      0.00000
     58      16.7697      0.00000
     59      16.8836      0.00000
     60      17.6378      0.00000

 k-point     2 :       0.2000    0.0000    0.0000
  band No.  band energies     occupation 
      1     -17.2912      2.00000
      2     -17.2872      2.00000
      3     -17.2870      2.00000
      4     -17.2062      2.00000
      5     -17.2013      2.00000
      6      -9.5547      2.00000
      7      -8.2438      2.00000
      8      -8.1855      2.00000
      9      -8.1592      2.00000
     10      -3.1682      2.00000
     11      -2.2544      2.00000
     12      -2.2487      2.00000
     13      -2.2183      2.00000
     14      -2.2017      2.00000
     15      -2.0868      2.00000
     16      -0.9413      2.00000
     17      -0.4249      2.00000
     18      -0.1389      2.00000
     19       0.2003      2.00000
     20       0.5553      2.00000
     21       0.6702      2.00000
     22       0.9270      2.00000
     23       1.0345      2.00000
     24       1.4198      2.00000
     25       1.4858      2.00000
     26       1.6695      2.00000
     27       2.7343      2.00000
     28       2.8191      2.00000
     29       2.9430      2.00000
     30       3.0514      2.00000
     31       3.1284      2.00000
     32       3.3379      2.00000
     33       3.4654      2.00000
     34       4.0727      2.00000
     35       4.5091      2.00000
     36       4.7358      2.00000
     37       5.9210      0.00000
     38       7.3305      0.00000
     39       7.8555      0.00000
     40       8.2430      0.00000
     41       8.3949      0.00000
     42       9.5220      0.00000
     43       9.9685      0.00000
     44      10.1105      0.00000
     45      10.2297      0.00000
     46      10.5861      0.00000
     47      11.1713      0.00000
     48      11.8414      0.00000
     49      12.7003      0.00000
     50      13.1219      0.00000
     51      13.5198      0.00000
     52      14.1685      0.00000
     53      14.3422      0.00000
     54      14.5740      0.00000
     55      15.0953      0.00000
     56      15.2426      0.00000
     57      15.4421      0.00000
     58      16.4034      0.00000
     59      16.5905      0.00000
     60      17.0115      0.00000

 k-point     3 :       0.4000   -0.0000    0.0000
  band No.  band energies     occupation 
      1     -17.2915      2.00000
      2     -17.2875      2.00000
      3     -17.2870      2.00000
      4     -17.2059      2.00000
      5     -17.2011      2.00000
      6      -9.2051      2.00000
      7      -8.5951      2.00000
      8      -8.2631      2.00000
      9      -8.2050      2.00000
     10      -3.0622      2.00000
     11      -2.2943      2.00000
     12      -2.2546      2.00000
     13      -2.1953      2.00000
     14      -2.1744      2.00000
     15      -2.0510      2.00000
     16      -0.8911      2.00000
     17      -0.4880      2.00000
     18      -0.1557      2.00000
     19       0.2313      2.00000
     20       0.4620      2.00000
     21       0.5764      2.00000
     22       0.9140      2.00000
     23       1.1072      2.00000
     24       1.3616      2.00000
     25       1.4994      2.00000
     26       1.7542      2.00000
     27       2.8551      2.00000
     28       2.8888      2.00000
     29       2.9929      2.00000
     30       3.0562      2.00000
     31       3.1976      2.00000
     32       3.4701      2.00000
     33       3.6112      2.00000
     34       3.7823      2.00000
     35       3.9384      2.00000
     36       4.4329      2.00000
     37       6.4363      0.00000
     38       7.8965      0.00000
     39       8.0169      0.00000
     40       8.6326      0.00000
     41       8.9344      0.00000
     42       9.4965      0.00000
     43       9.9726      0.00000
     44      10.1795      0.00000
     45      10.7194      0.00000
     46      10.9091      0.00000
     47      11.0567      0.00000
     48      11.3941      0.00000
     49      12.1071      0.00000
     50      12.8060      0.00000
     51      12.8846      0.00000
     52      13.1807      0.00000
     53      13.6029      0.00000
     54      14.0256      0.00000
     55      14.1408      0.00000
     56      15.0164      0.00000
     57      15.4752      0.00000
     58      15.6682      0.00000
     59      16.9200      0.00000
     60      17.4846      0.00000

 k-point     4 :       0.2000    0.2000    0.0000
  band No.  band energies     occupation 
      1     -17.2914      2.00000
      2     -17.2872      2.00000
      3     -17.2872      2.00000
      4     -17.2060      2.00000
      5     -17.2012      2.00000
      6      -9.3798      2.00000
      7      -8.3471      2.00000
      8      -8.2476      2.00000
      9      -8.2390      2.00000
     10      -3.1710      2.00000
     11      -2.2833      2.00000
     12      -2.2647      2.00000
     13      -2.1870      2.00000
     14      -2.1750      2.00000
     15      -2.0557      2.00000
     16      -1.0597      2.00000
     17      -0.6036      2.00000
     18       0.0752      2.00000
     19       0.2842      2.00000
     20       0.4901      2.00000
     21       0.6564      2.00000
     22       1.0116      2.00000
     23       1.1062      2.00000
     24       1.3772      2.00000
     25       1.6149      2.00000
     26       1.6686      2.00000
     27       2.7654      2.00000
     28       2.8992      2.00000
     29       2.9799      2.00000
     30       3.0643      2.00000
     31       3.1968      2.00000
     32       3.3705      2.00000
     33       3.5015      2.00000
     34       3.8196      2.00000
     35       4.5634      2.00000
     36       4.5895      2.00000
     37       5.9184      0.00000
     38       7.5328      0.00000
     39       7.6576      0.00000
     40       7.8800      0.00000
     41       8.5784      0.00000
     42       9.6909      0.00000
     43      10.0470      0.00000
     44      10.2332      0.00000
     45      10.3956      0.00000
     46      10.5986      0.00000
     47      11.8256      0.00000
     48      11.9401      0.00000
     49      12.2495      0.00000
     50      12.7790      0.00000
     51      12.9720      0.00000
     52      13.5397      0.00000
     53      14.3921      0.00000
     54      14.4843      0.00000
     55      14.8526      0.00000
     56      15.3573      0.00000
     57      15.5136      0.00000
     58      15.9252      0.00000
     59      16.7771      0.00000
     60      17.2111      0.00000

 k-point     5 :       0.4000    0.2000    0.0000
  band No.  band energies     occupation 
      1     -17.2918      2.00000
      2     -17.2875      2.00000
      3     -17.2871      2.00000
      4     -17.2056      2.00000
      5     -17.2010      2.00000
      6      -9.0604      2.00000
      7      -8.6049      2.00000
      8      -8.3628      2.00000
      9      -8.2478      2.00000
     10      -3.1372      2.00000
     11      -2.3195      2.00000
     12      -2.2707      2.00000
     13      -2.1746      2.00000
     14      -2.1447      2.00000
     15      -2.0476      2.00000
     16      -1.0960      2.00000
     17      -0.7413      2.00000
     18      -0.2694      2.00000
     19       0.3512      2.00000
     20       0.5688      2.00000
     21       0.8198      2.00000
     22       1.0070      2.00000
     23       1.1626      2.00000
     24       1.4036      2.00000
     25       1.6451      2.00000
     26       1.7036      2.00000
     27       2.8297      2.00000
     28       2.8760      2.00000
     29       2.9787      2.00000
     30       3.0791      2.00000
     31       3.3814      2.00000
     32       3.4605      2.00000
     33       3.7011      2.00000
     34       3.8161      2.00000
     35       4.1195      2.00000
     36       4.3857      2.00000
     37       6.1294      0.00000
     38       7.6720      0.00000
     39       8.0415      0.00000
     40       8.4919      0.00000
     41       8.9115      0.00000
     42       9.6058      0.00000
     43       9.9449      0.00000
     44      10.3123      0.00000
     45      10.6549      0.00000
     46      10.9429      0.00000
     47      11.4331      0.00000
     48      11.6055      0.00000
     49      11.6779      0.00000
     50      12.2695      0.00000
     51      12.5531      0.00000
     52      13.0933      0.00000
     53      14.0788      0.00000
     54      14.4317      0.00000
     55      14.7067      0.00000
     56      15.1750      0.00000
     57      15.6588      0.00000
     58      16.0877      0.00000
     59      16.7028      0.00000
     60      17.0371      0.00000

 k-point     6 :      -0.4000   -0.2000   -0.4000
  band No.  band energies     occupation 
      1     -17.2918      2.00000
      2     -17.2875      2.00000
      3     -17.2871      2.00000
      4     -17.2056      2.00000
      5     -17.2010      2.00000
      6      -9.0605      2.00000
      7      -8.6046      2.00000
      8      -8.3636      2.00000
      9      -8.2471      2.00000
     10      -3.1404      2.00000
     11      -2.3116      2.00000
     12      -2.2600      2.00000
     13      -2.1779      2.00000
     14      -2.1495      2.00000
     15      -2.0594      2.00000
     16      -1.0708      2.00000
     17      -0.7504      2.00000
     18      -0.2601      2.00000
     19       0.2288      2.00000
     20       0.6567      2.00000
     21       0.8838      2.00000
     22       1.0164      2.00000
     23       1.0850      2.00000
     24       1.4306      2.00000
     25       1.6053      2.00000
     26       1.7415      2.00000
     27       2.8113      2.00000
     28       2.8928      2.00000
     29       2.9840      2.00000
     30       3.0467      2.00000
     31       3.3485      2.00000
     32       3.5558      2.00000
     33       3.6978      2.00000
     34       3.7939      2.00000
     35       4.1199      2.00000
     36       4.3674      2.00000
     37       6.1307      0.00000
     38       7.6656      0.00000
     39       8.0553      0.00000
     40       8.5194      0.00000
     41       8.7999      0.00000
     42       9.7341      0.00000
     43       9.9677      0.00000
     44      10.2998      0.00000
     45      10.6648      0.00000
     46      10.8380      0.00000
     47      11.4450      0.00000
     48      11.5896      0.00000
     49      11.7561      0.00000
     50      12.2168      0.00000
     51      12.5350      0.00000
     52      13.1056      0.00000
     53      14.1206      0.00000
     54      14.3603      0.00000
     55      14.8109      0.00000
     56      15.1401      0.00000
     57      15.6375      0.00000
     58      16.0840      0.00000
     59      16.7760      0.00000
     60      17.0441      0.00000

 k-point     7 :      -0.4000    0.2000    0.0000
  band No.  band energies     occupation 
      1     -17.2917      2.00000
      2     -17.2875      2.00000
      3     -17.2872      2.00000
      4     -17.2056      2.00000
      5     -17.2010      2.00000
      6      -9.1828      2.00000
      7      -8.5172      2.00000
      8      -8.3440      2.00000
      9      -8.1910      2.00000
     10      -3.1229      2.00000
     11      -2.3184      2.00000
     12      -2.2436      2.00000
     13      -2.1967      2.00000
     14      -2.1583      2.00000
     15      -2.0852      2.00000
     16      -1.1924      2.00000
     17      -0.7051      2.00000
     18      -0.2168      2.00000
     19       0.1248      2.00000
     20       0.5761      2.00000
     21       0.9487      2.00000
     22       1.0186      2.00000
     23       1.0772      2.00000
     24       1.4154      2.00000
     25       1.6556      2.00000
     26       1.7367      2.00000
     27       2.8165      2.00000
     28       2.8907      2.00000
     29       2.9554      2.00000
     30       3.1217      2.00000
     31       3.3283      2.00000
     32       3.4603      2.00000
     33       3.6226      2.00000
     34       3.8822      2.00000
     35       4.2219      2.00000
     36       4.3636      2.00000
     37       6.2268      0.00000
     38       7.8982      0.00000
     39       8.0630      0.00000
     40       8.3299      0.00000
     41       8.9502      0.00000
     42       9.5698      0.00000
     43       9.9633      0.00000
     44      10.4060      0.00000
     45      10.6651      0.00000
     46      10.9995      0.00000
     47      11.4992      0.00000
     48      11.7419      0.00000
     49      11.9115      0.00000
[...]
      7      -8.4806      2.00000
      8      -8.2806      2.00000
      9      -8.1401      2.00000
     10      -3.2155      2.00000
     11      -2.3079      2.00000
     12      -2.2419      2.00000
     13      -2.2327      2.00000
     14      -2.1480      2.00000
     15      -1.9759      2.00000
     16      -1.0053      2.00000
     17      -0.2935      2.00000
     18       0.0624      2.00000
     19       0.4554      2.00000
     20       0.5493      2.00000
     21       0.7651      2.00000
     22       0.9243      2.00000
     23       1.0571      2.00000
     24       1.4391      2.00000
     25       1.5023      2.00000
     26       1.5994      2.00000
     27       2.7110      2.00000
     28       2.8634      2.00000
     29       2.9843      2.00000
     30       3.0144      2.00000
     31       3.2713      2.00000
     32       3.3485      2.00000
     33       3.5534      2.00000
     34       3.8274      2.00000
     35       4.1138      2.00000
     36       4.5996      2.00000
     37       6.1500      0.00000
     38       7.3698      0.00000
     39       7.4385      0.00000
     40       7.5821      0.00000
     41       8.2239      0.00000
     42       9.0327      0.00000
     43       9.5293      0.00000
     44       9.8196      0.00000
     45      10.4757      0.00000
     46      10.6312      0.00000
     47      11.8006      0.00000
     48      12.4961      0.00000
     49      13.2936      0.00000
     50      13.3680      0.00000
     51      13.5928      0.00000
     52      13.9956      0.00000
     53      14.1778      0.00000
     54      14.5954      0.00000
     55      14.7566      0.00000
     56      15.0383      0.00000
     57      15.4262      0.00000
     58      16.5305      0.00000
     59      17.2547      0.00000
     60      17.5195      0.00000

 k-point    19 :      -0.2000   -0.2000    0.2000
  band No.  band energies     occupation 
      1     -17.2911      2.00000
      2     -17.2869      2.00000
      3     -17.2869      2.00000
      4     -17.2065      2.00000
      5     -17.2014      2.00000
      6      -9.5806      2.00000
      7      -8.3202      2.00000
      8      -8.1257      2.00000
      9      -8.1257      2.00000
     10      -3.2683      2.00000
     11      -2.2642      2.00000
     12      -2.2225      2.00000
     13      -2.2225      2.00000
     14      -2.1898      2.00000
     15      -2.0551      2.00000
     16      -1.0089      2.00000
     17      -0.3136      2.00000
     18       0.1261      2.00000
     19       0.4876      2.00000
     20       0.4876      2.00000
     21       0.6013      2.00000
     22       1.0419      2.00000
     23       1.0420      2.00000
     24       1.4014      2.00000
     25       1.5331      2.00000
     26       1.5331      2.00000
     27       2.5696      2.00000
     28       2.8369      2.00000
     29       2.9694      2.00000
     30       3.0497      2.00000
     31       3.3099      2.00000
     32       3.3100      2.00000
     33       3.3390      2.00000
     34       4.2395      2.00000
     35       4.5728      2.00000
     36       4.5728      2.00000
     37       5.8472      0.00000
     38       6.8704      0.00000
     39       7.7192      0.00000
     40       7.8419      0.00000
     41       7.8419      0.00000
     42       8.9435      0.00000
     43       9.5197      0.00000
     44       9.7281      0.00000
     45      10.2820      0.00000
     46      10.2820      0.00000
     47      12.7523      0.00000
     48      12.8682      0.00000
     49      12.8683      0.00000
     50      12.9335      0.00000
     51      13.7400      0.00000
     52      14.3186      0.00000
     53      14.6737      0.00000
     54      14.6741      0.00000
     55      15.4696      0.00000
     56      15.7104      0.00000
     57      16.4963      0.00000
     58      16.6632      0.00000
     59      16.7674      0.00000
     60      17.6355      0.00000

 k-point    20 :      -0.4000    0.4000    0.4000
  band No.  band energies     occupation 
      1     -17.2913      2.00000
      2     -17.2870      2.00000
      3     -17.2868      2.00000
      4     -17.2063      2.00000
      5     -17.2012      2.00000
      6      -9.1107      2.00000
      7      -8.7752      2.00000
      8      -8.3053      2.00000
      9      -8.1308      2.00000
     10      -3.2380      2.00000
     11      -2.3337      2.00000
     12      -2.2578      2.00000
     13      -2.2455      2.00000
     14      -2.1372      2.00000
     15      -1.8782      2.00000
     16      -1.0415      2.00000
     17      -0.0371      2.00000
     18       0.0851      2.00000
     19       0.4450      2.00000
     20       0.5575      2.00000
     21       0.8617      2.00000
     22       0.9573      2.00000
     23       1.0598      2.00000
     24       1.4610      2.00000
     25       1.5302      2.00000
     26       1.5880      2.00000
     27       2.7086      2.00000
     28       2.8372      2.00000
     29       2.9394      2.00000
     30       2.9899      2.00000
     31       3.3654      2.00000
     32       3.5236      2.00000
     33       3.6002      2.00000
     34       3.8259      2.00000
     35       4.0082      2.00000
     36       4.1184      2.00000
     37       6.2677      0.00000
     38       6.9204      0.00000
     39       7.2730      0.00000
     40       7.7541      0.00000
     41       8.2860      0.00000
     42       8.7697      0.00000
     43       9.3276      0.00000
     44       9.5052      0.00000
     45      10.6209      0.00000
     46      11.2083      0.00000
     47      11.3533      0.00000
     48      12.4612      0.00000
     49      13.2208      0.00000
     50      13.4489      0.00000
     51      13.8148      0.00000
     52      13.8356      0.00000
     53      13.9307      0.00000
     54      14.7197      0.00000
     55      14.9197      0.00000
     56      16.0866      0.00000
     57      16.1418      0.00000
     58      16.3279      0.00000
     59      16.8122      0.00000
     60      17.4870      0.00000

 k-point    21 :      -0.4000   -0.4000    0.4000
  band No.  band energies     occupation 
      1     -17.2911      2.00000
      2     -17.2868      2.00000
      3     -17.2868      2.00000
      4     -17.2065      2.00000
      5     -17.2013      2.00000
      6      -9.2892      2.00000
      7      -8.7209      2.00000
      8      -8.1344      2.00000
      9      -8.1344      2.00000
     10      -3.3166      2.00000
     11      -2.3139      2.00000
     12      -2.2446      2.00000
     13      -2.2446      2.00000
     14      -2.1617      2.00000
     15      -1.8995      2.00000
     16      -1.1514      2.00000
     17      -0.0253      2.00000
     18       0.4523      2.00000
     19       0.5573      2.00000
     20       0.6644      2.00000
     21       0.6644      2.00000
     22       1.0618      2.00000
     23       1.0619      2.00000
     24       1.4152      2.00000
     25       1.5699      2.00000
     26       1.5699      2.00000
     27       2.5403      2.00000
     28       2.8364      2.00000
     29       2.8720      2.00000
     30       3.0050      2.00000
     31       3.4844      2.00000
     32       3.5999      2.00000
     33       3.5999      2.00000
     34       3.8380      2.00000
     35       4.1059      2.00000
     36       4.1059      2.00000
     37       6.1726      0.00000
     38       6.9293      0.00000
     39       6.9293      0.00000
     40       7.0963      0.00000
     41       8.0204      0.00000
     42       8.3475      0.00000
     43       9.0399      0.00000
     44       9.1596      0.00000
     45      11.1482      0.00000
     46      11.1482      0.00000
     47      12.4144      0.00000
     48      12.9105      0.00000
     49      12.9181      0.00000
     50      12.9181      0.00000
     51      14.1920      0.00000
     52      14.2788      0.00000
     53      15.2248      0.00000
     54      15.3761      0.00000
     55      15.3781      0.00000
     56      15.8643      0.00000
     57      16.4228      0.00000
     58      16.4985      0.00000
     59      17.2700      0.00000
     60      17.3423      0.00000


--------------------------------------------------------------------------------------------------------


 soft charge-density along one line, spin component           1
         0         1         2         3         4         5         6         7         8         9
 total charge-density along one line
 
 pseudopotential strength for first ion, spin component:           1
 -8.399  -0.002  -0.001  -0.002   0.001  -8.844  -0.002  -0.001
 -0.002  -8.397  -0.002   0.001   0.004  -0.002  -8.842  -0.002
 -0.001  -0.002  -8.395  -0.001   0.001  -0.001  -0.002  -8.841
 -0.002   0.001  -0.001  -8.396  -0.002  -0.002   0.001  -0.001
  0.001   0.004   0.001  -0.002  -8.401   0.001   0.004   0.001
 -8.844  -0.002  -0.001  -0.002   0.001  -9.210  -0.002  -0.001
 -0.002  -8.842  -0.002   0.001   0.004  -0.002  -9.208  -0.002
 -0.001  -0.002  -8.841  -0.001   0.001  -0.001  -0.002  -9.207
 -0.002   0.001  -0.001  -8.842  -0.002  -0.001   0.001  -0.001
  0.001   0.004   0.001  -0.002  -8.846   0.001   0.003   0.001
 -0.000   0.000  -0.000   0.000   0.000  -0.000   0.000  -0.000
 -0.000   0.001  -0.000   0.000   0.000  -0.000   0.001  -0.000
 -0.001  -0.001   0.001   0.001  -0.000  -0.001  -0.001   0.001
  0.001   0.001   0.001   0.001  -0.000   0.001   0.001   0.001
 -0.001   0.001   0.001  -0.001   0.001  -0.001   0.001   0.001
 -0.001  -0.000   0.001   0.001  -0.000  -0.001  -0.000   0.001
  0.001   0.001   0.001   0.000  -0.000   0.000   0.001   0.001
 -0.001   0.001   0.000  -0.001   0.001  -0.000   0.000   0.000
 total augmentation occupancy for first ion, spin component:           1
  2.000   0.000  -0.000   0.000   0.000   0.000   0.000   0.000   0.000   0.000   0.000   0.000   0.000   0.000   0.000   0.000
  0.000   2.000   0.000   0.000  -0.000   0.000   0.000   0.000   0.000   0.000   0.000   0.000   0.000   0.000   0.000   0.000
 -0.000   0.000   2.000   0.000   0.000   0.000   0.000   0.000   0.000   0.000   0.000   0.000   0.000   0.000   0.000   0.000
  0.000   0.000   0.000   2.000   0.000   0.000   0.000   0.000   0.000   0.000   0.000   0.000   0.000   0.000   0.000   0.000
  0.000  -0.000   0.000   0.000   2.000   0.000   0.000   0.000   0.000   0.000   0.000   0.000   0.000   0.000   0.000   0.000
  0.000   0.000   0.000   0.000   0.000   0.000   0.000   0.000   0.000   0.000   0.000   0.000   0.000   0.000   0.000   0.000
  0.000   0.000   0.000   0.000   0.000   0.000   0.000   0.000   0.000   0.000   0.000   0.000   0.000   0.000   0.000   0.000
  0.000   0.000   0.000   0.000   0.000   0.000   0.000   0.000   0.000   0.000   0.000   0.000   0.000   0.000   0.000   0.000
  0.000   0.000   0.000   0.000   0.000   0.000   0.000   0.000   0.000   0.000   0.000   0.000   0.000   0.000   0.000   0.000
  0.000   0.000   0.000   0.000   0.000   0.000   0.000   0.000   0.000   0.000   0.000   0.000   0.000   0.000   0.000   0.000
  0.000   0.000   0.000   0.000   0.000   0.000   0.000   0.000   0.000   0.000   2.000   0.000   0.000   0.000   0.000   0.000
  0.000   0.000   0.000   0.000   0.000   0.000   0.000   0.000   0.000   0.000   0.000   0.000   0.000   0.000   0.000   0.000
  0.000   0.000   0.000   0.000   0.000   0.000   0.000   0.000   0.000   0.000   0.000   0.000   0.000   0.000   0.000   0.000
  0.000   0.000   0.000   0.000   0.000   0.000   0.000   0.000   0.000   0.000   0.000   0.000   0.000   0.000   0.000   0.000
  0.000   0.000   0.000   0.000   0.000   0.000   0.000   0.000   0.000   0.000   0.000   0.000   0.000   0.000   0.000   0.000
  0.000   0.000   0.000   0.000   0.000   0.000   0.000   0.000   0.000   0.000   0.000   0.000   0.000   0.000   0.000   0.000
  0.000   0.000   0.000   0.000   0.000   0.000   0.000   0.000   0.000   0.000   0.000   0.000   0.000   0.000   0.000   0.000
  0.000   0.000   0.000   0.000   0.000   0.000   0.000   0.000   0.000   0.000   0.000   0.000   0.000   0.000   0.000   0.000


------------------------ aborting loop because EDIFF is reached ----------------------------------------





 total charge

# of ion       s       p       d       tot
------------------------------------------
    1        0.535   0.479   9.797  10.812
    2        0.377   0.381   9.255  10.013
    3        0.377   0.384   9.256  10.017
    4        1.109   1.102  10.104  12.315
    5        1.322   2.360   0.000   3.682
    6        1.322   2.360   0.000   3.682
    7        1.322   2.360   0.000   3.682
    8        1.322   2.360   0.000   3.682
--------------------------------------------------
tot          7.688  11.785  38.412  57.885
 
    CHARGE:  cpu time      0.0311: real time      0.0312
    FORLOC:  cpu time      0.0023: real time      0.0023
    FORNL :  cpu time      0.0437: real time      0.0441
    STRESS:  cpu time      0.2109: real time      0.2117
    FORCOR:  cpu time      0.0115: real time      0.0119
    FORHAR:  cpu time      0.0046: real time      0.0046
    OFIELD:  cpu time      0.0007: real time      0.0009

  FORCE on cell =-STRESS in cart. coord.  units (eV):
  Direction    XX          YY          ZZ          XY          YZ          ZX
  --------------------------------------------------------------------------------------
  Alpha Z   202.50320   202.50320   202.50320
  Ewald   -1678.35169 -1678.27968 -1677.79864     0.16852    -0.37900    -0.30660
  Hartree   793.67923   793.70513   793.88884     0.06423    -0.14343    -0.11739
  E(xc)    -351.82189  -351.82232  -351.82525    -0.00105     0.00230     0.00188
  Local    -249.19277  -249.30952  -250.11116    -0.28067     0.62896     0.51170
  n-local   275.76867   276.10963   276.81803    -0.21190    -0.00169    -0.24330
  augment   337.61101   337.58561   337.40881    -0.06174     0.13837     0.11281
  Kinetic   669.09133   668.19281   666.89104    -1.25567    -0.66311    -0.99084
  Fock        0.00000     0.00000     0.00000     0.00000     0.00000     0.00000
  -------------------------------------------------------------------------------------
  Total      -1.41197    -1.41388    -1.42730    -0.00469     0.01050     0.00857
  in kB     -14.28235   -14.30172   -14.43746    -0.04747     0.10617     0.08669
  external pressure =      -14.34 kB  Pullay stress =        0.00 kB


 VOLUME and BASIS-vectors are now :
 -----------------------------------------------------------------------------
  energy-cutoff  :      680.00
  volume of cell :      158.39
      direct lattice vectors                 reciprocal lattice vectors
     4.939011845  0.000000000 -4.418482186     0.202469650  0.041317308  0.000000000
    -0.987535372  4.839278034 -4.418482186     0.000000000  0.206642394  0.000000000
     0.000000000  0.000000000  6.626976900     0.134994969  0.165325086  0.150898368

  length of vectors
     6.626976900  6.626976900  6.626976900     0.206642394  0.206642394  0.261393082


 FORCES acting on ions
    electron-ion (+dipol)            ewald-force                    non-local-force                 convergence-correction
 -----------------------------------------------------------------------------------------------
   -.665E-04 0.103E-03 0.902E-04   -.513E-03 0.718E-03 0.656E-03   0.756E-19 -.429E-19 -.203E-18   -.743E-03 0.589E-03 -.395E-04
   -.101E-03 0.391E-04 -.977E-04   -.740E-03 0.279E-03 -.712E-03   -.191E-17 0.340E-17 -.190E-17   -.236E-03 -.311E-03 -.110E-02
   0.181E-04 -.569E-04 -.947E-04   0.128E-03 -.421E-03 -.692E-03   -.835E-19 -.451E-18 0.944E-17   0.706E-03 -.591E-03 -.328E-04
   0.610E-04 -.506E-05 0.967E-04   0.453E-03 -.413E-04 0.719E-03   0.619E-17 -.456E-17 0.401E-17   0.249E-03 0.297E-03 0.110E-02
   0.655E+01 0.215E+01 0.754E+01   -.777E+01 -.255E+01 -.951E+01   0.114E+01 0.383E+00 0.183E+01   -.147E-01 -.367E-02 -.159E-01
   -.860E+01 -.466E+01 -.296E+01   0.105E+02 0.594E+01 0.332E+01   -.180E+01 -.119E+01 -.352E+00   0.186E-01 0.838E-02 0.730E-02
   0.615E+01 -.685E+01 -.443E+01   -.772E+01 0.812E+01 0.564E+01   0.146E+01 -.120E+01 -.111E+01   -.115E-01 0.151E-01 0.951E-02
   -.410E+01 0.935E+01 -.149E+00   0.495E+01 -.115E+02 0.549E+00   -.799E+00 0.200E+01 -.366E+00   0.770E-02 -.198E-01 -.962E-03
 -----------------------------------------------------------------------------------------------
   0.267E-02 -.225E-02 -.163E-03   -.133E-13 -.533E-14 -.188E-13   -.333E-15 0.444E-15 0.555E-16   -.243E-04 -.331E-04 -.116E-03
 
 
 POSITION                                       TOTAL-FORCE (eV/Angst)
 -----------------------------------------------------------------------------------
      3.45738      1.20982     -1.10499         0.000000     -0.000000     -0.000000
      0.00000      0.00000      0.00000         0.000000     -0.000000     -0.000000
      0.49410      3.62946     -1.10499         0.000000     -0.000000     -0.000000
      1.97574      2.41964     -4.41848         0.000000     -0.000000     -0.000000
      1.43280      1.79654     -0.08518        -0.094210     -0.021517     -0.159235
      3.53810      4.29122     -4.40464         0.157012      0.098430      0.018785
     -0.06839      3.07620     -3.26331        -0.120173      0.096609      0.104495
      3.00044      0.51461      3.33314         0.057371     -0.173523      0.035955
 -----------------------------------------------------------------------------------
    total drift:                                0.002647     -0.002279     -0.000279


--------------------------------------------------------------------------------------------------------



  FREE ENERGIE OF THE ION-ELECTRON SYSTEM (eV)
  ---------------------------------------------------
  free  energy   TOTEN  =       -35.80554700 eV

  energy  without entropy=      -35.80554700  energy(sigma->0) =      -35.80554700
 


--------------------------------------------------------------------------------------------------------


    POTLOK:  cpu time      0.1340: real time      0.1346


--------------------------------------------------------------------------------------------------------


 writing wavefunctions
     LOOP+:  cpu time      7.8071: real time      8.0005
    4ORBIT:  cpu time      0.0000: real time      0.0000



 total charge

# of ion       s       p       d       tot
------------------------------------------
    1        0.535   0.479   9.797  10.812
    2        0.377   0.381   9.255  10.013
    3        0.377   0.384   9.256  10.017
    4        1.109   1.102  10.104  12.315
    5        1.322   2.360   0.000   3.682
    6        1.322   2.360   0.000   3.682
    7        1.322   2.360   0.000   3.682
    8        1.322   2.360   0.000   3.682
--------------------------------------------------
tot          7.688  11.785  38.412  57.885
 
 BZINTS: Fermi energy:    4.896828;   72.000000 electrons
         Band energy:-0.186696E+03;  BLOECHL correction:    0.000000

 total amount of memory used by VASP MPI-rank0    41916. kBytes
=======================================================================

   base      :      30000. kBytes
   nonl-proj :       8067. kBytes
   fftplans  :       1012. kBytes
   grid      :       1673. kBytes
   one-center:         15. kBytes
   wavefun   :       1149. kBytes
 
  
  
 General timing and accounting informations for this job:
 ========================================================
  
                  Total CPU time used (sec):       24.935
                            User time (sec):       19.309
                          System time (sec):        5.626
                         Elapsed time (sec):       25.874
  
                   Maximum memory used (kb):      206640.
                   Average memory used (kb):          N/A
  
                          Minor page faults:        37672
                          Major page faults:            0
                 Voluntary context switches:         1855
