<?xml version="1.0" encoding="ISO-8859-1"?>
<modeling>
 <generator>
  <i name="program" type="string">vasp </i>
  <i name="version" type="string">6.4.2  </i>
  <i name="subversion" type="string">20Jul23 (build Mar 15 2024 16:31:38) complex                          parallel </i>
  <i name="platform" type="string">LinuxIFC </i>
  <i name="date" type="string">2025 03 19 </i>
  <i name="time" type="string">15:29:20 </i>
 </generator>
 <incar>
  <i type="string" name="PREC">Accurate</i>
  <i type="string" name="ALGO">Fast</i>
  <i type="int" name="ISPIN">     1</i>
  <i type="int" name="ICHARG">    11</i>
  <i type="int" name="NELM">   200</i>
  <i name="EDIFF">      0.00001000</i>
  <i type="int" name="NSW">     0</i>
  <i type="int" name="ISYM">     2</i>
  <i name="ENCUT">    680.00000000</i>
  <i name="ENAUG">   1360.00000000</i>
  <i type="int" name="NBANDS">    44</i>
  <i type="int" name="NEDOS">  2000</i>
  <i type="logical" name="LREAL"> F  </i>
  <i type="int" name="ISMEAR">    -5</i>
  <i name="SIGMA">      0.05000000</i>
  <i type="int" name="LMAXMIX">     4</i>
  <i type="logical" name="LWAVE"> T  </i>
  <i type="logical" name="LCHARG"> F  </i>
  <i type="logical" name="LVTOT"> T  </i>
  <i type="int" name="LORBIT">    11</i>
  <i type="logical" name="LELF"> F  </i>
  <i type="logical" name="LOPTICS"> T  </i>
  <i type="logical" name="LASPH"> T  </i>
  <i type="logical" name="LAECHG"> T  </i>
  <i name="CSHIFT">      0.00001000</i>
  <i type="string" name="GGA">Ps</i>
  <i type="logical" name="LMIXTAU"> T  </i>
 </incar>
 <primitive_cell>
  <structure name="primitive_cell" >
   <crystal>
    <varray name="basis" >
     <v>       4.24669932       0.00000000       0.00000000 </v>
     <v>      -0.00000000       4.24669932       0.00000000 </v>
     <v>       0.00000000       0.00000000       4.24669932 </v>
    </varray>
    <i name="volume">     76.58690827 </i>
    <varray name="rec_basis" >
     <v>       0.23547700       0.00000000       0.00000000 </v>
     <v>       0.00000000       0.23547700       0.00000000 </v>
     <v>      -0.00000000      -0.00000000       0.23547700 </v>
    </varray>
   </crystal>
   <varray name="positions" >
    <v>       0.50000000       0.50000000       1.00000000 </v>
    <v>       0.00000000       0.50000000       0.50000000 </v>
    <v>       0.50000000       0.00000000       0.50000000 </v>
    <v>       0.00000000       0.00000000       0.00000000 </v>
    <v>       0.75000000       0.75000000       0.75000000 </v>
    <v>       0.25000000       0.25000000       0.25000000 </v>
   </varray>
  </structure>
  <varray name="primitive_index" >
   <v type="int" >        1 </v>
   <v type="int" >        2 </v>
   <v type="int" >        3 </v>
   <v type="int" >        4 </v>
   <v type="int" >        5 </v>
   <v type="int" >        6 </v>
  </varray>
 </primitive_cell>
 <kpoints>
  <generation param="Gamma">
   <v type="int" name="divisions">       6        6        6 </v>
   <v name="usershift">      0.00000000       0.00000000       0.00000000 </v>
   <v name="genvec1">      0.16666667      -0.00000000       0.00000000 </v>
   <v name="genvec2">      0.00000000       0.16666667       0.00000000 </v>
   <v name="genvec3">      0.00000000       0.00000000       0.16666667 </v>
   <v name="shift">      0.00000000       0.00000000       0.00000000 </v>
  </generation>
  <varray name="kpointlist" >
   <v>       0.00000000       0.00000000       0.00000000 </v>
   <v>       0.16666667       0.00000000       0.00000000 </v>
   <v>       0.33333333      -0.00000000       0.00000000 </v>
   <v>       0.50000000       0.00000000       0.00000000 </v>
   <v>       0.16666667       0.16666667       0.00000000 </v>
   <v>       0.33333333       0.16666667       0.00000000 </v>
   <v>       0.50000000       0.16666667       0.00000000 </v>
   <v>       0.33333333       0.33333333       0.00000000 </v>
   <v>       0.50000000       0.33333333       0.00000000 </v>
   <v>       0.50000000       0.50000000       0.00000000 </v>
   <v>       0.16666667       0.16666667       0.16666667 </v>
   <v>       0.33333333       0.16666667       0.16666667 </v>
   <v>       0.50000000       0.16666667       0.16666667 </v>
   <v>       0.33333333       0.33333333       0.16666667 </v>
   <v>       0.50000000       0.33333333       0.16666667 </v>
   <v>       0.50000000       0.50000000       0.16666667 </v>
   <v>       0.33333333       0.33333333       0.33333333 </v>
   <v>       0.50000000       0.33333333       0.33333333 </v>
   <v>       0.50000000       0.50000000       0.33333333 </v>
   <v>       0.50000000       0.50000000       0.50000000 </v>
  </varray>
  <varray name="weights" >
   <v>       0.00462963 </v>
   <v>       0.02777778 </v>
   <v>       0.02777778 </v>
   <v>       0.01388889 </v>
   <v>       0.05555556 </v>
   <v>       0.11111111 </v>
   <v>       0.05555556 </v>
   <v>       0.05555556 </v>
   <v>       0.05555556 </v>
   <v>       0.01388889 </v>
   <v>       0.03703704 </v>
   <v>       0.11111111 </v>
   <v>       0.05555556 </v>
   <v>       0.11111111 </v>
   <v>       0.11111111 </v>
   <v>       0.02777778 </v>
   <v>       0.03703704 </v>
   <v>       0.05555556 </v>
   <v>       0.02777778 </v>
   <v>       0.00462963 </v>
  </varray>
  <varray name="tetrahedronlist"  type="int" >
   <v type="int" >       12       11       12       12       14 </v>
   <v type="int" >       12       12       12       14       14 </v>
   <v type="int" >       12       12       14       14       17 </v>
   <v type="int" >       12       12       13       14       15 </v>
   <v type="int" >       12       12       14       14       15 </v>
   <v type="int" >       12       14       14       15       17 </v>
   <v type="int" >       12       13       14       15       15 </v>
   <v type="int" >       24       14       15       15       18 </v>
   <v type="int" >       24       14       15       17       18 </v>
   <v type="int" >       24        5        6       11       12 </v>
   <v type="int" >       12        6       11       12       12 </v>
   <v type="int" >       12        6       12       12       14 </v>
   <v type="int" >       24        5        6        6       12 </v>
   <v type="int" >       12        6        6        8       12 </v>
   <v type="int" >       12        6        8       12       14 </v>
   <v type="int" >       12       14       15       16       17 </v>
   <v type="int" >       12       15       16       17       18 </v>
   <v type="int" >       12       16       17       18       19 </v>
   <v type="int" >       12       15       15       16       18 </v>
   <v type="int" >       12       15       16       18       19 </v>
   <v type="int" >       12       15       17       18       18 </v>
   <v type="int" >       12       15       18       18       19 </v>
   <v type="int" >       12       12       13       14       17 </v>
   <v type="int" >       12       13       14       15       17 </v>
   <v type="int" >       12       13       15       17       18 </v>
   <v type="int" >       12        6        7       12       14 </v>
   <v type="int" >       12        7       12       13       14 </v>
   <v type="int" >       12        7       13       14       15 </v>
   <v type="int" >       12        6        7        8       14 </v>
   <v type="int" >       12        7        8        9       14 </v>
   <v type="int" >       12        7        9       14       15 </v>
   <v type="int" >       12        6        8       12       13 </v>
   <v type="int" >       12        6        7        8       13 </v>
   <v type="int" >       12        7        8        9       13 </v>
   <v type="int" >       12        8       12       13       14 </v>
   <v type="int" >       12        8       13       14       15 </v>
   <v type="int" >       12        8        9       13       15 </v>
   <v type="int" >       12       14       15       16       19 </v>
   <v type="int" >       12       14       15       18       19 </v>
   <v type="int" >       12       14       17       18       19 </v>
   <v type="int" >       12       12       13       15       18 </v>
   <v type="int" >       12       12       14       15       18 </v>
   <v type="int" >       12       12       14       17       18 </v>
   <v type="int" >       12        6        7       13       15 </v>
   <v type="int" >       12        6       12       13       15 </v>
   <v type="int" >       12        6       12       14       15 </v>
   <v type="int" >       12        6        7        9       15 </v>
   <v type="int" >       12        6        8        9       15 </v>
   <v type="int" >       12        6        8       14       15 </v>
   <v type="int" >       12        7        9       12       13 </v>
   <v type="int" >       12        6        7        9       12 </v>
   <v type="int" >       12        6        8        9       12 </v>
   <v type="int" >       12        9       12       13       15 </v>
   <v type="int" >       12        9       12       14       15 </v>
   <v type="int" >       12        8        9       12       14 </v>
   <v type="int" >       12       11       12       14       17 </v>
   <v type="int" >       12        5        6       12       14 </v>
   <v type="int" >       12        5       11       12       14 </v>
   <v type="int" >       12        5        6        8       14 </v>
   <v type="int" >       12        6        8       11       12 </v>
   <v type="int" >       12        5        6        8       11 </v>
   <v type="int" >       12        8       11       12       14 </v>
   <v type="int" >       12        2        5       11       12 </v>
   <v type="int" >       12        2        5        6       12 </v>
   <v type="int" >       12        2        3        6       12 </v>
   <v type="int" >       12        5        5        6       11 </v>
   <v type="int" >       12        2        5        5        6 </v>
   <v type="int" >       12        2        3        5        6 </v>
   <v type="int" >       12        3        5        6        6 </v>
   <v type="int" >       12        2        3        5       11 </v>
   <v type="int" >       12        3        5        6       11 </v>
   <v type="int" >       12        3        6       11       12 </v>
   <v type="int" >       12       17       18       18       19 </v>
   <v type="int" >       12       18       18       19       19 </v>
   <v type="int" >       12       18       19       19       20 </v>
   <v type="int" >       12        8        9       14       15 </v>
   <v type="int" >       12        9       14       15       15 </v>
   <v type="int" >       12        9       15       15       16 </v>
   <v type="int" >       12        8        9        9       15 </v>
   <v type="int" >       12        9        9       10       15 </v>
   <v type="int" >       12        9       10       15       16 </v>
   <v type="int" >       12       17       18       19       20 </v>
   <v type="int" >       12        8        9       15       16 </v>
   <v type="int" >       12        8       14       15       16 </v>
   <v type="int" >       12        8        9       10       16 </v>
   <v type="int" >       12        9       10       14       15 </v>
   <v type="int" >       12        8        9       10       14 </v>
   <v type="int" >       12       10       14       15       16 </v>
   <v type="int" >       12        3        6       12       13 </v>
   <v type="int" >       12        3        6        7       13 </v>
   <v type="int" >       12        3        4        7       13 </v>
   <v type="int" >       12        6        6        7       12 </v>
   <v type="int" >       12        3        6        6        7 </v>
   <v type="int" >       12        3        4        6        7 </v>
   <v type="int" >       12        6        7       12       13 </v>
   <v type="int" >       12        6        7        7       13 </v>
   <v type="int" >       12        4        6        7        7 </v>
   <v type="int" >       12        3        4        6       12 </v>
   <v type="int" >       12        4        6        7       12 </v>
   <v type="int" >       12        4        7       12       13 </v>
   <v type="int" >       12        2        5        5       11 </v>
   <v type="int" >       12        2        2        5        5 </v>
   <v type="int" >       12        1        2        2        5 </v>
   <v type="int" >       12        1        2        5       11 </v>
  </varray>
  <i name="volumeweight">      0.00077160 </i>
 </kpoints>
 <parameters>
  <separator name="general" >
   <i type="string" name="SYSTEM">unknown system</i>
   <i type="logical" name="LCOMPAT"> F  </i>
  </separator>
  <separator name="electronic" >
   <i type="string" name="PREC">accura</i>
   <i name="ENMAX">    680.00000000</i>
   <i name="ENAUG">   1360.00000000</i>
   <i name="EDIFF">      0.00001000</i>
   <i type="int" name="IALGO">    68</i>
   <i type="int" name="IWAVPR">    10</i>
   <i type="int" name="NBANDS">    48</i>
   <i type="int" name="NBANDSLOW">    -1</i>
   <i type="int" name="NBANDSHIGH">    -1</i>
   <i name="NELECT">     56.00000000</i>
   <i type="int" name="TURBO">     0</i>
   <i type="int" name="IRESTART">     0</i>
   <i type="int" name="NREBOOT">     0</i>
   <i type="int" name="NMIN">     0</i>
   <i name="EREF">      0.00000000</i>
   <separator name="electronic smearing" >
    <i type="int" name="ISMEAR">    -5</i>
    <i name="SIGMA">      0.05000000</i>
    <i name="KSPACING">      0.50000000</i>
    <i type="logical" name="KGAMMA"> T  </i>
    <i type="logical" name="KBLOWUP"> T  </i>
   </separator>
   <separator name="electronic projectors" >
    <i type="logical" name="LREAL"> F  </i>
    <v name="ROPT">      0.00000000      0.00000000</v>
    <i type="int" name="LMAXPAW">  -100</i>
    <i type="int" name="LMAXMIX">     4</i>
    <i type="logical" name="NLSPLINE"> F  </i>
   </separator>
   <separator name="electronic startup" >
    <i type="int" name="ISTART">     0</i>
    <i type="int" name="ICHARG">    11</i>
    <i type="int" name="INIWAV">     1</i>
   </separator>
   <separator name="electronic spin" >
    <i type="int" name="ISPIN">     1</i>
    <i type="logical" name="LNONCOLLINEAR"> F  </i>
    <v name="MAGMOM">      1.00000000      1.00000000      1.00000000      1.00000000      1.00000000      1.00000000</v>
    <i name="NUPDOWN">     -1.00000000</i>
    <i type="logical" name="LSORBIT"> F  </i>
    <v name="SAXIS">      0.00000000      0.00000000      1.00000000</v>
    <i type="logical" name="LSPIRAL"> F  </i>
    <v name="QSPIRAL">      0.00000000      0.00000000      0.00000000</v>
    <i type="logical" name="LZEROZ"> F  </i>
   </separator>
   <separator name="electronic exchange-correlation" >
    <i type="logical" name="LASPH"> T  </i>
    <i type="logical" name="LMETAGGA"> F  </i>
   </separator>
   <separator name="electronic convergence" >
    <i type="int" name="NELM">   200</i>
    <i type="int" name="NELMDL">    -5</i>
    <i type="int" name="NELMIN">     2</i>
    <i name="ENINI">    680.00000000</i>
    <separator name="electronic convergence detail" >
     <i type="logical" name="LDIAG"> T  </i>
     <i type="logical" name="LSUBROT"> F  </i>
     <i name="WEIMIN">      0.00000000</i>
     <i name="EBREAK">      0.00000005</i>
     <i name="DEPER">      0.30000000</i>
     <i type="int" name="NRMM">     4</i>
     <i name="TIME">      0.40000000</i>
    </separator>
   </separator>
   <separator name="electronic mixer" >
    <i name="AMIX">      0.40000000</i>
    <i name="BMIX">      1.00000000</i>
    <i name="AMIN">      0.10000000</i>
    <i name="AMIX_MAG">      1.60000000</i>
    <i name="BMIX_MAG">      1.00000000</i>
    <separator name="electronic mixer details" >
     <i type="int" name="IMIX">     4</i>
     <i type="logical" name="MIXFIRST"> F  </i>
     <i type="int" name="MAXMIX">   -45</i>
     <i name="WC">    100.00000000</i>
     <i type="int" name="INIMIX">     1</i>
     <i type="int" name="MIXPRE">     1</i>
     <i type="int" name="MREMOVE">     5</i>
    </separator>
   </separator>
   <separator name="electronic dipolcorrection" >
    <i type="logical" name="LDIPOL"> F  </i>
    <i type="logical" name="LMONO"> F  </i>
    <i type="int" name="IDIPOL">     0</i>
    <i name="EPSILON">      1.00000000</i>
    <v name="DIPOL">   -100.00000000   -100.00000000   -100.00000000</v>
    <i name="EFIELD">      0.00000000</i>
   </separator>
  </separator>
  <separator name="grids" >
   <i type="int" name="NGX">    36</i>
   <i type="int" name="NGY">    36</i>
   <i type="int" name="NGZ">    36</i>
   <i type="int" name="NGXF">    72</i>
   <i type="int" name="NGYF">    72</i>
   <i type="int" name="NGZF">    72</i>
   <i type="logical" name="ADDGRID"> F  </i>
  </separator>
  <separator name="ionic" >
   <i type="int" name="NSW">     0</i>
   <i type="int" name="IBRION">    -1</i>
   <i type="int" name="MDALGO">     0</i>
   <i type="int" name="ISIF">     2</i>
   <i name="PSTRESS">      0.00000000</i>
   <i name="EDIFFG">      0.00010000</i>
   <i type="int" name="NFREE">     0</i>
   <i name="POTIM">      0.50000000</i>
   <i name="SMASS">     -3.00000000</i>
   <i name="SCALEE">      1.00000000</i>
  </separator>
  <separator name="ionic md" >
   <i name="TEBEG">      0.00010000</i>
   <i name="TEEND">      0.00010000</i>
   <i type="int" name="NBLOCK">     1</i>
   <i type="int" name="KBLOCK">     1</i>
   <i type="int" name="NPACO">   256</i>
   <i name="APACO">     10.00000000</i>
  </separator>
  <separator name="symmetry" >
   <i type="int" name="ISYM">     2</i>
   <i name="SYMPREC">      0.00001000</i>
  </separator>
  <separator name="dos" >
   <i type="int" name="LORBIT">    11</i>
   <v name="RWIGS">     -1.00000000     -1.00000000</v>
   <i type="int" name="NEDOS">  2000</i>
   <i name="EMIN">     10.00000000</i>
   <i name="EMAX">    -10.00000000</i>
   <i name="EFERMI">      0.00000000</i>
  </separator>
  <separator name="writing" >
   <i type="int" name="NWRITE">     2</i>
   <i type="logical" name="LWAVE"> T  </i>
   <i type="logical" name="LDOWNSAMPLE"> F  </i>
   <i type="logical" name="LCHARG"> F  </i>
   <i type="logical" name="LPARD"> F  </i>
   <i type="logical" name="LVTOT"> T  </i>
   <i type="logical" name="LVHAR"> F  </i>
   <i type="logical" name="LELF"> F  </i>
   <i type="logical" name="LOPTICS"> T  </i>
   <v name="STM">      0.00000000      0.00000000      0.00000000      0.00000000      0.00000000      0.00000000      0.00000000</v>
  </separator>
  <separator name="performance" >
   <i type="int" name="NPAR">    12</i>
   <i type="int" name="NSIM">     4</i>
   <i type="int" name="NBLK">    -1</i>
   <i type="logical" name="LPLANE"> T  </i>
   <i type="logical" name="LSCALAPACK"> T  </i>
   <i type="logical" name="LSCAAWARE"> T  </i>
   <i type="logical" name="LSCALU"> F  </i>
   <i type="logical" name="LASYNC"> F  </i>
   <i type="logical" name="LORBITALREAL"> F  </i>
  </separator>
  <separator name="miscellaneous" >
   <i type="int" name="IDIOT">     3</i>
   <i type="int" name="PHON_NSTRUCT">    -1</i>
   <i type="logical" name="LMUSIC"> F  </i>
   <v name="POMASS">     63.54600000     16.00000000</v>
   <v name="DARWINR">      0.00000000      0.00000000</v>
   <v name="DARWINV">      1.00000000      1.00000000</v>
   <i type="logical" name="LCORR"> T  </i>
  </separator>
  <i type="logical" name="GGA_COMPAT"> T  </i>
  <i type="logical" name="LBERRY"> F  </i>
  <i type="int" name="ICORELEVEL">     0</i>
  <i type="logical" name="LDAU"> F  </i>
  <i type="int" name="I_CONSTRAINED_M">     0</i>
  <separator name="electronic exchange-correlation" >
   <i type="string" name="GGA">PS</i>
   <i type="int" name="VOSKOWN">     0</i>
   <i type="logical" name="LHFCALC"> F  </i>
   <i type="string" name="PRECFOCK"></i>
   <i type="logical" name="LSYMGRAD"> F  </i>
   <i type="logical" name="LHFONE"> F  </i>
   <i type="logical" name="LRHFCALC"> F  </i>
   <i type="logical" name="LTHOMAS"> F  </i>
   <i type="logical" name="LMODELHF"> F  </i>
   <i type="logical" name="LFOCKACE"> F  </i>
   <i name="ENCUT4O">     -1.00000000</i>
   <i type="int" name="EXXOEP">     0</i>
   <i type="int" name="FOURORBIT">     0</i>
   <i name="AEXX">      0.00000000</i>
   <i name="HFALPHA">      0.00000000</i>
   <i name="MCALPHA">      0.00000000</i>
   <i name="ALDAX">      1.00000000</i>
   <i name="AGGAX">      1.00000000</i>
   <i name="ALDAC">      1.00000000</i>
   <i name="AGGAC">      1.00000000</i>
   <i type="int" name="NKREDX">     1</i>
   <i type="int" name="NKREDY">     1</i>
   <i type="int" name="NKREDZ">     1</i>
   <i type="logical" name="SHIFTRED"> F  </i>
   <i type="logical" name="ODDONLY"> F  </i>
   <i type="logical" name="EVENONLY"> F  </i>
   <i type="int" name="LMAXFOCK">     0</i>
   <i type="int" name="NMAXFOCKAE">     0</i>
   <i type="logical" name="LFOCKAEDFT"> F  </i>
   <i name="HFSCREEN">      0.00000000</i>
   <i name="HFSCREENC">      0.00000000</i>
   <i type="int" name="NBANDSGWLOW">     0</i>
  </separator>
  <separator name="vdW DFT" >
   <i type="logical" name="LUSE_VDW"> F  </i>
   <i type="int" name="IVDW_NL">     1</i>
   <i type="logical" name="LSPIN_VDW"> F  </i>
   <i name="Zab_VDW">     -0.84910000</i>
   <i name="PARAM1">      0.12340000</i>
   <i name="PARAM2">      1.00000000</i>
   <i name="PARAM3">      0.00000000</i>
  </separator>
  <separator name="model GW" >
   <i type="int" name="MODEL_GW">     0</i>
   <i name="MODEL_EPS0">      7.65869083</i>
   <i name="MODEL_ALPHA">      1.00000000</i>
  </separator>
  <separator name="linear response parameters" >
   <i type="logical" name="LEPSILON"> F  </i>
   <i type="logical" name="LRPA"> F  </i>
   <i type="logical" name="LNABLA"> F  </i>
   <i type="logical" name="LVEL"> F  </i>
   <i name="CSHIFT">      0.00001000</i>
   <i name="OMEGAMAX">     -1.00000000</i>
   <i name="DEG_THRESHOLD">      0.00200000</i>
   <i name="RTIME">     -0.10000000</i>
   <i name="WPLASMAI">      0.00000000</i>
   <v name="DFIELD">      0.00000000      0.00000000      0.00000000</v>
   <v name="WPLASMA">      0.00000000      0.00000000      0.00000000      0.00000000      0.00000000      0.00000000      0.00000000      0.00000000      0.00000000</v>
  </separator>
  <separator name="orbital magnetization" >
   <i type="logical" name="NUCIND"> F  </i>
   <v name="MAGPOS">      0.00000000      0.00000000      0.00000000</v>
   <i type="logical" name="LNICSALL"> T  </i>
   <i type="logical" name="ORBITALMAG"> F  </i>
   <i type="logical" name="LMAGBLOCH"> F  </i>
   <i type="logical" name="LCHIMAG"> F  </i>
   <i type="logical" name="LGAUGE"> T  </i>
   <i type="int" name="MAGATOM">     0</i>
   <v name="MAGDIPOL">      0.00000000      0.00000000      0.00000000</v>
   <v name="AVECCONST">      0.00000000      0.00000000      0.00000000</v>
  </separator>
  <separator name="response functions" >
   <i type="logical" name="LALL_IN_ONE"> F  </i>
   <i type="int" name="IALL_IN_ONE">    -1</i>
   <i type="int" name="NBANDS_WAVE">    -1</i>
   <i type="logical" name="LFINITE_TEMPERATURE"> F  </i>
   <i type="logical" name="LADDER"> F  </i>
   <i type="logical" name="LRPAFORCE"> F  </i>
   <i type="logical" name="LFXC"> F  </i>
   <i type="logical" name="LHARTREE"> T  </i>
   <i type="int" name="IBSE">     0</i>
   <v type="int" name="KPOINT">    -1     0     0     0</v>
   <i type="logical" name="LTCTC"> F  </i>
   <i type="logical" name="LTCTE"> F  </i>
   <i type="logical" name="LTETE"> F  </i>
   <i type="logical" name="LTRIPLET"> F  </i>
   <i type="logical" name="LFXCEPS"> F  </i>
   <i type="logical" name="LFXHEG"> F  </i>
   <i type="int" name="NATURALO">     2</i>
   <i type="logical" name="LHOLEGF"> F  </i>
   <i type="logical" name="L2ORDER"> F  </i>
   <i type="logical" name="LDMP1"> F  </i>
   <i type="logical" name="LMP2LT"> F  </i>
   <i type="logical" name="LSMP2LT"> F  </i>
   <i type="logical" name="LGWLF"> F  </i>
   <i name="ENCUTGW">     -1.60000002</i>
   <i name="ENCUTGWSOFT">     -1.60000002</i>
   <i name="ENCUTLF">     -1.00000000</i>
   <i type="logical" name="LESF_SPLINES"> F  </i>
   <i type="int" name="LMAXMP2">    -1</i>
   <i name="SCISSOR">      0.00000000</i>
   <i type="int" name="NOMEGA">     0</i>
   <i type="int" name="NOMEGAR">     0</i>
   <i type="int" name="NBANDSGW">    -1</i>
   <i type="int" name="NBANDSO">    -1</i>
   <i type="int" name="NBANDSV">    -1</i>
   <i type="int" name="NELMGW">     1</i>
   <i type="int" name="NELMHF">     1</i>
   <i type="int" name="DIM">     3</i>
   <i type="int" name="IESPILON">     4</i>
   <i type="int" name="ANTIRES">     0</i>
   <i name="OMEGAMAX">    -30.00000000</i>
   <i name="OMEGAMIN">    -30.00000000</i>
   <i name="OMEGATL">   -200.00000000</i>
   <i type="int" name="OMEGAGRID">     0</i>
   <i name="CSHIFT">      0.00001000</i>
   <i type="logical" name="LSELFENERGY"> F  </i>
   <i type="logical" name="LSPECTRAL"> F  </i>
   <i type="logical" name="LSPECTRALGW"> F  </i>
   <i type="logical" name="LSINGLES"> F  </i>
   <i type="logical" name="LFERMIGW"> F  </i>
   <i type="logical" name="ODDONLYGW"> F  </i>
   <i type="logical" name="EVENONLYGW"> F  </i>
   <i type="int" name="NKREDLFX">     1</i>
   <i type="int" name="NKREDLFY">     1</i>
   <i type="int" name="NKREDLFZ">     1</i>
   <i type="int" name="MAXMEM">  2800</i>
   <i type="int" name="TELESCOPE">     0</i>
   <i type="int" name="NTAUPAR">    -1</i>
   <i type="int" name="NOMEGAPAR">    -1</i>
   <i name="DAMP_NEWTON">      0.80000001</i>
   <i name="LAMBDA">      1.00000000</i>
  </separator>
  <separator name="External order field" >
   <i name="OFIELD_KAPPA">      0.00000000</i>
   <v name="OFIELD_K">      0.00000000      0.00000000      0.00000000</v>
   <i name="OFIELD_Q6_NEAR">      0.00000000</i>
   <i name="OFIELD_Q6_FAR">      0.00000000</i>
   <i name="OFIELD_A">      0.00000000</i>
  </separator>
  <separator name="optional k-points parameters" >
   <i type="int" name="KPOINTS_OPT_MODE">     1</i>
   <i type="logical" name="LKPOINTS_OPT"> F  </i>
  </separator>
 </parameters>
 <atominfo>
  <atoms>       6 </atoms>
  <types>       2 </types>
  <array name="atoms" >
   <dimension dim="1">ion</dimension>
   <field type="string">element</field>
   <field type="int">atomtype</field>
   <set>
    <rc><c>Cu</c><c>   1</c></rc>
    <rc><c>Cu</c><c>   1</c></rc>
    <rc><c>Cu</c><c>   1</c></rc>
    <rc><c>Cu</c><c>   1</c></rc>
    <rc><c>O </c><c>   2</c></rc>
    <rc><c>O </c><c>   2</c></rc>
   </set>
  </array>
  <array name="atomtypes" >
   <dimension dim="1">type</dimension>
   <field type="int">atomspertype</field>
   <field type="string">element</field>
   <field>mass</field>
   <field>valence</field>
   <field type="string">pseudopotential</field>
   <set>
    <rc><c>   4</c><c>Cu</c><c>     63.54600000</c><c>     11.00000000</c><c>  PAW_PBE Cu 22Jun2005                  </c></rc>
    <rc><c>   2</c><c>O </c><c>     16.00000000</c><c>      6.00000000</c><c>  PAW_PBE O 08Apr2002                   </c></rc>
   </set>
  </array>
 </atominfo>
 <structure name="initialpos" >
  <crystal>
   <varray name="basis" >
    <v>       4.24669932       0.00000000       0.00000000 </v>
    <v>      -0.00000000       4.24669932       0.00000000 </v>
    <v>       0.00000000       0.00000000       4.24669932 </v>
   </varray>
   <i name="volume">     76.58690827 </i>
   <varray name="rec_basis" >
    <v>       0.23547700       0.00000000       0.00000000 </v>
    <v>       0.00000000       0.23547700       0.00000000 </v>
    <v>      -0.00000000      -0.00000000       0.23547700 </v>
   </varray>
  </crystal>
  <varray name="positions" >
   <v>       0.50000000       0.50000000       0.00000000 </v>
   <v>       0.00000000       0.50000000       0.50000000 </v>
   <v>       0.50000000       0.00000000       0.50000000 </v>
   <v>       0.00000000       0.00000000       0.00000000 </v>
   <v>       0.75000000       0.75000000       0.75000000 </v>
   <v>       0.25000000       0.25000000       0.25000000 </v>
  </varray>
 </structure>
 <calculation>
  <scstep>
   <time name="dav">    0.35    0.35</time>
   <time name="total">    0.51    0.51</time>
   <energy>
    <i name="alphaZ">    228.31989324 </i>
    <i name="ewald">  -4565.41384850 </i>
    <i name="hartreedc">  -1945.05206258 </i>
    <i name="XCdc">    238.82342125 </i>
    <i name="pawpsdc">   6222.26593270 </i>
    <i name="pawaedc">  -6658.39625299 </i>
    <i name="eentropy">      0.00000000 </i>
    <i name="bandstr">    589.97484926 </i>
    <i name="atom">   6422.53809314 </i>
    <i name="e_fr_energy">    533.06002552 </i>
    <i name="e_wo_entrp">    533.06002552 </i>
    <i name="e_0_energy">    533.06002552 </i>
   </energy>
  </scstep>
  <scstep>
   <time name="dav">    0.30    0.31</time>
   <time name="total">    0.32    0.32</time>
   <energy>
    <i name="e_fr_energy">     51.41772009 </i>
    <i name="e_wo_entrp">     51.41772009 </i>
    <i name="e_0_energy">     51.41772009 </i>
   </energy>
  </scstep>
  <scstep>
   <time name="dav">    0.31    0.33</time>
   <time name="total">    0.32    0.34</time>
   <energy>
    <i name="e_fr_energy">    -27.11969667 </i>
    <i name="e_wo_entrp">    -27.11969667 </i>
    <i name="e_0_energy">    -27.11969667 </i>
   </energy>
  </scstep>
  <scstep>
   <time name="dav">    0.29    0.30</time>
   <time name="total">    0.30    0.31</time>
   <energy>
    <i name="e_fr_energy">    -29.92347561 </i>
    <i name="e_wo_entrp">    -29.92347561 </i>
    <i name="e_0_energy">    -29.92347561 </i>
   </energy>
  </scstep>
  <scstep>
   <time name="dav">    0.32    0.33</time>
   <time name="total">    0.33    0.34</time>
   <energy>
    <i name="e_fr_energy">    -29.96969497 </i>
    <i name="e_wo_entrp">    -29.96969497 </i>
    <i name="e_0_energy">    -29.96969497 </i>
   </energy>
  </scstep>
  <scstep>
   <time name="diag">    0.12    0.14</time>
   <time name="diis">    0.05    0.05</time>
   <time name="orth">    0.01    0.01</time>
   <time name="total">    0.19    0.21</time>
   <energy>
    <i name="e_fr_energy">    -29.97092038 </i>
    <i name="e_wo_entrp">    -29.97092038 </i>
    <i name="e_0_energy">    -29.97092038 </i>
   </energy>
  </scstep>
  <scstep>
   <time name="diag">    0.10    0.12</time>
   <time name="diis">    0.05    0.05</time>
   <time name="orth">    0.02    0.02</time>
   <time name="total">    0.18    0.20</time>
   <energy>
    <i name="e_fr_energy">    -29.97120051 </i>
    <i name="e_wo_entrp">    -29.97120051 </i>
    <i name="e_0_energy">    -29.97120051 </i>
   </energy>
  </scstep>
  <scstep>
   <time name="diag">    0.10    0.12</time>
   <time name="diis">    0.05    0.05</time>
   <time name="orth">    0.02    0.02</time>
   <time name="total">    0.18    0.20</time>
   <energy>
    <i name="e_fr_energy">    -29.97122104 </i>
    <i name="e_wo_entrp">    -29.97122104 </i>
    <i name="e_0_energy">    -29.97122104 </i>
   </energy>
  </scstep>
  <scstep>
   <time name="diag">    0.12    0.13</time>
   <time name="diis">    0.03    0.03</time>
   <time name="orth">    0.01    0.01</time>
   <time name="total">    0.18    0.19</time>
   <energy>
    <i name="alphaZ">    228.31989324 </i>
    <i name="ewald">  -4565.41384850 </i>
    <i name="hartreedc">  -1945.05206258 </i>
    <i name="XCdc">    238.82342125 </i>
    <i name="pawpsdc">   6222.26593270 </i>
    <i name="pawaedc">  -6658.39625299 </i>
    <i name="eentropy">      0.00000000 </i>
    <i name="bandstr">     26.94360094 </i>
    <i name="atom">   6422.53809314 </i>
    <i name="e_fr_energy">    -29.97122281 </i>
    <i name="e_wo_entrp">    -29.97122281 </i>
    <i name="e_0_energy">    -29.97122281 </i>
   </energy>
  </scstep>
  <structure>
   <crystal>
    <varray name="basis" >
     <v>       4.24669932       0.00000000       0.00000000 </v>
     <v>      -0.00000000       4.24669932       0.00000000 </v>
     <v>       0.00000000       0.00000000       4.24669932 </v>
    </varray>
    <i name="volume">     76.58690827 </i>
    <varray name="rec_basis" >
     <v>       0.23547700       0.00000000       0.00000000 </v>
     <v>       0.00000000       0.23547700       0.00000000 </v>
     <v>      -0.00000000      -0.00000000       0.23547700 </v>
    </varray>
   </crystal>
   <varray name="positions" >
    <v>       0.50000000       0.50000000       0.00000000 </v>
    <v>       0.00000000       0.50000000       0.50000000 </v>
    <v>       0.50000000       0.00000000       0.50000000 </v>
    <v>       0.00000000       0.00000000       0.00000000 </v>
    <v>       0.75000000       0.75000000       0.75000000 </v>
    <v>       0.25000000       0.25000000       0.25000000 </v>
   </varray>
  </structure>
  <varray name="forces" >
   <v>       0.00000000       0.00000000       0.00000000 </v>
   <v>      -0.00000000      -0.00000000      -0.00000000 </v>
   <v>      -0.00000000      -0.00000000       0.00000000 </v>
   <v>      -0.00000000       0.00000000      -0.00000000 </v>
   <v>      -0.00000000       0.00000000       0.00000000 </v>
   <v>      -0.00000000      -0.00000000      -0.00000000 </v>
  </varray>
  <varray name="stress" >
   <v>     -18.98613716      -0.00000000      -0.00000000 </v>
   <v>       0.00000000     -18.98613716      -0.00000000 </v>
   <v>      -0.00000000      -0.00000000     -18.98613716 </v>
  </varray>
  <energy>
   <i name="e_fr_energy">    -29.97122281 </i>
   <i name="e_wo_entrp">    -29.97122281 </i>
   <i name="e_0_energy">    -29.97122281 </i>
  </energy>
  <time name="totalsc">    3.03    3.17</time>
  <eigenvalues>
   <array>
    <dimension dim="1">band</dimension>
    <dimension dim="2">kpoint</dimension>
    <dimension dim="3">spin</dimension>
    <field>eigene</field>
    <field>occ</field>
    <set>
     <set comment="spin 1">
      <set comment="kpoint 1">
       <r>  -15.4623    1.0000 </r>
       <r>  -14.6869    1.0000 </r>
       <r>   -2.6736    1.0000 </r>
       <r>   -2.6736    1.0000 </r>
       <r>   -2.6736    1.0000 </r>
       <r>   -0.2521    1.0000 </r>
       <r>   -0.1835    1.0000 </r>
       <r>   -0.1835    1.0000 </r>
       <r>   -0.1835    1.0000 </r>
       <r>    1.6363    1.0000 </r>
       <r>    1.6363    1.0000 </r>
       <r>    1.7567    1.0000 </r>
       <r>    1.7567    1.0000 </r>
       <r>    1.7567    1.0000 </r>
       <r>    2.6691    1.0000 </r>
       <r>    2.6691    1.0000 </r>
       <r>    2.7777    1.0000 </r>
       <r>    2.7777    1.0000 </r>
       <r>    2.7777    1.0000 </r>
       <r>    2.9333    1.0000 </r>
       <r>    2.9333    1.0000 </r>
       <r>    2.9333    1.0000 </r>
       <r>    3.1247    1.0000 </r>
       <r>    3.1247    1.0000 </r>
       <r>    3.1247    1.0000 </r>
       <r>    4.7131    1.0000 </r>
       <r>    4.7131    1.0000 </r>
       <r>    4.7131    1.0000 </r>
       <r>    5.2389    0.0000 </r>
       <r>    5.8620    0.0000 </r>
       <r>    5.8620    0.0000 </r>
       <r>   12.6723    0.0000 </r>
       <r>   12.6723    0.0000 </r>
       <r>   12.6723    0.0000 </r>
       <r>   14.0140    0.0000 </r>
       <r>   14.0140    0.0000 </r>
       <r>   14.0140    0.0000 </r>
       <r>   15.2347    0.0000 </r>
       <r>   17.3454    0.0000 </r>
       <r>   17.3454    0.0000 </r>
       <r>   17.3454    0.0000 </r>
       <r>   17.3852    0.0000 </r>
       <r>   17.3852    0.0000 </r>
       <r>   20.5129    0.0000 </r>
       <r>   20.5129    0.0000 </r>
       <r>   20.5133    0.0000 </r>
       <r>   21.2904    0.0000 </r>
       <r>   21.2904    0.0000 </r>
      </set>
      <set comment="kpoint 2">
       <r>  -15.4099    1.0000 </r>
       <r>  -14.7379    1.0000 </r>
       <r>   -2.6024    1.0000 </r>
       <r>   -2.5691    1.0000 </r>
       <r>   -2.5691    1.0000 </r>
       <r>   -0.7961    1.0000 </r>
       <r>   -0.4516    1.0000 </r>
       <r>   -0.4516    1.0000 </r>
       <r>    0.2162    1.0000 </r>
       <r>    1.6858    1.0000 </r>
       <r>    1.7578    1.0000 </r>
       <r>    1.7993    1.0000 </r>
       <r>    1.9563    1.0000 </r>
       <r>    1.9563    1.0000 </r>
       <r>    2.6561    1.0000 </r>
       <r>    2.6890    1.0000 </r>
       <r>    2.7170    1.0000 </r>
       <r>    2.8169    1.0000 </r>
       <r>    2.8169    1.0000 </r>
       <r>    2.8347    1.0000 </r>
       <r>    2.9878    1.0000 </r>
       <r>    2.9878    1.0000 </r>
       <r>    2.9882    1.0000 </r>
       <r>    3.1021    1.0000 </r>
       <r>    3.1021    1.0000 </r>
       <r>    3.8210    1.0000 </r>
       <r>    4.6433    1.0000 </r>
       <r>    4.6433    1.0000 </r>
       <r>    5.4818    0.0000 </r>
       <r>    6.3071    0.0000 </r>
       <r>    6.8156    0.0000 </r>
       <r>   12.1857    0.0000 </r>
       <r>   12.5384    0.0000 </r>
       <r>   12.5384    0.0000 </r>
       <r>   12.6736    0.0000 </r>
       <r>   13.4111    0.0000 </r>
       <r>   13.4111    0.0000 </r>
       <r>   16.2674    0.0000 </r>
       <r>   17.1999    0.0000 </r>
       <r>   17.5053    0.0000 </r>
       <r>   18.1350    0.0000 </r>
       <r>   18.1350    0.0000 </r>
       <r>   19.0775    0.0000 </r>
       <r>   19.9884    0.0000 </r>
       <r>   20.6507    0.0000 </r>
       <r>   20.8373    0.0000 </r>
       <r>   20.8375    0.0000 </r>
       <r>   21.3667    0.0000 </r>
      </set>
      <set comment="kpoint 3">
       <r>  -15.2667    1.0000 </r>
       <r>  -14.8783    1.0000 </r>
       <r>   -2.3798    1.0000 </r>
       <r>   -2.2883    1.0000 </r>
       <r>   -2.2883    1.0000 </r>
       <r>   -1.4380    1.0000 </r>
       <r>   -0.9766    1.0000 </r>
       <r>   -0.9766    1.0000 </r>
       <r>    0.6683    1.0000 </r>
       <r>    1.6596    1.0000 </r>
       <r>    1.8378    1.0000 </r>
       <r>    2.0788    1.0000 </r>
       <r>    2.2866    1.0000 </r>
       <r>    2.2866    1.0000 </r>
       <r>    2.4609    1.0000 </r>
       <r>    2.5322    1.0000 </r>
       <r>    2.6257    1.0000 </r>
       <r>    2.7438    1.0000 </r>
       <r>    2.7691    1.0000 </r>
       <r>    2.7691    1.0000 </r>
       <r>    2.8995    1.0000 </r>
       <r>    2.9423    1.0000 </r>
       <r>    3.0253    1.0000 </r>
       <r>    3.0253    1.0000 </r>
       <r>    3.2901    1.0000 </r>
       <r>    3.2901    1.0000 </r>
       <r>    4.4553    1.0000 </r>
       <r>    4.4553    1.0000 </r>
       <r>    6.1413    0.0000 </r>
       <r>    7.4006    0.0000 </r>
       <r>    7.4500    0.0000 </r>
       <r>   10.6897    0.0000 </r>
       <r>   12.2759    0.0000 </r>
       <r>   12.2759    0.0000 </r>
       <r>   12.3620    0.0000 </r>
       <r>   12.6250    0.0000 </r>
       <r>   12.6250    0.0000 </r>
       <r>   16.0211    0.0000 </r>
       <r>   17.5753    0.0000 </r>
       <r>   18.4585    0.0000 </r>
       <r>   19.1919    0.0000 </r>
       <r>   19.1919    0.0000 </r>
       <r>   19.2556    0.0000 </r>
       <r>   19.8096    0.0000 </r>
       <r>   20.5774    0.0000 </r>
       <r>   20.5774    0.0000 </r>
       <r>   22.1178    0.0000 </r>
       <r>   23.0553    0.0000 </r>
      </set>
      <set comment="kpoint 4">
       <r>  -15.0718    1.0000 </r>
       <r>  -15.0718    1.0000 </r>
       <r>   -2.0475    1.0000 </r>
       <r>   -2.0475    1.0000 </r>
       <r>   -1.9893    1.0000 </r>
       <r>   -1.9893    1.0000 </r>
       <r>   -1.3155    1.0000 </r>
       <r>   -1.3155    1.0000 </r>
       <r>    1.2210    1.0000 </r>
       <r>    1.2210    1.0000 </r>
       <r>    2.0988    1.0000 </r>
       <r>    2.0988    1.0000 </r>
       <r>    2.3009    1.0000 </r>
       <r>    2.3009    1.0000 </r>
       <r>    2.4999    1.0000 </r>
       <r>    2.4999    1.0000 </r>
       <r>    2.6450    1.0000 </r>
       <r>    2.6450    1.0000 </r>
       <r>    2.6487    1.0000 </r>
       <r>    2.6487    1.0000 </r>
       <r>    2.8198    1.0000 </r>
       <r>    2.8198    1.0000 </r>
       <r>    3.0073    1.0000 </r>
       <r>    3.0073    1.0000 </r>
       <r>    3.5044    1.0000 </r>
       <r>    3.5044    1.0000 </r>
       <r>    4.3063    1.0000 </r>
       <r>    4.3063    1.0000 </r>
       <r>    6.9723    0.0000 </r>
       <r>    6.9723    0.0000 </r>
       <r>    8.8939    0.0000 </r>
       <r>    8.8939    0.0000 </r>
       <r>   12.1504    0.0000 </r>
       <r>   12.1504    0.0000 </r>
       <r>   12.3236    0.0000 </r>
       <r>   12.3236    0.0000 </r>
       <r>   13.9908    0.0000 </r>
       <r>   13.9908    0.0000 </r>
       <r>   18.3356    0.0000 </r>
       <r>   18.3356    0.0000 </r>
       <r>   19.6589    0.0000 </r>
       <r>   19.6589    0.0000 </r>
       <r>   19.8221    0.0000 </r>
       <r>   19.8221    0.0000 </r>
       <r>   20.1138    0.0000 </r>
       <r>   20.1138    0.0000 </r>
       <r>   24.3488    0.0000 </r>
       <r>   24.3518    0.0000 </r>
      </set>
      <set comment="kpoint 5">
       <r>  -15.3631    1.0000 </r>
       <r>  -14.7806    1.0000 </r>
       <r>   -2.6974    1.0000 </r>
       <r>   -2.4817    1.0000 </r>
       <r>   -2.3198    1.0000 </r>
       <r>   -1.2003    1.0000 </r>
       <r>   -0.6410    1.0000 </r>
       <r>   -0.4293    1.0000 </r>
       <r>    0.3400    1.0000 </r>
       <r>    1.7307    1.0000 </r>
       <r>    1.8099    1.0000 </r>
       <r>    1.8836    1.0000 </r>
       <r>    2.0056    1.0000 </r>
       <r>    2.1101    1.0000 </r>
       <r>    2.6442    1.0000 </r>
       <r>    2.6663    1.0000 </r>
       <r>    2.6970    1.0000 </r>
       <r>    2.7250    1.0000 </r>
       <r>    2.8673    1.0000 </r>
       <r>    2.9064    1.0000 </r>
       <r>    2.9318    1.0000 </r>
       <r>    2.9364    1.0000 </r>
       <r>    2.9838    1.0000 </r>
       <r>    3.0312    1.0000 </r>
       <r>    3.1030    1.0000 </r>
       <r>    3.7362    1.0000 </r>
       <r>    4.2824    1.0000 </r>
       <r>    4.5772    1.0000 </r>
       <r>    5.7063    0.0000 </r>
       <r>    6.8217    0.0000 </r>
       <r>    7.2021    0.0000 </r>
       <r>   11.3281    0.0000 </r>
       <r>   11.4821    0.0000 </r>
       <r>   12.4110    0.0000 </r>
       <r>   12.8835    0.0000 </r>
       <r>   13.4566    0.0000 </r>
       <r>   13.6267    0.0000 </r>
       <r>   16.8239    0.0000 </r>
       <r>   17.2897    0.0000 </r>
       <r>   17.3945    0.0000 </r>
       <r>   18.1327    0.0000 </r>
       <r>   19.0819    0.0000 </r>
       <r>   19.2875    0.0000 </r>
       <r>   19.5882    0.0000 </r>
       <r>   20.4760    0.0000 </r>
       <r>   20.6052    0.0000 </r>
       <r>   21.6391    0.0000 </r>
       <r>   21.6876    0.0000 </r>
      </set>
      <set comment="kpoint 6">
       <r>  -15.2363    1.0000 </r>
       <r>  -14.8994    1.0000 </r>
       <r>   -2.6301    1.0000 </r>
       <r>   -2.2876    1.0000 </r>
       <r>   -1.9476    1.0000 </r>
       <r>   -1.7005    1.0000 </r>
       <r>   -1.0466    1.0000 </r>
       <r>   -0.7992    1.0000 </r>
       <r>    0.7585    1.0000 </r>
       <r>    1.7279    1.0000 </r>
       <r>    1.8496    1.0000 </r>
       <r>    2.1111    1.0000 </r>
       <r>    2.1758    1.0000 </r>
       <r>    2.3433    1.0000 </r>
       <r>    2.4226    1.0000 </r>
       <r>    2.4884    1.0000 </r>
       <r>    2.5836    1.0000 </r>
       <r>    2.7118    1.0000 </r>
       <r>    2.7544    1.0000 </r>
       <r>    2.8250    1.0000 </r>
       <r>    2.8748    1.0000 </r>
       <r>    2.9013    1.0000 </r>
       <r>    3.0209    1.0000 </r>
       <r>    3.1985    1.0000 </r>
       <r>    3.2776    1.0000 </r>
       <r>    3.3399    1.0000 </r>
       <r>    4.2392    1.0000 </r>
       <r>    4.3994    1.0000 </r>
       <r>    6.2864    0.0000 </r>
       <r>    7.3486    0.0000 </r>
       <r>    7.8037    0.0000 </r>
       <r>    9.9931    0.0000 </r>
       <r>   11.2288    0.0000 </r>
       <r>   12.1314    0.0000 </r>
       <r>   12.3012    0.0000 </r>
       <r>   12.9457    0.0000 </r>
       <r>   14.0512    0.0000 </r>
       <r>   16.9613    0.0000 </r>
       <r>   17.2532    0.0000 </r>
       <r>   17.6624    0.0000 </r>
       <r>   18.5483    0.0000 </r>
       <r>   18.5553    0.0000 </r>
       <r>   19.5757    0.0000 </r>
       <r>   20.6376    0.0000 </r>
       <r>   20.6450    0.0000 </r>
       <r>   21.0788    0.0000 </r>
       <r>   22.0633    0.0000 </r>
       <r>   23.1409    0.0000 </r>
      </set>
      <set comment="kpoint 7">
       <r>  -15.0659    1.0000 </r>
       <r>  -15.0659    1.0000 </r>
       <r>   -2.3967    1.0000 </r>
       <r>   -2.3967    1.0000 </r>
       <r>   -1.7341    1.0000 </r>
       <r>   -1.7341    1.0000 </r>
       <r>   -1.2154    1.0000 </r>
       <r>   -1.2154    1.0000 </r>
       <r>    1.2968    1.0000 </r>
       <r>    1.2968    1.0000 </r>
       <r>    2.0640    1.0000 </r>
       <r>    2.0640    1.0000 </r>
       <r>    2.2884    1.0000 </r>
       <r>    2.2884    1.0000 </r>
       <r>    2.4048    1.0000 </r>
       <r>    2.4048    1.0000 </r>
       <r>    2.6198    1.0000 </r>
       <r>    2.6198    1.0000 </r>
       <r>    2.7834    1.0000 </r>
       <r>    2.7834    1.0000 </r>
       <r>    2.8144    1.0000 </r>
       <r>    2.8144    1.0000 </r>
       <r>    3.0590    1.0000 </r>
       <r>    3.0590    1.0000 </r>
       <r>    3.4716    1.0000 </r>
       <r>    3.4716    1.0000 </r>
       <r>    4.2301    1.0000 </r>
       <r>    4.2301    1.0000 </r>
       <r>    6.9986    0.0000 </r>
       <r>    6.9986    0.0000 </r>
       <r>    8.7052    0.0000 </r>
       <r>    8.7052    0.0000 </r>
       <r>   12.0175    0.0000 </r>
       <r>   12.0175    0.0000 </r>
       <r>   12.0552    0.0000 </r>
       <r>   12.0552    0.0000 </r>
       <r>   15.1730    0.0000 </r>
       <r>   15.1730    0.0000 </r>
       <r>   17.7588    0.0000 </r>
       <r>   17.7588    0.0000 </r>
       <r>   18.3917    0.0000 </r>
       <r>   18.3917    0.0000 </r>
       <r>   20.2780    0.0000 </r>
       <r>   20.2780    0.0000 </r>
       <r>   21.5171    0.0000 </r>
       <r>   21.5171    0.0000 </r>
       <r>   23.9095    0.0000 </r>
       <r>   23.9100    0.0000 </r>
      </set>
      <set comment="kpoint 8">
       <r>  -15.1562    1.0000 </r>
       <r>  -14.9610    1.0000 </r>
       <r>   -2.7608    1.0000 </r>
       <r>   -2.4533    1.0000 </r>
       <r>   -1.7999    1.0000 </r>
       <r>   -1.5986    1.0000 </r>
       <r>   -1.1797    1.0000 </r>
       <r>   -0.7933    1.0000 </r>
       <r>    1.0665    1.0000 </r>
       <r>    1.8050    1.0000 </r>
       <r>    1.8889    1.0000 </r>
       <r>    2.0199    1.0000 </r>
       <r>    2.2397    1.0000 </r>
       <r>    2.3113    1.0000 </r>
       <r>    2.3856    1.0000 </r>
       <r>    2.3982    1.0000 </r>
       <r>    2.5509    1.0000 </r>
       <r>    2.6510    1.0000 </r>
       <r>    2.7048    1.0000 </r>
       <r>    2.8150    1.0000 </r>
       <r>    2.8710    1.0000 </r>
       <r>    2.8860    1.0000 </r>
       <r>    3.0996    1.0000 </r>
       <r>    3.3067    1.0000 </r>
       <r>    3.3367    1.0000 </r>
       <r>    3.3803    1.0000 </r>
       <r>    4.0487    1.0000 </r>
       <r>    4.2550    1.0000 </r>
       <r>    6.5597    0.0000 </r>
       <r>    7.0824    0.0000 </r>
       <r>    8.2808    0.0000 </r>
       <r>    9.0600    0.0000 </r>
       <r>   11.3693    0.0000 </r>
       <r>   11.8089    0.0000 </r>
       <r>   11.8601    0.0000 </r>
       <r>   13.1729    0.0000 </r>
       <r>   15.7215    0.0000 </r>
       <r>   16.3930    0.0000 </r>
       <r>   17.0528    0.0000 </r>
       <r>   17.7246    0.0000 </r>
       <r>   17.9027    0.0000 </r>
       <r>   18.5240    0.0000 </r>
       <r>   19.6799    0.0000 </r>
       <r>   19.8019    0.0000 </r>
       <r>   21.9113    0.0000 </r>
       <r>   22.6281    0.0000 </r>
       <r>   23.5816    0.0000 </r>
       <r>   23.7707    0.0000 </r>
      </set>
      <set comment="kpoint 9">
       <r>  -15.0540    1.0000 </r>
       <r>  -15.0540    1.0000 </r>
       <r>   -2.6911    1.0000 </r>
       <r>   -2.6911    1.0000 </r>
       <r>   -1.6289    1.0000 </r>
       <r>   -1.6289    1.0000 </r>
       <r>   -1.0235    1.0000 </r>
       <r>   -1.0235    1.0000 </r>
       <r>    1.4963    1.0000 </r>
       <r>    1.4963    1.0000 </r>
       <r>    1.9671    1.0000 </r>
       <r>    1.9671    1.0000 </r>
       <r>    2.3380    1.0000 </r>
       <r>    2.3380    1.0000 </r>
       <r>    2.3536    1.0000 </r>
       <r>    2.3536    1.0000 </r>
       <r>    2.5594    1.0000 </r>
       <r>    2.5594    1.0000 </r>
       <r>    2.7873    1.0000 </r>
       <r>    2.7873    1.0000 </r>
       <r>    2.8130    1.0000 </r>
       <r>    2.8130    1.0000 </r>
       <r>    3.1814    1.0000 </r>
       <r>    3.1814    1.0000 </r>
       <r>    3.4540    1.0000 </r>
       <r>    3.4540    1.0000 </r>
       <r>    4.0999    1.0000 </r>
       <r>    4.0999    1.0000 </r>
       <r>    6.7891    0.0000 </r>
       <r>    6.7891    0.0000 </r>
       <r>    8.5497    0.0000 </r>
       <r>    8.5497    0.0000 </r>
       <r>   11.6577    0.0000 </r>
       <r>   11.6577    0.0000 </r>
       <r>   12.4626    0.0000 </r>
       <r>   12.4626    0.0000 </r>
       <r>   16.5235    0.0000 </r>
       <r>   16.5235    0.0000 </r>
       <r>   17.1950    0.0000 </r>
       <r>   17.1950    0.0000 </r>
       <r>   17.3394    0.0000 </r>
       <r>   17.3394    0.0000 </r>
       <r>   20.9903    0.0000 </r>
       <r>   20.9903    0.0000 </r>
       <r>   22.7199    0.0000 </r>
       <r>   22.7199    0.0000 </r>
       <r>   23.5841    0.0000 </r>
       <r>   23.5842    0.0000 </r>
      </set>
      <set comment="kpoint 10">
       <r>  -15.0480    1.0000 </r>
       <r>  -15.0480    1.0000 </r>
       <r>   -2.8008    1.0000 </r>
       <r>   -2.8008    1.0000 </r>
       <r>   -1.6053    1.0000 </r>
       <r>   -1.6053    1.0000 </r>
       <r>   -0.9411    1.0000 </r>
       <r>   -0.9411    1.0000 </r>
       <r>    1.6463    1.0000 </r>
       <r>    1.6463    1.0000 </r>
       <r>    1.8911    1.0000 </r>
       <r>    1.8911    1.0000 </r>
       <r>    2.3688    1.0000 </r>
       <r>    2.3688    1.0000 </r>
       <r>    2.4118    1.0000 </r>
       <r>    2.4118    1.0000 </r>
       <r>    2.4862    1.0000 </r>
       <r>    2.4862    1.0000 </r>
       <r>    2.7600    1.0000 </r>
       <r>    2.7600    1.0000 </r>
       <r>    2.7725    1.0000 </r>
       <r>    2.7725    1.0000 </r>
       <r>    3.2170    1.0000 </r>
       <r>    3.2170    1.0000 </r>
       <r>    3.4897    1.0000 </r>
       <r>    3.4897    1.0000 </r>
       <r>    4.0426    1.0000 </r>
       <r>    4.0426    1.0000 </r>
       <r>    6.5841    0.0000 </r>
       <r>    6.5841    0.0000 </r>
       <r>    8.5582    0.0000 </r>
       <r>    8.5582    0.0000 </r>
       <r>   11.4893    0.0000 </r>
       <r>   11.4893    0.0000 </r>
       <r>   13.0320    0.0000 </r>
       <r>   13.0320    0.0000 </r>
       <r>   15.5811    0.0000 </r>
       <r>   15.5811    0.0000 </r>
       <r>   17.0726    0.0000 </r>
       <r>   17.0726    0.0000 </r>
       <r>   18.3487    0.0000 </r>
       <r>   18.3487    0.0000 </r>
       <r>   21.6224    0.0000 </r>
       <r>   21.6224    0.0000 </r>
       <r>   22.4144    0.0000 </r>
       <r>   22.4144    0.0000 </r>
       <r>   23.2091    0.0000 </r>
       <r>   23.2092    0.0000 </r>
      </set>
      <set comment="kpoint 11">
       <r>  -15.3232    1.0000 </r>
       <r>  -14.8145    1.0000 </r>
       <r>   -2.6035    1.0000 </r>
       <r>   -2.6035    1.0000 </r>
       <r>   -2.0916    1.0000 </r>
       <r>   -1.4813    1.0000 </r>
       <r>   -0.6202    1.0000 </r>
       <r>   -0.6202    1.0000 </r>
       <r>    0.4732    1.0000 </r>
       <r>    1.7693    1.0000 </r>
       <r>    1.7693    1.0000 </r>
       <r>    2.0898    1.0000 </r>
       <r>    2.0898    1.0000 </r>
       <r>    2.1149    1.0000 </r>
       <r>    2.6204    1.0000 </r>
       <r>    2.6204    1.0000 </r>
       <r>    2.6431    1.0000 </r>
       <r>    2.6431    1.0000 </r>
       <r>    2.8462    1.0000 </r>
       <r>    2.9200    1.0000 </r>
       <r>    2.9200    1.0000 </r>
       <r>    2.9937    1.0000 </r>
       <r>    3.0105    1.0000 </r>
       <r>    3.0193    1.0000 </r>
       <r>    3.0193    1.0000 </r>
       <r>    3.9209    1.0000 </r>
       <r>    3.9209    1.0000 </r>
       <r>    4.4889    1.0000 </r>
       <r>    5.9218    0.0000 </r>
       <r>    7.3327    0.0000 </r>
       <r>    7.3327    0.0000 </r>
       <r>   10.4847    0.0000 </r>
       <r>   11.3514    0.0000 </r>
       <r>   11.3514    0.0000 </r>
       <r>   13.3215    0.0000 </r>
       <r>   13.3215    0.0000 </r>
       <r>   14.9242    0.0000 </r>
       <r>   16.4573    0.0000 </r>
       <r>   17.3271    0.0000 </r>
       <r>   17.7761    0.0000 </r>
       <r>   17.7761    0.0000 </r>
       <r>   18.5814    0.0000 </r>
       <r>   19.4973    0.0000 </r>
       <r>   19.4973    0.0000 </r>
       <r>   21.0278    0.0000 </r>
       <r>   21.4137    0.0000 </r>
       <r>   21.4138    0.0000 </r>
       <r>   22.4554    0.0000 </r>
      </set>
      <set comment="kpoint 12">
       <r>  -15.2184    1.0000 </r>
       <r>  -14.9072    1.0000 </r>
       <r>   -2.6348    1.0000 </r>
       <r>   -2.3626    1.0000 </r>
       <r>   -2.0296    1.0000 </r>
       <r>   -1.6210    1.0000 </r>
       <r>   -1.0205    1.0000 </r>
       <r>   -0.8270    1.0000 </r>
       <r>    0.8534    1.0000 </r>
       <r>    1.7395    1.0000 </r>
       <r>    1.8345    1.0000 </r>
       <r>    2.1397    1.0000 </r>
       <r>    2.2833    1.0000 </r>
       <r>    2.2897    1.0000 </r>
       <r>    2.4234    1.0000 </r>
       <r>    2.4314    1.0000 </r>
       <r>    2.5171    1.0000 </r>
       <r>    2.6771    1.0000 </r>
       <r>    2.7397    1.0000 </r>
       <r>    2.8682    1.0000 </r>
       <r>    2.9071    1.0000 </r>
       <r>    2.9631    1.0000 </r>
       <r>    2.9645    1.0000 </r>
       <r>    3.2038    1.0000 </r>
       <r>    3.2252    1.0000 </r>
       <r>    3.4921    1.0000 </r>
       <r>    4.1258    1.0000 </r>
       <r>    4.3020    1.0000 </r>
       <r>    6.4536    0.0000 </r>
       <r>    7.6674    0.0000 </r>
       <r>    7.7377    0.0000 </r>
       <r>    9.8446    0.0000 </r>
       <r>   10.1372    0.0000 </r>
       <r>   11.0758    0.0000 </r>
       <r>   13.3264    0.0000 </r>
       <r>   14.2696    0.0000 </r>
       <r>   14.5007    0.0000 </r>
       <r>   16.0390    0.0000 </r>
       <r>   17.2647    0.0000 </r>
       <r>   17.4507    0.0000 </r>
       <r>   18.6994    0.0000 </r>
       <r>   18.9641    0.0000 </r>
       <r>   19.1546    0.0000 </r>
       <r>   20.4463    0.0000 </r>
       <r>   21.1549    0.0000 </r>
       <r>   21.1602    0.0000 </r>
       <r>   22.6089    0.0000 </r>
       <r>   23.3989    0.0000 </r>
      </set>
      <set comment="kpoint 13">
       <r>  -15.1217    1.0000 </r>
       <r>  -14.9978    1.0000 </r>
       <r>   -2.5717    1.0000 </r>
       <r>   -2.2523    1.0000 </r>
       <r>   -2.1830    1.0000 </r>
       <r>   -1.3235    1.0000 </r>
       <r>   -1.2677    1.0000 </r>
       <r>   -1.1153    1.0000 </r>
       <r>    1.2888    1.0000 </r>
       <r>    1.4161    1.0000 </r>
       <r>    1.9281    1.0000 </r>
       <r>    2.1640    1.0000 </r>
       <r>    2.2137    1.0000 </r>
       <r>    2.3404    1.0000 </r>
       <r>    2.3968    1.0000 </r>
       <r>    2.4347    1.0000 </r>
       <r>    2.4758    1.0000 </r>
       <r>    2.6528    1.0000 </r>
       <r>    2.7899    1.0000 </r>
       <r>    2.8513    1.0000 </r>
       <r>    2.8681    1.0000 </r>
       <r>    2.8927    1.0000 </r>
       <r>    2.9384    1.0000 </r>
       <r>    3.2138    1.0000 </r>
       <r>    3.3293    1.0000 </r>
       <r>    3.5370    1.0000 </r>
       <r>    4.1554    1.0000 </r>
       <r>    4.1811    1.0000 </r>
       <r>    7.0059    0.0000 </r>
       <r>    7.2485    0.0000 </r>
       <r>    8.1925    0.0000 </r>
       <r>    9.0254    0.0000 </r>
       <r>   10.4291    0.0000 </r>
       <r>   10.8736    0.0000 </r>
       <r>   13.4985    0.0000 </r>
       <r>   13.9024    0.0000 </r>
       <r>   15.1585    0.0000 </r>
       <r>   15.5115    0.0000 </r>
       <r>   16.6375    0.0000 </r>
       <r>   16.9655    0.0000 </r>
       <r>   19.0995    0.0000 </r>
       <r>   19.6126    0.0000 </r>
       <r>   19.7614    0.0000 </r>
       <r>   20.3744    0.0000 </r>
       <r>   21.1069    0.0000 </r>
       <r>   22.4273    0.0000 </r>
       <r>   22.8907    0.0000 </r>
       <r>   24.6207    0.0000 </r>
      </set>
      <set comment="kpoint 14">
       <r>  -15.1785    1.0000 </r>
       <r>  -14.9267    1.0000 </r>
       <r>   -2.6923    1.0000 </r>
       <r>   -2.4712    1.0000 </r>
       <r>   -2.1403    1.0000 </r>
       <r>   -1.3560    1.0000 </r>
       <r>   -1.1340    1.0000 </r>
       <r>   -0.8776    1.0000 </r>
       <r>    1.1200    1.0000 </r>
       <r>    1.7265    1.0000 </r>
       <r>    1.7788    1.0000 </r>
       <r>    2.1735    1.0000 </r>
       <r>    2.2931    1.0000 </r>
       <r>    2.3609    1.0000 </r>
       <r>    2.3670    1.0000 </r>
       <r>    2.4047    1.0000 </r>
       <r>    2.4898    1.0000 </r>
       <r>    2.6477    1.0000 </r>
       <r>    2.6850    1.0000 </r>
       <r>    2.8385    1.0000 </r>
       <r>    2.9221    1.0000 </r>
       <r>    2.9387    1.0000 </r>
       <r>    3.0889    1.0000 </r>
       <r>    3.1351    1.0000 </r>
       <r>    3.3547    1.0000 </r>
       <r>    3.5904    1.0000 </r>
       <r>    4.0202    1.0000 </r>
       <r>    4.1475    1.0000 </r>
       <r>    6.6987    0.0000 </r>
       <r>    7.4568    0.0000 </r>
       <r>    8.1558    0.0000 </r>
       <r>    9.0072    0.0000 </r>
       <r>    9.9117    0.0000 </r>
       <r>   10.5409    0.0000 </r>
       <r>   13.7894    0.0000 </r>
       <r>   15.0437    0.0000 </r>
       <r>   15.1460    0.0000 </r>
       <r>   15.8709    0.0000 </r>
       <r>   16.0270    0.0000 </r>
       <r>   18.0617    0.0000 </r>
       <r>   18.6846    0.0000 </r>
       <r>   19.1994    0.0000 </r>
       <r>   19.8958    0.0000 </r>
       <r>   20.2482    0.0000 </r>
       <r>   20.4410    0.0000 </r>
       <r>   22.9188    0.0000 </r>
       <r>   23.3484    0.0000 </r>
       <r>   24.6491    0.0000 </r>
      </set>
      <set comment="kpoint 15">
       <r>  -15.1553    1.0000 </r>
       <r>  -14.9397    1.0000 </r>
       <r>   -2.6997    1.0000 </r>
       <r>   -2.6038    1.0000 </r>
       <r>   -2.0778    1.0000 </r>
       <r>   -1.3035    1.0000 </r>
       <r>   -1.0570    1.0000 </r>
       <r>   -1.0196    1.0000 </r>
       <r>    1.4014    1.0000 </r>
       <r>    1.5381    1.0000 </r>
       <r>    1.7684    1.0000 </r>
       <r>    2.1631    1.0000 </r>
       <r>    2.3037    1.0000 </r>
       <r>    2.3417    1.0000 </r>
       <r>    2.4066    1.0000 </r>
       <r>    2.4342    1.0000 </r>
       <r>    2.4802    1.0000 </r>
       <r>    2.5853    1.0000 </r>
       <r>    2.7621    1.0000 </r>
       <r>    2.8203    1.0000 </r>
       <r>    2.8780    1.0000 </r>
       <r>    2.9209    1.0000 </r>
       <r>    3.0689    1.0000 </r>
       <r>    3.1803    1.0000 </r>
       <r>    3.4514    1.0000 </r>
       <r>    3.5762    1.0000 </r>
       <r>    3.9989    1.0000 </r>
       <r>    4.1164    1.0000 </r>
       <r>    6.6600    0.0000 </r>
       <r>    7.4790    0.0000 </r>
       <r>    8.1245    0.0000 </r>
       <r>    8.6825    0.0000 </r>
       <r>   10.1314    0.0000 </r>
       <r>   10.4329    0.0000 </r>
       <r>   14.2108    0.0000 </r>
       <r>   14.4029    0.0000 </r>
       <r>   15.1141    0.0000 </r>
       <r>   15.4487    0.0000 </r>
       <r>   17.4273    0.0000 </r>
       <r>   17.4653    0.0000 </r>
       <r>   18.1747    0.0000 </r>
       <r>   18.8987    0.0000 </r>
       <r>   20.4415    0.0000 </r>
       <r>   21.2248    0.0000 </r>
       <r>   21.8351    0.0000 </r>
       <r>   23.1564    0.0000 </r>
       <r>   23.3451    0.0000 </r>
       <r>   23.8680    0.0000 </r>
      </set>
      <set comment="kpoint 16">
       <r>  -15.1662    1.0000 </r>
       <r>  -14.9165    1.0000 </r>
       <r>   -2.7468    1.0000 </r>
       <r>   -2.7468    1.0000 </r>
       <r>   -2.0291    1.0000 </r>
       <r>   -1.3054    1.0000 </r>
       <r>   -0.9797    1.0000 </r>
       <r>   -0.9797    1.0000 </r>
       <r>    1.5726    1.0000 </r>
       <r>    1.5726    1.0000 </r>
       <r>    1.6024    1.0000 </r>
       <r>    2.1631    1.0000 </r>
       <r>    2.3244    1.0000 </r>
       <r>    2.3674    1.0000 </r>
       <r>    2.3674    1.0000 </r>
       <r>    2.5123    1.0000 </r>
       <r>    2.5422    1.0000 </r>
       <r>    2.5422    1.0000 </r>
       <r>    2.7245    1.0000 </r>
       <r>    2.7778    1.0000 </r>
       <r>    2.8658    1.0000 </r>
       <r>    2.9101    1.0000 </r>
       <r>    3.1325    1.0000 </r>
       <r>    3.1325    1.0000 </r>
       <r>    3.6069    1.0000 </r>
       <r>    3.6069    1.0000 </r>
       <r>    3.9185    1.0000 </r>
       <r>    4.0902    1.0000 </r>
       <r>    6.2808    0.0000 </r>
       <r>    7.5653    0.0000 </r>
       <r>    8.3157    0.0000 </r>
       <r>    8.3157    0.0000 </r>
       <r>   10.3556    0.0000 </r>
       <r>   10.3556    0.0000 </r>
       <r>   14.2628    0.0000 </r>
       <r>   14.6032    0.0000 </r>
       <r>   14.9304    0.0000 </r>
       <r>   14.9304    0.0000 </r>
       <r>   17.6316    0.0000 </r>
       <r>   18.3101    0.0000 </r>
       <r>   18.4499    0.0000 </r>
       <r>   18.6965    0.0000 </r>
       <r>   21.2466    0.0000 </r>
       <r>   21.2466    0.0000 </r>
       <r>   22.0878    0.0000 </r>
       <r>   23.3953    0.0000 </r>
       <r>   23.4962    0.0000 </r>
       <r>   23.4970    0.0000 </r>
      </set>
      <set comment="kpoint 17">
       <r>  -15.2099    1.0000 </r>
       <r>  -14.8712    1.0000 </r>
       <r>   -2.5364    1.0000 </r>
       <r>   -2.5364    1.0000 </r>
       <r>   -2.4708    1.0000 </r>
       <r>   -1.1626    1.0000 </r>
       <r>   -1.0579    1.0000 </r>
       <r>   -1.0579    1.0000 </r>
       <r>    1.2530    1.0000 </r>
       <r>    1.6283    1.0000 </r>
       <r>    1.6283    1.0000 </r>
       <r>    2.2414    1.0000 </r>
       <r>    2.2414    1.0000 </r>
       <r>    2.3889    1.0000 </r>
       <r>    2.3889    1.0000 </r>
       <r>    2.4820    1.0000 </r>
       <r>    2.5373    1.0000 </r>
       <r>    2.6555    1.0000 </r>
       <r>    2.6555    1.0000 </r>
       <r>    2.9570    1.0000 </r>
       <r>    2.9605    1.0000 </r>
       <r>    2.9605    1.0000 </r>
       <r>    3.0225    1.0000 </r>
       <r>    3.0225    1.0000 </r>
       <r>    3.4746    1.0000 </r>
       <r>    3.9315    1.0000 </r>
       <r>    3.9315    1.0000 </r>
       <r>    3.9437    1.0000 </r>
       <r>    7.0554    0.0000 </r>
       <r>    7.7169    0.0000 </r>
       <r>    7.7169    0.0000 </r>
       <r>    8.7826    0.0000 </r>
       <r>    9.6079    0.0000 </r>
       <r>    9.6079    0.0000 </r>
       <r>   13.8758    0.0000 </r>
       <r>   14.4354    0.0000 </r>
       <r>   16.1495    0.0000 </r>
       <r>   16.1495    0.0000 </r>
       <r>   17.3513    0.0000 </r>
       <r>   18.9900    0.0000 </r>
       <r>   18.9900    0.0000 </r>
       <r>   19.3361    0.0000 </r>
       <r>   19.3361    0.0000 </r>
       <r>   19.9964    0.0000 </r>
       <r>   22.0089    0.0000 </r>
       <r>   22.0089    0.0000 </r>
       <r>   23.3987    0.0000 </r>
       <r>   25.3897    0.0000 </r>
      </set>
      <set comment="kpoint 18">
       <r>  -15.2221    1.0000 </r>
       <r>  -14.8468    1.0000 </r>
       <r>   -2.6579    1.0000 </r>
       <r>   -2.5082    1.0000 </r>
       <r>   -2.4444    1.0000 </r>
       <r>   -1.1590    1.0000 </r>
       <r>   -1.0761    1.0000 </r>
       <r>   -1.0426    1.0000 </r>
       <r>    1.3881    1.0000 </r>
       <r>    1.4914    1.0000 </r>
       <r>    1.5912    1.0000 </r>
       <r>    2.2146    1.0000 </r>
       <r>    2.2290    1.0000 </r>
       <r>    2.3617    1.0000 </r>
       <r>    2.3991    1.0000 </r>
       <r>    2.4811    1.0000 </r>
       <r>    2.5962    1.0000 </r>
       <r>    2.6301    1.0000 </r>
       <r>    2.7510    1.0000 </r>
       <r>    2.9274    1.0000 </r>
       <r>    2.9597    1.0000 </r>
       <r>    2.9783    1.0000 </r>
       <r>    3.0009    1.0000 </r>
       <r>    3.0394    1.0000 </r>
       <r>    3.6975    1.0000 </r>
       <r>    3.7774    1.0000 </r>
       <r>    3.8425    1.0000 </r>
       <r>    4.1228    1.0000 </r>
       <r>    7.0218    0.0000 </r>
       <r>    7.3938    0.0000 </r>
       <r>    7.7888    0.0000 </r>
       <r>    8.8257    0.0000 </r>
       <r>    9.3916    0.0000 </r>
       <r>    9.8305    0.0000 </r>
       <r>   13.3425    0.0000 </r>
       <r>   13.7959    0.0000 </r>
       <r>   16.6538    0.0000 </r>
       <r>   17.1540    0.0000 </r>
       <r>   17.9891    0.0000 </r>
       <r>   18.0345    0.0000 </r>
       <r>   19.1574    0.0000 </r>
       <r>   19.5490    0.0000 </r>
       <r>   20.3337    0.0000 </r>
       <r>   20.6697    0.0000 </r>
       <r>   21.8519    0.0000 </r>
       <r>   22.7184    0.0000 </r>
       <r>   23.8560    0.0000 </r>
       <r>   24.0240    0.0000 </r>
      </set>
      <set comment="kpoint 19">
       <r>  -15.2451    1.0000 </r>
       <r>  -14.8107    1.0000 </r>
       <r>   -2.6322    1.0000 </r>
       <r>   -2.6322    1.0000 </r>
       <r>   -2.4157    1.0000 </r>
       <r>   -1.1464    1.0000 </r>
       <r>   -1.0571    1.0000 </r>
       <r>   -1.0571    1.0000 </r>
       <r>    1.4578    1.0000 </r>
       <r>    1.4639    1.0000 </r>
       <r>    1.4639    1.0000 </r>
       <r>    2.1902    1.0000 </r>
       <r>    2.1953    1.0000 </r>
       <r>    2.3838    1.0000 </r>
       <r>    2.3838    1.0000 </r>
       <r>    2.4228    1.0000 </r>
       <r>    2.6939    1.0000 </r>
       <r>    2.6939    1.0000 </r>
       <r>    2.7247    1.0000 </r>
       <r>    2.8952    1.0000 </r>
       <r>    2.9930    1.0000 </r>
       <r>    2.9930    1.0000 </r>
       <r>    3.0120    1.0000 </r>
       <r>    3.0260    1.0000 </r>
       <r>    3.7543    1.0000 </r>
       <r>    3.9175    1.0000 </r>
       <r>    3.9175    1.0000 </r>
       <r>    4.1223    1.0000 </r>
       <r>    6.7212    0.0000 </r>
       <r>    7.5629    0.0000 </r>
       <r>    7.5629    0.0000 </r>
       <r>    8.8023    0.0000 </r>
       <r>    9.7165    0.0000 </r>
       <r>    9.7165    0.0000 </r>
       <r>   12.6351    0.0000 </r>
       <r>   13.1788    0.0000 </r>
       <r>   17.8262    0.0000 </r>
       <r>   17.8262    0.0000 </r>
       <r>   18.3155    0.0000 </r>
       <r>   18.4791    0.0000 </r>
       <r>   19.3192    0.0000 </r>
       <r>   20.0414    0.0000 </r>
       <r>   20.7517    0.0000 </r>
       <r>   20.7517    0.0000 </r>
       <r>   22.2140    0.0000 </r>
       <r>   23.0902    0.0000 </r>
       <r>   23.7641    0.0000 </r>
       <r>   23.7915    0.0000 </r>
      </set>
      <set comment="kpoint 20">
       <r>  -15.2726    1.0000 </r>
       <r>  -14.7698    1.0000 </r>
       <r>   -2.5709    1.0000 </r>
       <r>   -2.5709    1.0000 </r>
       <r>   -2.5709    1.0000 </r>
       <r>   -1.0964    1.0000 </r>
       <r>   -1.0964    1.0000 </r>
       <r>   -1.0964    1.0000 </r>
       <r>    1.4200    1.0000 </r>
       <r>    1.4200    1.0000 </r>
       <r>    1.4200    1.0000 </r>
       <r>    2.1478    1.0000 </r>
       <r>    2.1478    1.0000 </r>
       <r>    2.3846    1.0000 </r>
       <r>    2.3846    1.0000 </r>
       <r>    2.3846    1.0000 </r>
       <r>    2.7306    1.0000 </r>
       <r>    2.7306    1.0000 </r>
       <r>    2.7306    1.0000 </r>
       <r>    2.9446    1.0000 </r>
       <r>    2.9446    1.0000 </r>
       <r>    2.9446    1.0000 </r>
       <r>    3.0696    1.0000 </r>
       <r>    3.0696    1.0000 </r>
       <r>    3.6933    1.0000 </r>
       <r>    4.1367    1.0000 </r>
       <r>    4.1367    1.0000 </r>
       <r>    4.1367    1.0000 </r>
       <r>    7.1011    0.0000 </r>
       <r>    7.1011    0.0000 </r>
       <r>    7.1011    0.0000 </r>
       <r>    9.6064    0.0000 </r>
       <r>    9.6064    0.0000 </r>
       <r>    9.6064    0.0000 </r>
       <r>   11.7118    0.0000 </r>
       <r>   12.4980    0.0000 </r>
       <r>   18.6012    0.0000 </r>
       <r>   18.6012    0.0000 </r>
       <r>   19.7816    0.0000 </r>
       <r>   19.7816    0.0000 </r>
       <r>   19.7816    0.0000 </r>
       <r>   20.8751    0.0000 </r>
       <r>   20.8751    0.0000 </r>
       <r>   20.8752    0.0000 </r>
       <r>   22.2123    0.0000 </r>
       <r>   22.2126    0.0000 </r>
       <r>   23.2889    0.0000 </r>
       <r>   23.2900    0.0000 </r>
      </set>
     </set>
    </set>
   </array>
  </eigenvalues>
  <separator name="orbital magnetization" >
   <v name="MAGDIPOLOUT">      0.00000000      0.00000000      0.00000000</v>
  </separator>
  <dielectricfunction comment="density-density">
   <imag>
    <array>
     <dimension dim="1">gridpoints</dimension>
     <field>energy</field>
     <field>xx</field>
     <field>yy</field>
     <field>zz</field>
     <field>xy</field>
     <field>yz</field>
     <field>zx</field>
     <set>
      <r>     0.0000     0.0000     0.0000     0.0000     0.0000     0.0000     0.0000 </r>
      <r>     0.0245     0.0000     0.0000     0.0000     0.0000     0.0000     0.0000 </r>
      <r>     0.0490     0.0000     0.0000     0.0000     0.0000     0.0000     0.0000 </r>
      <r>     0.0736     0.0000     0.0000     0.0000     0.0000     0.0000     0.0000 </r>
      <r>     0.0981     0.0000     0.0000     0.0000     0.0000     0.0000     0.0000 </r>
      <r>     0.1226     0.0000     0.0000     0.0000     0.0000     0.0000     0.0000 </r>
      <r>     0.1471     0.0000     0.0000     0.0000     0.0000     0.0000     0.0000 </r>
      <r>     0.1717     0.0000     0.0000     0.0000     0.0000     0.0000     0.0000 </r>
      <r>     0.1962     0.0000     0.0000     0.0000     0.0000     0.0000     0.0000 </r>
      <r>     0.2207     0.0000     0.0000     0.0000     0.0000     0.0000     0.0000 </r>
      <r>     0.2452     0.0000     0.0000     0.0000     0.0000     0.0000     0.0000 </r>
      <r>     0.2698     0.0000     0.0000     0.0000     0.0000     0.0000     0.0000 </r>
      <r>     0.2943     0.0000     0.0000     0.0000     0.0000     0.0000     0.0000 </r>
      <r>     0.3188     0.0000     0.0000     0.0000     0.0000     0.0000     0.0000 </r>
      <r>     0.3433     0.0000     0.0000     0.0000     0.0000     0.0000     0.0000 </r>
      <r>     0.3679     0.0000     0.0000     0.0000     0.0000     0.0000     0.0000 </r>
      <r>     0.3924     0.0000     0.0000     0.0000     0.0000     0.0000     0.0000 </r>
      <r>     0.4169     0.0000     0.0000     0.0000     0.0000     0.0000     0.0000 </r>
      <r>     0.4414     0.0000     0.0000     0.0000     0.0000     0.0000     0.0000 </r>
      <r>     0.4659     0.0000     0.0000     0.0000     0.0000     0.0000     0.0000 </r>
      <r>     0.4905     0.0000     0.0000     0.0000     0.0000     0.0000     0.0000 </r>
      <r>     0.5150     0.0000     0.0000     0.0000     0.0000     0.0000     0.0000 </r>
      <r>     0.5395     0.0000     0.0000     0.0000    -0.0000     0.0000     0.0000 </r>
      <r>     0.5640     0.0000     0.0000     0.0000    -0.0000     0.0000     0.0000 </r>
      <r>     0.5886     0.0000     0.0000     0.0000    -0.0000     0.0000     0.0000 </r>
      <r>     0.6131     0.0001     0.0001     0.0001    -0.0000     0.0000     0.0000 </r>
      <r>     0.6376     0.0001     0.0001     0.0001    -0.0000     0.0000     0.0000 </r>
      <r>     0.6621     0.0002     0.0002     0.0002    -0.0000     0.0000     0.0000 </r>
      <r>     0.6867     0.0003     0.0003     0.0003    -0.0000     0.0000     0.0000 </r>
      <r>     0.7112     0.0004     0.0004     0.0004    -0.0000     0.0000     0.0000 </r>
      <r>     0.7357     0.0005     0.0005     0.0005    -0.0000     0.0000     0.0000 </r>
      <r>     0.7602     0.0006     0.0006     0.0006    -0.0000     0.0000     0.0000 </r>
      <r>     0.7848     0.0007     0.0007     0.0007    -0.0000     0.0000     0.0000 </r>
      <r>     0.8093     0.0009     0.0009     0.0009    -0.0000     0.0000     0.0000 </r>
      <r>     0.8338     0.0011     0.0011     0.0011    -0.0000     0.0000     0.0000 </r>
      <r>     0.8583     0.0013     0.0013     0.0013    -0.0000     0.0000     0.0000 </r>
      <r>     0.8828     0.0017     0.0017     0.0017    -0.0000     0.0000     0.0000 </r>
      <r>     0.9074     0.0021     0.0021     0.0021    -0.0000     0.0000     0.0000 </r>
      <r>     0.9319     0.0026     0.0026     0.0026    -0.0000     0.0000     0.0000 </r>
      <r>     0.9564     0.0031     0.0031     0.0031    -0.0000     0.0000     0.0000 </r>
      <r>     0.9809     0.0037     0.0037     0.0037    -0.0000     0.0000     0.0000 </r>
      <r>     1.0055     0.0044     0.0044     0.0044    -0.0000     0.0000     0.0000 </r>
      <r>     1.0300     0.0051     0.0051     0.0051    -0.0000     0.0000     0.0000 </r>
      <r>     1.0545     0.0058     0.0058     0.0058    -0.0000     0.0000     0.0000 </r>
      <r>     1.0790     0.0066     0.0066     0.0066    -0.0000     0.0000     0.0000 </r>
      <r>     1.1036     0.0075     0.0075     0.0075    -0.0000     0.0000     0.0000 </r>
      <r>     1.1281     0.0084     0.0084     0.0084    -0.0000     0.0000     0.0000 </r>
      <r>     1.1526     0.0093     0.0093     0.0093    -0.0000     0.0000     0.0000 </r>
      <r>     1.1771     0.0187     0.0187     0.0187    -0.0000     0.0000     0.0000 </r>
      <r>     1.2017     0.0411     0.0411     0.0411    -0.0000     0.0000     0.0000 </r>
      <r>     1.2262     0.0765     0.0765     0.0765    -0.0000     0.0000     0.0000 </r>
      <r>     1.2507     0.1249     0.1249     0.1249    -0.0000     0.0000     0.0000 </r>
      <r>     1.2752     0.1864     0.1864     0.1864    -0.0000     0.0000     0.0000 </r>
      <r>     1.2997     0.2609     0.2609     0.2609    -0.0000     0.0000     0.0000 </r>
      <r>     1.3243     0.3484     0.3484     0.3484    -0.0000     0.0000     0.0000 </r>
      <r>     1.3488     0.4490     0.4490     0.4490    -0.0000     0.0000     0.0000 </r>
      <r>     1.3733     0.5625     0.5625     0.5625    -0.0000     0.0000     0.0000 </r>
      <r>     1.3978     0.6891     0.6891     0.6891    -0.0000     0.0000     0.0000 </r>
      <r>     1.4224     0.8288     0.8288     0.8288    -0.0000     0.0000     0.0000 </r>
      <r>     1.4469     0.9815     0.9815     0.9815    -0.0000     0.0000     0.0000 </r>
      <r>     1.4714     1.1474     1.1474     1.1474    -0.0000     0.0000     0.0000 </r>
      <r>     1.4959     1.3264     1.3264     1.3264    -0.0000     0.0000     0.0000 </r>
      <r>     1.5205     1.5186     1.5186     1.5186    -0.0000     0.0000     0.0000 </r>
      <r>     1.5450     1.7240     1.7240     1.7240    -0.0000     0.0000     0.0000 </r>
      <r>     1.5695     1.9426     1.9426     1.9426    -0.0000     0.0000     0.0000 </r>
      <r>     1.5940     2.1743     2.1743     2.1743    -0.0000     0.0000     0.0000 </r>
      <r>     1.6186     2.4191     2.4191     2.4191    -0.0000     0.0000     0.0000 </r>
      <r>     1.6431     2.6772     2.6772     2.6772    -0.0000     0.0000     0.0000 </r>
      <r>     1.6676     2.9201     2.9201     2.9201    -0.0000     0.0000     0.0000 </r>
      <r>     1.6921     3.0115     3.0115     3.0115    -0.0000     0.0000     0.0000 </r>
      <r>     1.7166     3.1027     3.1027     3.1027    -0.0000     0.0000     0.0000 </r>
      <r>     1.7412     3.1936     3.1936     3.1936    -0.0000     0.0000     0.0000 </r>
      <r>     1.7657     3.2844     3.2844     3.2844    -0.0000     0.0000     0.0000 </r>
      <r>     1.7902     3.3751     3.3751     3.3751    -0.0000     0.0000     0.0000 </r>
      <r>     1.8147     3.4655     3.4655     3.4655    -0.0000     0.0000     0.0000 </r>
      <r>     1.8393     3.5558     3.5558     3.5558    -0.0000     0.0000     0.0000 </r>
      <r>     1.8638     3.6459     3.6459     3.6459    -0.0000     0.0000     0.0000 </r>
      <r>     1.8883     3.7359     3.7359     3.7359    -0.0000     0.0000     0.0000 </r>
      <r>     1.9128     3.8264     3.8264     3.8264    -0.0000     0.0000     0.0000 </r>
      <r>     1.9374     3.9173     3.9173     3.9173    -0.0000     0.0000     0.0000 </r>
      <r>     1.9619     4.0087     4.0087     4.0087    -0.0000     0.0000     0.0000 </r>
      <r>     1.9864     4.1040     4.1040     4.1040    -0.0000     0.0000     0.0000 </r>
      <r>     2.0109     4.1973     4.1973     4.1973    -0.0000     0.0000     0.0000 </r>
      <r>     2.0355     4.2903     4.2903     4.2903    -0.0000     0.0000     0.0000 </r>
      <r>     2.0600     4.3858     4.3858     4.3858    -0.0000     0.0000     0.0000 </r>
      <r>     2.0845     4.4848     4.4848     4.4848    -0.0000     0.0000     0.0000 </r>
      <r>     2.1090     4.5860     4.5860     4.5860    -0.0000     0.0000     0.0000 </r>
      <r>     2.1335     4.6897     4.6897     4.6897    -0.0000     0.0000     0.0000 </r>
      <r>     2.1581     4.7959     4.7959     4.7959    -0.0000     0.0000     0.0000 </r>
      <r>     2.1826     4.8932     4.8932     4.8932    -0.0000     0.0000     0.0000 </r>
      <r>     2.2071     4.9787     4.9787     4.9787    -0.0000     0.0000     0.0000 </r>
      <r>     2.2316     5.0716     5.0716     5.0716    -0.0000     0.0000     0.0000 </r>
      <r>     2.2562     5.1765     5.1765     5.1765    -0.0000     0.0000     0.0000 </r>
      <r>     2.2807     5.2985     5.2985     5.2985    -0.0000     0.0000     0.0000 </r>
      <r>     2.3052     5.4344     5.4344     5.4344    -0.0000     0.0000     0.0000 </r>
      <r>     2.3297     5.5833     5.5833     5.5833    -0.0000     0.0000     0.0000 </r>
      <r>     2.3543     5.7456     5.7456     5.7456    -0.0000     0.0000     0.0000 </r>
      <r>     2.3788     5.9339     5.9339     5.9339    -0.0000     0.0000     0.0000 </r>
      <r>     2.4033     6.1873     6.1873     6.1873    -0.0000     0.0000     0.0000 </r>
      <r>     2.4278     6.5052     6.5052     6.5052    -0.0000     0.0000     0.0000 </r>
      <r>     2.4523     6.8876     6.8876     6.8876    -0.0000     0.0000     0.0000 </r>
      <r>     2.4769     7.3347     7.3347     7.3347    -0.0000     0.0000     0.0000 </r>
      <r>     2.5014     7.8416     7.8416     7.8416    -0.0000     0.0000     0.0000 </r>
      <r>     2.5259     8.3970     8.3970     8.3970    -0.0000     0.0000     0.0000 </r>
      <r>     2.5504     9.4426     9.4426     9.4426    -0.0000     0.0000     0.0000 </r>
      <r>     2.5750     9.8234     9.8234     9.8234    -0.0000     0.0000     0.0000 </r>
      <r>     2.5995    10.2225    10.2225    10.2225    -0.0000     0.0000     0.0000 </r>
      <r>     2.6240    10.6620    10.6620    10.6620    -0.0000     0.0000     0.0000 </r>
      <r>     2.6485    11.1103    11.1103    11.1103    -0.0000     0.0000     0.0000 </r>
      <r>     2.6731    13.2070    13.2070    13.2070    -0.0000     0.0000     0.0000 </r>
[...]
        <r>  0.0000  0.0000  0.0000  0.0000  0.0276  0.0009  0.0837  0.0360  0.0465 </r>
        <r>  0.0000  0.0000  0.0000  0.0000  0.0505  0.0021  0.1529  0.0360  0.0258 </r>
        <r>  0.0000  0.0000  0.0000  0.0000  0.0000  0.0000  0.0000  0.0000  0.0000 </r>
        <r>  0.0000  0.0000  0.0000  0.0000  0.0000  0.0000  0.0000  0.0000  0.0000 </r>
       </set>
       <set comment="band 17">
        <r>  0.0012  0.0000  0.0000  0.0000  0.0149  0.0084  0.2092  0.0084  0.0000 </r>
        <r>  0.0012  0.0000  0.0000  0.0000  0.0146  0.0081  0.2123  0.0081  0.0000 </r>
        <r>  0.0012  0.0000  0.0000  0.0000  0.0152  0.0087  0.2063  0.0087  0.0000 </r>
        <r>  0.0012  0.0000  0.0000  0.0000  0.0149  0.0084  0.2093  0.0083  0.0000 </r>
        <r>  0.0000  0.0000  0.0011  0.0000  0.0000  0.0000  0.0000  0.0000  0.0000 </r>
        <r>  0.0000  0.0000  0.0011  0.0000  0.0000  0.0000  0.0000  0.0000  0.0000 </r>
       </set>
       <set comment="band 18">
        <r>  0.0015  0.0000  0.0000  0.0000  0.0102  0.0111  0.0664  0.0172  0.1197 </r>
        <r>  0.0009  0.0000  0.0000  0.0000  0.0065  0.0060  0.0387  0.0122  0.1942 </r>
        <r>  0.0009  0.0000  0.0000  0.0000  0.0063  0.0058  0.0412  0.0120  0.1942 </r>
        <r>  0.0015  0.0000  0.0000  0.0000  0.0106  0.0113  0.0631  0.0176  0.1197 </r>
        <r>  0.0000  0.0010  0.0000  0.0000  0.0000  0.0000  0.0000  0.0000  0.0000 </r>
        <r>  0.0000  0.0010  0.0000  0.0000  0.0000  0.0000  0.0000  0.0000  0.0000 </r>
       </set>
       <set comment="band 19">
        <r>  0.0009  0.0000  0.0000  0.0000  0.0066  0.0123  0.0383  0.0060  0.1942 </r>
        <r>  0.0015  0.0000  0.0000  0.0000  0.0106  0.0176  0.0630  0.0113  0.1197 </r>
        <r>  0.0015  0.0000  0.0000  0.0000  0.0102  0.0172  0.0665  0.0111  0.1197 </r>
        <r>  0.0009  0.0000  0.0000  0.0000  0.0062  0.0119  0.0415  0.0058  0.1942 </r>
        <r>  0.0000  0.0000  0.0000  0.0010  0.0000  0.0000  0.0000  0.0000  0.0000 </r>
        <r>  0.0000  0.0000  0.0000  0.0010  0.0000  0.0000  0.0000  0.0000  0.0000 </r>
       </set>
       <set comment="band 20">
        <r>  0.0000  0.0000  0.0000  0.0000  0.1083  0.0041  0.0809  0.0769  0.0134 </r>
        <r>  0.0000  0.0000  0.0000  0.0000  0.0559  0.0045  0.0418  0.0769  0.0266 </r>
        <r>  0.0000  0.0000  0.0000  0.0000  0.0559  0.0041  0.0418  0.0788  0.0273 </r>
        <r>  0.0000  0.0000  0.0000  0.0000  0.1083  0.0045  0.0809  0.0788  0.0145 </r>
        <r>  0.0000  0.0000  0.0000  0.0000  0.0000  0.0000  0.0000  0.0000  0.0000 </r>
        <r>  0.0000  0.0000  0.0000  0.0000  0.0000  0.0000  0.0000  0.0000  0.0000 </r>
       </set>
       <set comment="band 21">
        <r>  0.0000  0.0000  0.0000  0.0000  0.0560  0.0782  0.0418  0.0042  0.0271 </r>
        <r>  0.0000  0.0000  0.0000  0.0000  0.1083  0.0776  0.0809  0.0042  0.0137 </r>
        <r>  0.0000  0.0000  0.0000  0.0000  0.1083  0.0782  0.0809  0.0044  0.0141 </r>
        <r>  0.0000  0.0000  0.0000  0.0000  0.0560  0.0776  0.0418  0.0044  0.0269 </r>
        <r>  0.0000  0.0000  0.0000  0.0000  0.0000  0.0000  0.0000  0.0000  0.0000 </r>
        <r>  0.0000  0.0000  0.0000  0.0000  0.0000  0.0000  0.0000  0.0000  0.0000 </r>
       </set>
       <set comment="band 22">
        <r>  0.0000  0.0000  0.0000  0.0000  0.0000  0.0820  0.0000  0.0832  0.0823 </r>
        <r>  0.0000  0.0000  0.0000  0.0000  0.0000  0.0822  0.0000  0.0832  0.0823 </r>
        <r>  0.0000  0.0000  0.0000  0.0000  0.0000  0.0820  0.0000  0.0811  0.0812 </r>
        <r>  0.0000  0.0000  0.0000  0.0000  0.0000  0.0822  0.0000  0.0811  0.0813 </r>
        <r>  0.0000  0.0000  0.0000  0.0000  0.0000  0.0000  0.0000  0.0000  0.0000 </r>
        <r>  0.0000  0.0000  0.0000  0.0000  0.0000  0.0000  0.0000  0.0000  0.0000 </r>
       </set>
       <set comment="band 23">
        <r>  0.0000  0.0000  0.0000  0.0000  0.0000  0.0736  0.0000  0.0738  0.0988 </r>
        <r>  0.0000  0.0000  0.0000  0.0000  0.0000  0.0736  0.0000  0.0738  0.0988 </r>
        <r>  0.0000  0.0000  0.0000  0.0000  0.0000  0.0736  0.0000  0.0738  0.0988 </r>
        <r>  0.0000  0.0000  0.0000  0.0000  0.0000  0.0736  0.0000  0.0738  0.0988 </r>
        <r>  0.0000  0.0000  0.0000  0.0000  0.0000  0.0000  0.0000  0.0000  0.0000 </r>
        <r>  0.0000  0.0000  0.0000  0.0000  0.0000  0.0000  0.0000  0.0000  0.0000 </r>
       </set>
       <set comment="band 24">
        <r>  0.0000  0.0000  0.0000  0.0000  0.0983  0.0247  0.0988  0.0244  0.0000 </r>
        <r>  0.0000  0.0000  0.0000  0.0000  0.0983  0.0247  0.0988  0.0244  0.0000 </r>
        <r>  0.0000  0.0000  0.0000  0.0000  0.0983  0.0247  0.0988  0.0244  0.0000 </r>
        <r>  0.0000  0.0000  0.0000  0.0000  0.0983  0.0247  0.0988  0.0244  0.0000 </r>
        <r>  0.0000  0.0000  0.0000  0.0000  0.0000  0.0000  0.0000  0.0000  0.0000 </r>
        <r>  0.0000  0.0000  0.0000  0.0000  0.0000  0.0000  0.0000  0.0000  0.0000 </r>
       </set>
       <set comment="band 25">
        <r>  0.0043  0.0000  0.0000  0.0000  0.0789  0.0789  0.0000  0.0789  0.0000 </r>
        <r>  0.0043  0.0000  0.0000  0.0000  0.0789  0.0789  0.0000  0.0789  0.0000 </r>
        <r>  0.0043  0.0000  0.0000  0.0000  0.0789  0.0789  0.0000  0.0789  0.0000 </r>
        <r>  0.0043  0.0000  0.0000  0.0000  0.0789  0.0789  0.0000  0.0789  0.0000 </r>
        <r>  0.0127  0.0000  0.0000  0.0000  0.0000  0.0000  0.0000  0.0000  0.0000 </r>
        <r>  0.0127  0.0000  0.0000  0.0000  0.0000  0.0000  0.0000  0.0000  0.0000 </r>
       </set>
       <set comment="band 26">
        <r>  0.0145  0.0000  0.0000  0.0000  0.1499  0.0039  0.0070  0.0314  0.0015 </r>
        <r>  0.0558  0.0000  0.0000  0.0000  0.1430  0.0028  0.0030  0.0231  0.0003 </r>
        <r>  0.0049  0.0000  0.0000  0.0000  0.1532  0.0058  0.0094  0.0300  0.0003 </r>
        <r>  0.0333  0.0000  0.0000  0.0000  0.1462  0.0073  0.0046  0.0243  0.0015 </r>
        <r>  0.0000  0.0056  0.0306  0.0010  0.0000  0.0000  0.0000  0.0000  0.0000 </r>
        <r>  0.0000  0.0056  0.0306  0.0010  0.0000  0.0000  0.0000  0.0000  0.0000 </r>
       </set>
       <set comment="band 27">
        <r>  0.0510  0.0000  0.0000  0.0000  0.0032  0.1259  0.0030  0.0418  0.0008 </r>
        <r>  0.0039  0.0000  0.0000  0.0000  0.0035  0.1348  0.0005  0.0511  0.0093 </r>
        <r>  0.0059  0.0000  0.0000  0.0000  0.0030  0.1349  0.0003  0.0506  0.0093 </r>
        <r>  0.0477  0.0000  0.0000  0.0000  0.0038  0.1260  0.0034  0.0423  0.0008 </r>
        <r>  0.0000  0.0096  0.0007  0.0269  0.0000  0.0000  0.0000  0.0000  0.0000 </r>
        <r>  0.0000  0.0096  0.0007  0.0269  0.0000  0.0000  0.0000  0.0000  0.0000 </r>
       </set>
       <set comment="band 28">
        <r>  0.0159  0.0000  0.0000  0.0000  0.0271  0.0504  0.0004  0.1071  0.0080 </r>
        <r>  0.0217  0.0000  0.0000  0.0000  0.0337  0.0426  0.0069  0.1060  0.0007 </r>
        <r>  0.0704  0.0000  0.0000  0.0000  0.0240  0.0395  0.0007  0.0997  0.0007 </r>
        <r>  0.0004  0.0000  0.0000  0.0000  0.0302  0.0469  0.0023  0.1136  0.0080 </r>
        <r>  0.0000  0.0220  0.0059  0.0092  0.0000  0.0000  0.0000  0.0000  0.0000 </r>
        <r>  0.0000  0.0220  0.0059  0.0092  0.0000  0.0000  0.0000  0.0000  0.0000 </r>
       </set>
       <set comment="band 29">
        <r>  0.0000  0.0142  0.0501  0.0243  0.0000  0.0000  0.0000  0.0000  0.0000 </r>
        <r>  0.0000  0.0040  0.0388  0.0283  0.0000  0.0000  0.0000  0.0000  0.0000 </r>
        <r>  0.0000  0.0208  0.0298  0.0051  0.0000  0.0000  0.0000  0.0000  0.0000 </r>
        <r>  0.0000  0.0089  0.0190  0.0074  0.0000  0.0000  0.0000  0.0000  0.0000 </r>
        <r>  0.0000  0.0160  0.0638  0.0252  0.0000  0.0000  0.0000  0.0000  0.0000 </r>
        <r>  0.0000  0.0160  0.0638  0.0252  0.0000  0.0000  0.0000  0.0000  0.0000 </r>
       </set>
       <set comment="band 30">
        <r>  0.0000  0.0143  0.0077  0.0087  0.0000  0.0000  0.0000  0.0000  0.0000 </r>
        <r>  0.0000  0.0339  0.0212  0.0091  0.0000  0.0000  0.0000  0.0000  0.0000 </r>
        <r>  0.0000  0.0139  0.0241  0.0312  0.0000  0.0000  0.0000  0.0000  0.0000 </r>
        <r>  0.0000  0.0240  0.0404  0.0222  0.0000  0.0000  0.0000  0.0000  0.0000 </r>
        <r>  0.0000  0.0364  0.0402  0.0284  0.0000  0.0000  0.0000  0.0000  0.0000 </r>
        <r>  0.0000  0.0364  0.0402  0.0284  0.0000  0.0000  0.0000  0.0000  0.0000 </r>
       </set>
       <set comment="band 31">
        <r>  0.0000  0.0342  0.0049  0.0297  0.0000  0.0000  0.0000  0.0000  0.0000 </r>
        <r>  0.0000  0.0247  0.0026  0.0252  0.0000  0.0000  0.0000  0.0000  0.0000 </r>
        <r>  0.0000  0.0280  0.0088  0.0264  0.0000  0.0000  0.0000  0.0000  0.0000 </r>
        <r>  0.0000  0.0297  0.0033  0.0331  0.0000  0.0000  0.0000  0.0000  0.0000 </r>
        <r>  0.0000  0.0526  0.0010  0.0514  0.0000  0.0000  0.0000  0.0000  0.0000 </r>
        <r>  0.0000  0.0526  0.0010  0.0514  0.0000  0.0000  0.0000  0.0000  0.0000 </r>
       </set>
       <set comment="band 32">
        <r>  0.0179  0.0000  0.0000  0.0000  0.0138  0.0069  0.0083  0.0075  0.0082 </r>
        <r>  0.0113  0.0000  0.0000  0.0000  0.0157  0.0001  0.0109  0.0063  0.0065 </r>
        <r>  0.0871  0.0000  0.0000  0.0000  0.0297  0.0197  0.0003  0.0435  0.0065 </r>
        <r>  0.0645  0.0000  0.0000  0.0000  0.0224  0.0100  0.0018  0.0393  0.0082 </r>
        <r>  0.0000  0.0076  0.0294  0.0941  0.0000  0.0000  0.0000  0.0000  0.0000 </r>
        <r>  0.0000  0.0076  0.0294  0.0941  0.0000  0.0000  0.0000  0.0000  0.0000 </r>
       </set>
       <set comment="band 33">
        <r>  0.0602  0.0000  0.0000  0.0000  0.0297  0.0278  0.0061  0.0102  0.0045 </r>
        <r>  0.0274  0.0000  0.0000  0.0000  0.0121  0.0209  0.0043  0.0042  0.0109 </r>
        <r>  0.0325  0.0000  0.0000  0.0000  0.0130  0.0227  0.0036  0.0061  0.0109 </r>
        <r>  0.0607  0.0000  0.0000  0.0000  0.0298  0.0271  0.0060  0.0114  0.0045 </r>
        <r>  0.0000  0.1010  0.0250  0.0051  0.0000  0.0000  0.0000  0.0000  0.0000 </r>
        <r>  0.0000  0.1010  0.0250  0.0051  0.0000  0.0000  0.0000  0.0000  0.0000 </r>
       </set>
       <set comment="band 34">
        <r>  0.0575  0.0000  0.0000  0.0000  0.0102  0.0190  0.0047  0.0360  0.0063 </r>
        <r>  0.0969  0.0000  0.0000  0.0000  0.0260  0.0327  0.0039  0.0433  0.0016 </r>
        <r>  0.0160  0.0000  0.0000  0.0000  0.0110  0.0114  0.0152  0.0041  0.0016 </r>
        <r>  0.0104  0.0000  0.0000  0.0000  0.0015  0.0167  0.0113  0.0030  0.0063 </r>
        <r>  0.0000  0.0225  0.0767  0.0319  0.0000  0.0000  0.0000  0.0000  0.0000 </r>
        <r>  0.0000  0.0225  0.0767  0.0319  0.0000  0.0000  0.0000  0.0000  0.0000 </r>
       </set>
       <set comment="band 35">
        <r>  0.0000  0.0130  0.0130  0.0130  0.0000  0.0000  0.0000  0.0000  0.0000 </r>
        <r>  0.0000  0.0130  0.0130  0.0130  0.0000  0.0000  0.0000  0.0000  0.0000 </r>
        <r>  0.0000  0.0130  0.0130  0.0130  0.0000  0.0000  0.0000  0.0000  0.0000 </r>
        <r>  0.0000  0.0130  0.0130  0.0130  0.0000  0.0000  0.0000  0.0000  0.0000 </r>
        <r>  0.0565  0.0000  0.0000  0.0000  0.0000  0.0000  0.0000  0.0000  0.0000 </r>
        <r>  0.0565  0.0000  0.0000  0.0000  0.0000  0.0000  0.0000  0.0000  0.0000 </r>
       </set>
       <set comment="band 36">
        <r>  0.1431  0.0000  0.0000  0.0000  0.0009  0.0009  0.0000  0.0009  0.0000 </r>
        <r>  0.1431  0.0000  0.0000  0.0000  0.0009  0.0009  0.0000  0.0009  0.0000 </r>
        <r>  0.1431  0.0000  0.0000  0.0000  0.0009  0.0009  0.0000  0.0009  0.0000 </r>
        <r>  0.1431  0.0000  0.0000  0.0000  0.0009  0.0009  0.0000  0.0009  0.0000 </r>
        <r>  0.0705  0.0000  0.0000  0.0000  0.0000  0.0000  0.0000  0.0000  0.0000 </r>
        <r>  0.0705  0.0000  0.0000  0.0000  0.0000  0.0000  0.0000  0.0000  0.0000 </r>
       </set>
       <set comment="band 37">
        <r>  0.0000  0.0075  0.0789  0.0428  0.0000  0.0000  0.0000  0.0000  0.0000 </r>
        <r>  0.0000  0.0075  0.0789  0.0428  0.0000  0.0000  0.0000  0.0000  0.0000 </r>
        <r>  0.0000  0.0074  0.0789  0.0428  0.0000  0.0000  0.0000  0.0000  0.0000 </r>
        <r>  0.0000  0.0074  0.0789  0.0428  0.0000  0.0000  0.0000  0.0000  0.0000 </r>
        <r>  0.0000  0.0000  0.0000  0.0000  0.0000  0.0000  0.0000  0.0000  0.0000 </r>
        <r>  0.0000  0.0000  0.0000  0.0000  0.0000  0.0000  0.0000  0.0000  0.0000 </r>
       </set>
       <set comment="band 38">
        <r>  0.0000  0.0787  0.0072  0.0433  0.0000  0.0000  0.0000  0.0000  0.0000 </r>
        <r>  0.0000  0.0787  0.0072  0.0433  0.0000  0.0000  0.0000  0.0000  0.0000 </r>
        <r>  0.0000  0.0787  0.0072  0.0433  0.0000  0.0000  0.0000  0.0000  0.0000 </r>
        <r>  0.0000  0.0786  0.0072  0.0433  0.0000  0.0000  0.0000  0.0000  0.0000 </r>
        <r>  0.0000  0.0000  0.0000  0.0000  0.0000  0.0000  0.0000  0.0000  0.0000 </r>
        <r>  0.0000  0.0000  0.0000  0.0000  0.0000  0.0000  0.0000  0.0000  0.0000 </r>
       </set>
       <set comment="band 39">
        <r>  0.0000  0.0796  0.0125  0.0445  0.0000  0.0000  0.0000  0.0000  0.0000 </r>
        <r>  0.0000  0.0796  0.0508  0.0428  0.0000  0.0000  0.0000  0.0000  0.0000 </r>
        <r>  0.0000  0.0579  0.0508  0.0445  0.0000  0.0000  0.0000  0.0000  0.0000 </r>
        <r>  0.0000  0.0579  0.0125  0.0427  0.0000  0.0000  0.0000  0.0000  0.0000 </r>
        <r>  0.0000  0.0000  0.0000  0.0000  0.0000  0.0000  0.0000  0.0000  0.0000 </r>
        <r>  0.0000  0.0000  0.0000  0.0000  0.0000  0.0000  0.0000  0.0000  0.0000 </r>
       </set>
       <set comment="band 40">
        <r>  0.0000  0.0519  0.0982  0.0272  0.0000  0.0000  0.0000  0.0000  0.0000 </r>
        <r>  0.0000  0.0519  0.0090  0.0363  0.0000  0.0000  0.0000  0.0000  0.0000 </r>
        <r>  0.0000  0.0656  0.0090  0.0272  0.0000  0.0000  0.0000  0.0000  0.0000 </r>
        <r>  0.0000  0.0655  0.0982  0.0363  0.0000  0.0000  0.0000  0.0000  0.0000 </r>
        <r>  0.0000  0.0000  0.0000  0.0000  0.0000  0.0000  0.0000  0.0000  0.0000 </r>
        <r>  0.0000  0.0000  0.0000  0.0000  0.0000  0.0000  0.0000  0.0000  0.0000 </r>
       </set>
       <set comment="band 41">
        <r>  0.0000  0.0126  0.0334  0.0723  0.0000  0.0000  0.0000  0.0000  0.0000 </r>
        <r>  0.0000  0.0125  0.0842  0.0650  0.0000  0.0000  0.0000  0.0000  0.0000 </r>
        <r>  0.0000  0.0206  0.0843  0.0723  0.0000  0.0000  0.0000  0.0000  0.0000 </r>
        <r>  0.0000  0.0206  0.0333  0.0650  0.0000  0.0000  0.0000  0.0000  0.0000 </r>
        <r>  0.0000  0.0000  0.0000  0.0000  0.0000  0.0000  0.0000  0.0000  0.0000 </r>
        <r>  0.0000  0.0000  0.0000  0.0000  0.0000  0.0000  0.0000  0.0000  0.0000 </r>
       </set>
       <set comment="band 42">
        <r>  0.0000  0.0038  0.0065  0.0041  0.0000  0.0000  0.0000  0.0000  0.0000 </r>
        <r>  0.0000  0.0108  0.0147  0.0134  0.0000  0.0000  0.0000  0.0000  0.0000 </r>
        <r>  0.0000  0.0060  0.0099  0.0064  0.0000  0.0000  0.0000  0.0000  0.0000 </r>
        <r>  0.0000  0.0084  0.0112  0.0110  0.0000  0.0000  0.0000  0.0000  0.0000 </r>
        <r>  0.0000  0.0016  0.0001  0.0009  0.0000  0.0000  0.0000  0.0000  0.0000 </r>
        <r>  0.0000  0.0016  0.0001  0.0009  0.0000  0.0000  0.0000  0.0000  0.0000 </r>
       </set>
       <set comment="band 43">
        <r>  0.0000  0.0035  0.0011  0.0027  0.0000  0.0000  0.0000  0.0000  0.0000 </r>
        <r>  0.0000  0.0085  0.0066  0.0095  0.0000  0.0000  0.0000  0.0000  0.0000 </r>
        <r>  0.0000  0.0136  0.0088  0.0099  0.0000  0.0000  0.0000  0.0000  0.0000 </r>
        <r>  0.0000  0.0164  0.0111  0.0146  0.0000  0.0000  0.0000  0.0000  0.0000 </r>
        <r>  0.0000  0.0001  0.0018  0.0007  0.0000  0.0000  0.0000  0.0000  0.0000 </r>
        <r>  0.0000  0.0001  0.0018  0.0007  0.0000  0.0000  0.0000  0.0000  0.0000 </r>
       </set>
       <set comment="band 44">
        <r>  0.0000  0.0192  0.0189  0.0197  0.0000  0.0000  0.0000  0.0000  0.0000 </r>
        <r>  0.0000  0.0073  0.0054  0.0036  0.0000  0.0000  0.0000  0.0000  0.0000 </r>
        <r>  0.0000  0.0070  0.0079  0.0103  0.0000  0.0000  0.0000  0.0000  0.0000 </r>
        <r>  0.0000  0.0017  0.0043  0.0009  0.0000  0.0000  0.0000  0.0000  0.0000 </r>
        <r>  0.0000  0.0009  0.0008  0.0010  0.0000  0.0000  0.0000  0.0000  0.0000 </r>
        <r>  0.0000  0.0009  0.0008  0.0010  0.0000  0.0000  0.0000  0.0000  0.0000 </r>
       </set>
       <set comment="band 45">
        <r>  0.0000  0.0000  0.0000  0.0000  0.0136  0.0006  0.0358  0.0172  0.0188 </r>
        <r>  0.0000  0.0000  0.0000  0.0000  0.0137  0.0005  0.0356  0.0172  0.0189 </r>
        <r>  0.0000  0.0000  0.0000  0.0000  0.0137  0.0005  0.0357  0.0171  0.0191 </r>
        <r>  0.0000  0.0000  0.0000  0.0000  0.0137  0.0006  0.0353  0.0172  0.0188 </r>
        <r>  0.0000  0.0000  0.0000  0.0000  0.0000  0.0000  0.0000  0.0000  0.0000 </r>
        <r>  0.0000  0.0000  0.0000  0.0000  0.0000  0.0000  0.0000  0.0000  0.0000 </r>
       </set>
       <set comment="band 46">
        <r>  0.0000  0.0000  0.0000  0.0000  0.0071  0.0204  0.0189  0.0039  0.0351 </r>
        <r>  0.0000  0.0000  0.0000  0.0000  0.0074  0.0205  0.0188  0.0037  0.0362 </r>
        <r>  0.0000  0.0000  0.0000  0.0000  0.0073  0.0202  0.0192  0.0037  0.0354 </r>
        <r>  0.0000  0.0000  0.0000  0.0000  0.0073  0.0204  0.0188  0.0037  0.0357 </r>
        <r>  0.0000  0.0000  0.0000  0.0000  0.0000  0.0000  0.0000  0.0000  0.0000 </r>
        <r>  0.0000  0.0000  0.0000  0.0000  0.0000  0.0000  0.0000  0.0000  0.0000 </r>
       </set>
       <set comment="band 47">
        <r>  0.0000  0.0000  0.0000  0.0000  0.0113  0.0094  0.0342  0.0074  0.0239 </r>
        <r>  0.0000  0.0000  0.0000  0.0000  0.0107  0.0145  0.0334  0.0072  0.0357 </r>
        <r>  0.0000  0.0000  0.0000  0.0000  0.0108  0.0096  0.0331  0.0004  0.0091 </r>
        <r>  0.0000  0.0000  0.0000  0.0000  0.0112  0.0149  0.0344  0.0003  0.0199 </r>
        <r>  0.0000  0.0000  0.0000  0.0000  0.0000  0.0000  0.0000  0.0000  0.0000 </r>
        <r>  0.0000  0.0000  0.0000  0.0000  0.0000  0.0000  0.0000  0.0000  0.0000 </r>
       </set>
       <set comment="band 48">
        <r>  0.0000  0.0000  0.0000  0.0000  0.0020  0.0042  0.0062  0.0108  0.0284 </r>
        <r>  0.0000  0.0000  0.0000  0.0000  0.0141  0.0094  0.0422  0.0109  0.0286 </r>
        <r>  0.0000  0.0000  0.0000  0.0000  0.0138  0.0041  0.0423  0.0141  0.0222 </r>
        <r>  0.0000  0.0000  0.0000  0.0000  0.0018  0.0095  0.0066  0.0130  0.0471 </r>
        <r>  0.0000  0.0000  0.0000  0.0000  0.0000  0.0000  0.0000  0.0000  0.0000 </r>
        <r>  0.0000  0.0000  0.0000  0.0000  0.0000  0.0000  0.0000  0.0000  0.0000 </r>
       </set>
      </set>
     </set>
    </set>
   </array>
  </projected>
 </calculation>
 <structure name="finalpos" >
  <crystal>
   <varray name="basis" >
    <v>       4.24669932       0.00000000       0.00000000 </v>
    <v>      -0.00000000       4.24669932       0.00000000 </v>
    <v>       0.00000000       0.00000000       4.24669932 </v>
   </varray>
   <i name="volume">     76.58690827 </i>
   <varray name="rec_basis" >
    <v>       0.23547700       0.00000000       0.00000000 </v>
    <v>       0.00000000       0.23547700       0.00000000 </v>
    <v>      -0.00000000      -0.00000000       0.23547700 </v>
   </varray>
  </crystal>
  <varray name="positions" >
   <v>       0.50000000       0.50000000       0.00000000 </v>
   <v>       0.00000000       0.50000000       0.50000000 </v>
   <v>       0.50000000       0.00000000       0.50000000 </v>
   <v>       0.00000000       0.00000000       0.00000000 </v>
   <v>       0.75000000       0.75000000       0.75000000 </v>
   <v>       0.25000000       0.25000000       0.25000000 </v>
  </varray>
 </structure>
</modeling>
