 vasp.6.4.2 20Jul23 (build Mar 15 2024 16:31:38) complex                        
  
 executed on             LinuxIFC date 2025.03.27  13:53:23
 running  120 mpi-ranks, on    3 nodes
 distrk:  each k-point on  120 cores,    1 groups
 distr:  one band on NCORE=  20 cores,    6 groups


--------------------------------------------------------------------------------------------------------


 INCAR:
   ALGO = Normal
   CSHIFT = 1e-05
   EDIFF = 1e-05
   ENAUG = 1360
   ENCUT = 680
   GGA = Pe
   HFSCREEN = 0.2
   ISMEAR = -5
   ISPIN = 1
   LAECHG = True
   LASPH = True
   LCHARG = False
   LDAU = False
   LELF = False
   LHFCALC = True
   LMAXMIX = 4
   LMIXTAU = True
   LOPTICS = True
   LORBIT = 11
   LREAL = False
   LVTOT = True
   LWAVE = False
   NBANDS = 58
   NCORE = 20
   NEDOS = 1706
   NELM = 200
   NELMIN = 5
   NSW = 0
   PREC = Accurate
   PRECFOCK = Accurate
   SIGMA = 0.05

 POTCAR:    PAW_PBE Zn 06Sep2000                  
 POTCAR:    PAW_PBE Cu 22Jun2005                  
 POTCAR:    PAW_PBE Sn_d 06Sep2000                
 POTCAR:    PAW_PBE S 06Sep2000                   
 WARNING: For LVTOT=.TRUE., VASP.5.x writes the TOTAL local potential to the
     file LOCPOT. If you want only the Hartree contributions, use LVHAR=.TRUE.
     instead. 

 POTCAR:    PAW_PBE Zn 06Sep2000                  
   VRHFIN =Zn: d10 p2                                                                               
   LEXCH  = PE                                                                                      
   EATOM  =  1748.8345 eV,  128.5357 Ry                                                             
                                                                                                    
   TITEL  = PAW_PBE Zn 06Sep2000                                                                    
   LULTRA =        F    use ultrasoft PP ?                                                          
   IUNSCR =        1    unscreen: 0-lin 1-nonlin 2-no                                               
   RPACOR =    2.000    partial core radius                                                         
   POMASS =   65.390; ZVAL   =   12.000    mass and valenz                                          
   RCORE  =    2.300    outmost cutoff radius                                                       
   RWIGS  =    2.400; RWIGS  =    1.270    wigner-seitz radius (au A)                               
   ENMAX  =  276.723; ENMIN  =  207.542 eV                                                          
   RCLOC  =    1.828    cutoff for local pot                                                        
   LCOR   =        T    correct aug charges                                                         
   LPAW   =        T    paw PP                                                                      
   EAUG   =  575.892                                                                                
   DEXC   =    0.000                                                                                
   RMAX   =    2.347    core radius for proj-oper                                                   
   RAUG   =    1.300    factor for augmentation sphere                                              
   RDEP   =    2.324    radius for radial grids                                                     
   RDEPT  =    1.788    core radius for aug-charge                                                  
                                                                                                    
   Atomic configuration                                                                             
    9 entries                                                                                       
     n  l   j            E        occ.                                                              
     1  0  0.50     -9524.6913   2.0000                                                             
     2  0  0.50     -1158.1882   2.0000                                                             
     2  1  1.50     -1003.8506   6.0000                                                             
     3  0  0.50      -129.2194   2.0000                                                             
     3  1  1.50       -83.3890   6.0000                                                             
     3  2  2.50       -10.1410  10.0000                                                             
     4  0  0.50        -5.9785   2.0000                                                             
     4  1  0.50        -4.0817   0.0000                                                             
     4  3  2.50        -1.3606   0.0000                                                             
   Description                                                                                      
     l       E           TYP  RCUT    TYP  RCUT                                                     
     2    -10.1410010     23  2.300                                                                 
     2    -11.5015836     23  2.300                                                                 
     0     -5.9785163     23  2.300                                                                 
     0      1.1858015     23  2.300                                                                 
     1     -2.7211652     23  2.300                                                                 
     1     13.2444212     23  2.300                                                                 
  local pseudopotential read in
  partial core-charges read in
  partial kinetic energy density read in
  atomic valenz-charges read in
  non local Contribution for L=           2  read in
    real space projection operators read in
  non local Contribution for L=           2  read in
    real space projection operators read in
  non local Contribution for L=           0  read in
    real space projection operators read in
  non local Contribution for L=           0  read in
    real space projection operators read in
  non local Contribution for L=           1  read in
    real space projection operators read in
  non local Contribution for L=           1  read in
    real space projection operators read in
    PAW grid and wavefunctions read in
 
   number of l-projection  operators is LMAX  =           6
   number of lm-projection operators is LMMAX =          18
 
 POTCAR:    PAW_PBE Cu 22Jun2005                  
   VRHFIN =Cu: d10 p1                                                                               
   LEXCH  = PE                                                                                      
   EATOM  =  1390.9808 eV,  102.2342 Ry                                                             
                                                                                                    
   TITEL  = PAW_PBE Cu 22Jun2005                                                                    
   LULTRA =        F    use ultrasoft PP ?                                                          
   IUNSCR =        1    unscreen: 0-lin 1-nonlin 2-no                                               
   RPACOR =    2.000    partial core radius                                                         
   POMASS =   63.546; ZVAL   =   11.000    mass and valenz                                          
   RCORE  =    2.300    outmost cutoff radius                                                       
   RWIGS  =    2.200; RWIGS  =    1.164    wigner-seitz radius (au A)                               
   ENMAX  =  295.446; ENMIN  =  221.585 eV                                                          
   ICORE  =        3    local potential                                                             
   LCOR   =        T    correct aug charges                                                         
   LPAW   =        T    paw PP                                                                      
   EAUG   =  586.980                                                                                
   DEXC   =    0.000                                                                                
   RMAX   =    2.344    core radius for proj-oper                                                   
   RAUG   =    1.300    factor for augmentation sphere                                              
   RDEP   =    2.302    radius for radial grids                                                     
   RDEPT  =    1.771    core radius for aug-charge                                                  
                                                                                                    
   Atomic configuration                                                                             
    9 entries                                                                                       
     n  l   j            E        occ.                                                              
     1  0  0.50     -8850.2468   2.0000                                                             
     2  0  0.50     -1062.3498   2.0000                                                             
     2  1  1.50      -916.8226   6.0000                                                             
     3  0  0.50      -114.6929   2.0000                                                             
     3  1  1.50       -72.1325   6.0000                                                             
     3  2  2.50        -5.0394  10.0000                                                             
     4  0  0.50        -4.6097   1.0000                                                             
     4  1  0.50        -4.0817   0.0000                                                             
     4  3  2.50        -1.3606   0.0000                                                             
   Description                                                                                      
     l       E           TYP  RCUT    TYP  RCUT                                                     
     2     -5.0393973     23  2.200                                                                 
     2     10.8846608     23  2.200                                                                 
     0     -4.6097109     23  2.200                                                                 
     0      8.2520465     23  2.200                                                                 
     1     -2.7211652     23  2.200                                                                 
     1     21.7055443     23  2.200                                                                 
     3      2.7211652     23  2.300                                                                 
  local pseudopotential read in
  partial core-charges read in
  partial kinetic energy density read in
  atomic valenz-charges read in
  non local Contribution for L=           2  read in
    real space projection operators read in
  non local Contribution for L=           2  read in
    real space projection operators read in
  non local Contribution for L=           0  read in
    real space projection operators read in
  non local Contribution for L=           0  read in
    real space projection operators read in
  non local Contribution for L=           1  read in
    real space projection operators read in
  non local Contribution for L=           1  read in
    real space projection operators read in
    PAW grid and wavefunctions read in
 
   number of l-projection  operators is LMAX  =           6
   number of lm-projection operators is LMMAX =          18
 
 POTCAR:    PAW_PBE Sn_d 06Sep2000                
   VRHFIN =Sn: s2p2                                                                                 
   LEXCH  = PE                                                                                      
   EATOM  =  1893.1092 eV,  139.1396 Ry                                                             
                                                                                                    
   TITEL  = PAW_PBE Sn_d 06Sep2000                                                                  
   LULTRA =        F    use ultrasoft PP ?                                                          
   IUNSCR =        1    unscreen: 0-lin 1-nonlin 2-no                                               
   RPACOR =    2.300    partial core radius                                                         
   POMASS =  118.710; ZVAL   =   14.000    mass and valenz                                          
   RCORE  =    2.500    outmost cutoff radius                                                       
   RWIGS  =    2.960; RWIGS  =    1.566    wigner-seitz radius (au A)                               
   ENMAX  =  241.083; ENMIN  =  180.812 eV                                                          
   ICORE  =        3    local potential                                                             
   LCOR   =        T    correct aug charges                                                         
   LPAW   =        T    paw PP                                                                      
   EAUG   =  439.825                                                                                
   DEXC   =    0.000                                                                                
   RMAX   =    2.560    core radius for proj-oper                                                   
   RAUG   =    1.300    factor for augmentation sphere                                              
   RDEP   =    2.659    radius for radial grids                                                     
   RDEPT  =    2.046    core radius for aug-charge                                                  
                                                                                                    
   Atomic configuration                                                                             
   12 entries                                                                                       
     n  l   j            E        occ.                                                              
     1  0  0.50    -29007.2859   2.0000                                                             
     2  0  0.50     -4378.8056   2.0000                                                             
     2  1  1.50     -3930.4293   6.0000                                                             
     3  0  0.50      -845.0264   2.0000                                                             
     3  1  1.50      -698.5725   6.0000                                                             
     3  2  2.50      -473.2839  10.0000                                                             
     4  0  0.50      -133.9036   2.0000                                                             
     4  1  1.50       -89.6752   6.0000                                                             
     4  2  2.50       -25.8375  10.0000                                                             
     5  0  0.50       -10.5484   2.0000                                                             
     5  1  0.50        -3.6940   2.0000                                                             
     4  3  2.50        -2.7416   0.0000                                                             
   Description                                                                                      
     l       E           TYP  RCUT    TYP  RCUT                                                     
     2    -25.8374624     23  2.500                                                                 
     2     -5.4423304     23  2.500                                                                 
     0    -10.5483727     23  2.500                                                                 
     0     13.6058260     23  2.500                                                                 
     1     -3.6939829     23  2.500                                                                 
     1      1.9821976     23  2.500                                                                 
     3     -1.3605826      7  2.500                                                                 
  local pseudopotential read in
  partial core-charges read in
  partial kinetic energy density read in
  atomic valenz-charges read in
  non local Contribution for L=           2  read in
    real space projection operators read in
  non local Contribution for L=           2  read in
    real space projection operators read in
  non local Contribution for L=           0  read in
    real space projection operators read in
  non local Contribution for L=           0  read in
    real space projection operators read in
  non local Contribution for L=           1  read in
    real space projection operators read in
  non local Contribution for L=           1  read in
    real space projection operators read in
    PAW grid and wavefunctions read in
 
   number of l-projection  operators is LMAX  =           6
   number of lm-projection operators is LMMAX =          18
 
 POTCAR:    PAW_PBE S 06Sep2000                   
   VRHFIN =S : s2p4                                                                                 
   LEXCH  = PE                                                                                      
   EATOM  =   276.8230 eV,   20.3459 Ry                                                             
                                                                                                    
   TITEL  = PAW_PBE S 06Sep2000                                                                     
   LULTRA =        F    use ultrasoft PP ?                                                          
   IUNSCR =        1    unscreen: 0-lin 1-nonlin 2-no                                               
   RPACOR =    1.500    partial core radius                                                         
   POMASS =   32.066; ZVAL   =    6.000    mass and valenz                                          
   RCORE  =    1.900    outmost cutoff radius                                                       
   RWIGS  =    2.200; RWIGS  =    1.164    wigner-seitz radius (au A)                               
   ENMAX  =  258.689; ENMIN  =  194.016 eV                                                          
   ICORE  =        2    local potential                                                             
   LCOR   =        T    correct aug charges                                                         
   LPAW   =        T    paw PP                                                                      
   EAUG   =  335.092                                                                                
   DEXC   =    0.000                                                                                
   RMAX   =    1.942    core radius for proj-oper                                                   
   RAUG   =    1.300    factor for augmentation sphere                                              
   RDEP   =    1.954    radius for radial grids                                                     
   RDEPT  =    1.744    core radius for aug-charge                                                  
                                                                                                    
   Atomic configuration                                                                             
    6 entries                                                                                       
     n  l   j            E        occ.                                                              
     1  0  0.50     -2405.8406   2.0000                                                             
     2  0  0.50      -211.7007   2.0000                                                             
     2  1  1.50      -156.4958   6.0000                                                             
     3  0  0.50       -17.2562   2.0000                                                             
     3  1  0.50        -7.0085   4.0000                                                             
     3  2  1.50        -6.8029   0.0000                                                             
   Description                                                                                      
     l       E           TYP  RCUT    TYP  RCUT                                                     
     0    -17.2561641     23  1.900                                                                 
     0    -15.8743224     23  1.900                                                                 
     1     -7.0085400     23  1.900                                                                 
     1     -2.7779785     23  1.900                                                                 
     2     -6.8029130     23  1.900                                                                 
  local pseudopotential read in
  partial core-charges read in
  partial kinetic energy density read in
  atomic valenz-charges read in
  non local Contribution for L=           0  read in
    real space projection operators read in
  non local Contribution for L=           0  read in
    real space projection operators read in
  non local Contribution for L=           1  read in
    real space projection operators read in
  non local Contribution for L=           1  read in
    real space projection operators read in
    PAW grid and wavefunctions read in
 
   number of l-projection  operators is LMAX  =           4
   number of lm-projection operators is LMMAX =           8
 
  PAW_PBE Zn 06Sep2000                  :
 energy of atom  1       EATOM=-1748.8345
 kinetic energy error for atom=    0.0008 (will be added to EATOM!!)
  PAW_PBE Cu 22Jun2005                  :
 energy of atom  2       EATOM=-1390.9808
 kinetic energy error for atom=    0.0018 (will be added to EATOM!!)
  PAW_PBE Sn_d 06Sep2000                :
 energy of atom  3       EATOM=-1893.1092
 kinetic energy error for atom=    0.0008 (will be added to EATOM!!)
  PAW_PBE S 06Sep2000                   :
 energy of atom  4       EATOM= -276.8230
 kinetic energy error for atom=    0.0008 (will be added to EATOM!!)
 
 
 POSCAR: Zn1 Cu2 Sn1 S4
  positions in direct lattice
  No initial velocities read in
 exchange correlation table for  LEXCH =        8
   RHO(1)=    0.500       N(1)  =     2000
   RHO(2)=  100.500       N(2)  =     4000
 


--------------------------------------------------------------------------------------------------------


 ion  position               nearest neighbor table
   1  0.750  0.250  0.500-   6 2.34   8 2.34   7 2.34   5 2.34
   2  0.000  0.000  0.000-   7 2.30   5 2.30   8 2.30   6 2.30
   3  0.250  0.750  0.500-   6 2.30   5 2.30   8 2.30   7 2.30
   4  0.500  0.500  0.000-   5 2.44   6 2.44   8 2.44   7 2.44
   5  0.364  0.371  0.478-   3 2.30   2 2.30   1 2.34   4 2.44
   6  0.894  0.887  0.522-   3 2.30   2 2.30   1 2.34   4 2.44
   7  0.113  0.636  0.007-   3 2.30   2 2.30   1 2.34   4 2.44
   8  0.629  0.106  0.993-   3 2.30   2 2.30   1 2.34   4 2.44
 
  LATTYP: Found a body centered tetragonal cell.
 ALAT       =     5.4102945305
 C/A-ratio  =     2.0003379298
  
  Lattice vectors:
  
 A1 = (   4.9390118450,   0.0000000000,  -4.4184821860)
 A2 = (  -0.9875353717,   4.8392780344,  -4.4184821860)
 A3 = (   0.0000000000,   0.0000000000,   6.6269769000)


Analysis of symmetry for initial positions (statically):
=====================================================================
 Subroutine PRICEL returns:
 Original cell was already a primitive cell.
 

 Routine SETGRP: Setting up the symmetry group for a 
 body centered tetragonal supercell.


 Subroutine GETGRP returns: Found  4 space group operations
 (whereof  4 operations were pure point group operations)
 out of a pool of 16 trial point group operations.


The static configuration has the point symmetry S_4 .


Analysis of symmetry for dynamics (positions and initial velocities):
=====================================================================
 Subroutine PRICEL returns:
 Original cell was already a primitive cell.
 

 Routine SETGRP: Setting up the symmetry group for a 
 body centered tetragonal supercell.


 Subroutine GETGRP returns: Found  4 space group operations
 (whereof  4 operations were pure point group operations)
 out of a pool of 16 trial point group operations.


The dynamic configuration has the point symmetry S_4 .


 Subroutine INISYM returns: Found  4 space group operations
 (whereof  4 operations are pure point group operations),
 and found     1 'primitive' translations


----------------------------------------------------------------------------------------

                                     Primitive cell                                     

  volume of cell :     158.3930

  direct lattice vectors                    reciprocal lattice vectors
     4.939011845  0.000000000 -4.418482186     0.202469650  0.041317308  0.000000000
    -0.987535372  4.839278034 -4.418482186     0.000000000  0.206642394  0.000000000
     0.000000000  0.000000000  6.626976900     0.134994969  0.165325086  0.150898368

  length of vectors
     6.626976900  6.626976900  6.626976900     0.206642394  0.206642394  0.261393082

  position of ions in fractional coordinates (direct lattice)
     0.750000000  0.250000000  0.500000000
     0.000000000  0.000000000  0.000000000
     0.250000000  0.750000000  0.500000000
     0.500000000  0.500000000  0.000000000
     0.364327140  0.371240320  0.477580560
     0.893659770  0.886747590  0.522419440
     0.113252410  0.635672860  0.006912180
     0.628759680  0.106340230  0.993087820

  ion indices of the primitive-cell ions
   primitive index   ion index
                 1           1
                 2           2
                 3           3
                 4           4
                 5           5
                 6           6
                 7           7
                 8           8

----------------------------------------------------------------------------------------

 
 
 KPOINTS: pymatgen with grid density = 802 / numbe

Automatic generation of k-mesh.
 Grid dimensions read from file:
 generate k-points for:    4    4    4

 Generating k-lattice:

  Cartesian coordinates                     Fractional coordinates (reciprocal lattice)
     0.050617413  0.010329327  0.000000000     0.250000000 -0.000000000  0.000000000
     0.000000000  0.051660599  0.000000000     0.000000000  0.250000000  0.000000000
     0.033748742  0.041331272  0.037724592     0.000000000  0.000000000  0.250000000

  Length of vectors
     0.051660599  0.051660599  0.065348271

  Shift w.r.t. Gamma in fractional coordinates (k-lattice)
     0.000000000  0.000000000  0.000000000

 TETIRR: Found    117 inequivalent tetrahedra from      384
 
 Subroutine IBZKPT returns following result:
 ===========================================
 
 Found     14 irreducible k-points:
 
 Following reciprocal coordinates:
            Coordinates               Weight
  0.000000  0.000000  0.000000      1.000000
  0.250000  0.000000  0.000000      8.000000
  0.500000  0.000000  0.000000      4.000000
  0.250000  0.250000  0.000000      8.000000
  0.500000  0.250000  0.000000      8.000000
  0.500000 -0.250000 -0.250000      8.000000
 -0.250000  0.250000  0.000000      4.000000
  0.500000  0.500000  0.000000      2.000000
  0.250000  0.250000  0.250000      2.000000
 -0.250000  0.250000  0.250000      4.000000
  0.500000  0.500000  0.250000      4.000000
 -0.250000  0.500000  0.250000      8.000000
 -0.250000 -0.250000  0.250000      2.000000
  0.500000  0.500000  0.500000      1.000000
 
 Following cartesian coordinates:
            Coordinates               Weight
  0.000000  0.000000  0.000000      1.000000
  0.050617  0.010329  0.000000      8.000000
  0.101235  0.020659  0.000000      4.000000
  0.050617  0.061990  0.000000      8.000000
  0.101235  0.072319  0.000000      8.000000
  0.067486 -0.072333 -0.037725      8.000000
 -0.050617  0.041331  0.000000      4.000000
  0.101235  0.123980  0.000000      2.000000
  0.084366  0.103321  0.037725      2.000000
 -0.016869  0.082663  0.037725      4.000000
  0.134984  0.165311  0.037725      4.000000
 -0.016869  0.134323  0.037725      8.000000
 -0.016869 -0.020659  0.037725      2.000000
  0.168732  0.206642  0.075449      1.000000
 
 
 Subroutine IBZKPT_HF returns following result:
 ==============================================
 
 Found     64 k-points in 1st BZ
 the following     64 k-points will be used (e.g. in the exchange kernel)
 Following reciprocal coordinates:   # in IRBZ
  0.000000  0.000000  0.000000    0.01562500   1 t-inv F
  0.250000  0.000000  0.000000    0.01562500   2 t-inv F
  0.500000  0.000000  0.000000    0.01562500   3 t-inv F
  0.250000  0.250000  0.000000    0.01562500   4 t-inv F
  0.500000  0.250000  0.000000    0.01562500   5 t-inv F
  0.500000 -0.250000 -0.250000    0.01562500   6 t-inv F
 -0.250000  0.250000  0.000000    0.01562500   7 t-inv F
  0.500000  0.500000  0.000000    0.01562500   8 t-inv F
  0.250000  0.250000  0.250000    0.01562500   9 t-inv F
 -0.250000  0.250000  0.250000    0.01562500  10 t-inv F
  0.500000  0.500000  0.250000    0.01562500  11 t-inv F
 -0.250000  0.500000  0.250000    0.01562500  12 t-inv F
 -0.250000 -0.250000  0.250000    0.01562500  13 t-inv F
  0.500000  0.500000  0.500000    0.01562500  14 t-inv F
 -0.250000  0.000000  0.250000    0.01562500   2 t-inv F
  0.000000  0.250000 -0.250000    0.01562500   2 t-inv F
  0.000000 -0.250000  0.000000    0.01562500   2 t-inv F
 -0.500000  0.000000  0.500000    0.01562500   3 t-inv F
  0.000000  0.500000 -0.500000    0.01562500   3 t-inv F
  0.000000 -0.500000  0.000000    0.01562500   3 t-inv F
 -0.500000  0.000000  0.250000    0.01562500   4 t-inv F
  0.250000  0.250000 -0.500000    0.01562500   4 t-inv F
  0.000000 -0.500000  0.250000    0.01562500   4 t-inv F
 -0.750000  0.000000  0.500000    0.01562500   5 t-inv F
  0.250000  0.500000 -0.750000    0.01562500   5 t-inv F
  0.000000 -0.750000  0.250000    0.01562500   5 t-inv F
  0.000000 -0.250000  0.500000    0.01562500   6 t-inv F
 -0.250000  0.500000  0.000000    0.01562500   6 t-inv F
 -0.250000  0.000000 -0.250000    0.01562500   6 t-inv F
 -0.000000  0.000000 -0.250000    0.01562500   7 t-inv F
  0.250000 -0.250000 -0.000000    0.01562500   7 t-inv F
  0.000000 -0.000000  0.250000    0.01562500   7 t-inv F
 -1.000000  0.000000  0.500000    0.01562500   8 t-inv F
 -0.250000  0.250000 -0.250000    0.01562500  10 t-inv F
  0.250000 -0.250000 -0.250000    0.01562500  10 t-inv F
  0.250000 -0.250000  0.250000    0.01562500  10 t-inv F
 -1.250000  0.250000  0.500000    0.01562500  11 t-inv F
  0.500000  0.500000 -1.250000    0.01562500  11 t-inv F
  0.250000 -1.250000  0.500000    0.01562500  11 t-inv F
 -0.500000  0.250000 -0.250000    0.01562500  12 t-inv F
  0.500000 -0.250000 -0.500000    0.01562500  12 t-inv F
  0.250000 -0.500000  0.500000    0.01562500  12 t-inv F
  0.250000  0.250000 -0.250000    0.01562500  13 t-inv F
 -0.250000 -0.000000  0.000000    0.01562500   2 t-inv T
  0.250000  0.000000 -0.250000    0.01562500   2 t-inv T
 -0.000000 -0.250000  0.250000    0.01562500   2 t-inv T
  0.000000  0.250000 -0.000000    0.01562500   2 t-inv T
 -0.250000 -0.250000  0.000000    0.01562500   4 t-inv T
  0.500000  0.000000 -0.250000    0.01562500   4 t-inv T
 -0.250000 -0.250000  0.500000    0.01562500   4 t-inv T
  0.000000  0.500000 -0.250000    0.01562500   4 t-inv T
 -0.500000 -0.250000  0.000000    0.01562500   5 t-inv T
  0.750000  0.000000 -0.500000    0.01562500   5 t-inv T
 -0.250000 -0.500000  0.750000    0.01562500   5 t-inv T
  0.000000  0.750000 -0.250000    0.01562500   5 t-inv T
 -0.500000  0.250000  0.250000    0.01562500   6 t-inv T
 -0.000000  0.250000 -0.500000    0.01562500   6 t-inv T
  0.250000 -0.500000 -0.000000    0.01562500   6 t-inv T
  0.250000 -0.000000  0.250000    0.01562500   6 t-inv T
 -0.250000 -0.250000 -0.250000    0.01562500   9 t-inv T
  0.250000 -0.500000 -0.250000    0.01562500  12 t-inv T
  0.500000 -0.250000  0.250000    0.01562500  12 t-inv T
 -0.500000  0.250000  0.500000    0.01562500  12 t-inv T
 -0.250000  0.500000 -0.500000    0.01562500  12 t-inv T
 -----------------------------------------------------------------------------
|                                                                             |
|           W    W    AA    RRRRR   N    N  II  N    N   GGGG   !!!           |
|           W    W   A  A   R    R  NN   N  II  NN   N  G    G  !!!           |
|           W    W  A    A  R    R  N N  N  II  N N  N  G       !!!           |
|           W WW W  AAAAAA  RRRRR   N  N N  II  N  N N  G  GGG   !            |
|           WW  WW  A    A  R   R   N   NN  II  N   NN  G    G                |
|           W    W  A    A  R    R  N    N  II  N    N   GGGG   !!!           |
|                                                                             |
|     The number of bands has been changed from the values supplied in        |
|     the INCAR file. This is a result of running the parallel version.       |
|     The orbitals not found in the WAVECAR file will be initialized with     |
|     random numbers, which is usually adequate. For correlated               |
|     calculations, however, you should redo the groundstate calculation.     |
|     I found NBANDS = 58. Now, NBANDS = 60.                                  |
|                                                                             |
 -----------------------------------------------------------------------------



--------------------------------------------------------------------------------------------------------




 Dimension of arrays:
   k-points           NKPTS =     14   k-points in BZ     NKDIM =     64   number of bands    NBANDS=     60
   number of dos      NEDOS =   1706   number of ions     NIONS =      8
   non local maximal  LDIM  =      6   non local SUM 2l+1 LMDIM =     18
   total plane-waves  NPLWV = 175616
   max r-space proj   IRMAX =      1   max aug-charges    IRDMAX=  49708
   dimension x,y,z NGX =    56 NGY =   56 NGZ =   56
   dimension x,y,z NGXF=   112 NGYF=  112 NGZF=  112
   support grid    NGXF=   112 NGYF=  112 NGZF=  112
   ions per type =               1   2   1   4
   NGX,Y,Z   is equivalent  to a cutoff of  14.05, 14.05, 14.05 a.u.
   NGXF,Y,Z  is equivalent  to a cutoff of  28.10, 28.10, 28.10 a.u.

 SYSTEM =  unknown system                          
 POSCAR =  Zn1 Cu2 Sn1 S4                          

 Startparameter for this run:
   NWRITE =      2    write-flag & timer
   PREC   = accura    normal or accurate (medium, high low for compatibility)
   ISTART =      0    job   : 0-new  1-cont  2-samecut
   ICHARG =      2    charge: 1-file 2-atom 10-const
   ISPIN  =      1    spin polarized calculation?
   LNONCOLLINEAR =      F non collinear calculations
   LSORBIT =      F    spin-orbit coupling
   INIWAV =      1    electr: 0-lowe 1-rand  2-diag
   LASPH  =      T    aspherical Exc in radial PAW
 Electronic Relaxation 1
   ENCUT  =  680.0 eV  49.98 Ry    7.07 a.u.  14.09 14.09 14.09*2*pi/ulx,y,z
   ENINI  =  680.0     initial cutoff
   ENAUG  = 1360.0 eV  augmentation charge cutoff
   NELM   =    200;   NELMIN=  5; NELMDL=  0     # of ELM steps 
   EDIFF  = 0.1E-04   stopping-criterion for ELM
   LREAL  =      F    real-space projection
   NLSPLINE    = F    spline interpolate recip. space projectors
   LCOMPAT=      F    compatible to vasp.4.4
   GGA_COMPAT  = T    GGA compatible to vasp.4.4-vasp.4.6
   LMAXPAW     = -100 max onsite density
   LMAXMIX     =    4 max onsite mixed and CHGCAR
   VOSKOWN=      0    Vosko Wilk Nusair interpolation
   ROPT   =    0.00000   0.00000   0.00000   0.00000
 Ionic relaxation
   EDIFFG = 0.1E-03   stopping-criterion for IOM
   NSW    =      0    number of steps for IOM
   NBLOCK =      1;   KBLOCK =      1    inner block; outer block 
   IBRION =     -1    ionic relax: 0-MD 1-quasi-New 2-CG
   NFREE  =      0    steps in history (QN), initial steepest desc. (CG)
   ISIF   =      0    stress and relaxation
   IWAVPR =     10    prediction:  0-non 1-charg 2-wave 3-comb
   ISYM   =      3    0-nonsym 1-usesym 2-fastsym
   LCORR  =      T    Harris-Foulkes like correction to forces

   POTIM  = 0.5000    time-step for ionic-motion
   TEIN   =    0.0    initial temperature
   TEBEG  =    0.0;   TEEND  =   0.0 temperature during run
   SMASS  =  -3.00    Nose mass-parameter (am)
   estimated Nose-frequenzy (Omega)   =  0.10E-29 period in steps = 0.13E+47 mass=  -0.100E-26a.u.
   SCALEE = 1.0000    scale energy and forces
   NPACO  =    256;   APACO  = 10.0  distance and # of slots for P.C.
   PSTRESS=    0.0 pullay stress

  Mass of Ions in am
   POMASS =  65.39 63.55118.71 32.07
  Ionic Valenz
   ZVAL   =  12.00 11.00 14.00  6.00
  Atomic Wigner-Seitz radii
   RWIGS  =  -1.00 -1.00 -1.00 -1.00
  virtual crystal weights 
   VCA    =   1.00  1.00  1.00  1.00
   NELECT =      72.0000    total number of electrons
   NUPDOWN=      -1.0000    fix difference up-down

 DOS related values:
   EMIN   =  10.00;   EMAX   =-10.00  energy-range for DOS
   EFERMI =   0.00;   METHOD = LEGACY      
   ISMEAR =    -5;   SIGMA  =   0.05  broadening in eV -4-tet -1-fermi 0-gaus

 Electronic relaxation 2 (details)
   IALGO  =     38    algorithm
   LDIAG  =      T    sub-space diagonalisation (order eigenvalues)
   LSUBROT=      F    optimize rotation matrix (better conditioning)
   TURBO    =      0    0=normal 1=particle mesh
   IRESTART =      0    0=no restart 2=restart with 2 vectors
   NREBOOT  =      0    no. of reboots
   NMIN     =      0    reboot dimension
   EREF     =   0.00    reference energy to select bands
   IMIX   =      1    mixing-type and parameters
     AMIX     =   0.40;   BMIX     =  1.00
     AMIX_MAG =   1.60;   BMIX_MAG =  1.00
     AMIN     =   0.10
     WC   =   100.;   INIMIX=   1;  MIXPRE=   1;  MAXMIX= -45

 Intra band minimization:
   WEIMIN = 0.0000     energy-eigenvalue tresh-hold
   EBREAK =  0.42E-07  absolut break condition
   DEPER  =   0.30     relativ break condition  

   TIME   =   0.40     timestep for ELM

  volume/ion in A,a.u.               =      19.80       133.61
  Fermi-wavevector in a.u.,A,eV,Ry     =   1.258752  2.378697 21.557853  1.584457
  Thomas-Fermi vector in A             =   2.392346
 
 Write flags
   LWAVE        =      F    write WAVECAR
   LDOWNSAMPLE  =      F    k-point downsampling of WAVECAR
   LCHARG       =      F    write CHGCAR
   LVTOT        =      T    write LOCPOT, total local potential
   LVHAR        =      F    write LOCPOT, Hartree potential only
   LELF         =      F    write electronic localiz. function (ELF)
   LORBIT       =     11    0 simple, 1 ext, 2 COOP (PROOUT), +10 PAW based schemes


 Dipole corrections
   LMONO  =      F    monopole corrections only (constant potential shift)
   LDIPOL =      F    correct potential (dipole corrections)
   IDIPOL =      0    1-x, 2-y, 3-z, 4-all directions 
   EPSILON=  1.0000000 bulk dielectric constant

 Exchange correlation treatment:
   GGA     =    PE    GGA type
   LEXCH   =     8    internal setting for exchange type
   LIBXC   =     F    Libxc                    
   VOSKOWN =     0    Vosko Wilk Nusair interpolation
   EXXOEP  =     0    0=HF, 1=EXX-LHF (local Hartree Fock) 2=EXX OEP
   LHFCALC =     T    Hartree Fock is set to
   LSYMGRAD=     F    symmetrize gradient (conserves proper symmetry)
   PRECFOCK=accur.    Normal, Fast or Accurate (Low or Medium for compatibility)
   LRHFCALC=     F    long range Hartree Fock
   LRSCOR  =     F    long range correlation only (use DFT for short range part)
   LTHOMAS =     F    Thomas Fermi screening in HF
   LMODELHF=     F    short range full HF, long range fraction AEXX
   FOCKCORR=     1    mode to apply convergence corrections
   LFOCKACE=     T    use Adeptively-Compressed-Exchange operator
   ENCUT4O =  -1.0   cutoff for four orbital integrals eV
   LMAXFOCK=     4    L truncation for augmentation on plane wave grid
   LMAXFOCKAE=  -1    L truncation for all-electron charge restoration on plane wave grid
   NMAXFOCKAE=   1    number of basis functions for all-electron charge restoration
   LFOCKAEDFT=     F  apply the AE augmentation even for DFT
   NKREDX  =     1    reduce k-point grid by
   NKREDY  =     1    reduce k-point grid by
   NKREDZ  =     1    reduce k-point grid by
   SHIFTRED=     F    shift reduced grid of Gamma
   HFKIDENT=     F    idential grid for each k-point
   ODDONLY =     F    use only odd q-grid points
   EVENONLY=     F    use only even q-grid points
   HFALPHA =   -1.0000 decay constant for conv. correction
   MCALPHA =    0.0000 extent of test-charge in conv. correction in multipole expansion
   AEXX    =    0.2500 exact exchange contribution
   HFSCREEN=    0.2000 screening length (either q_TF or 0.3 A-1)
   HFSCREENC=   0.2000 screening length for correlation (either q_TF or 0.3 A-1)
   HFRCUT  =    0.0000 spherical cutoff for potential kernel
   ALDAX   =    0.7500 LDA exchange part
   AGGAX   =    0.7500 GGA exchange part
   ALDAC   =    1.0000 LDA correlation
   AGGAC   =    1.0000 GGA correlation
   ENCUTFOCK=  -1.0 apply spherical cutoff to Coloumb kernel
   NBANDSGWLOW=     1    first orbital included in HF term
   NBLOCK_FOCK=    64    blocking factor in FOCK_ACC

 Linear response parameters
   LEPSILON=     F    determine dielectric tensor
   LRPA    =     F    only Hartree local field effects (RPA)
   LNABLA  =     F    use nabla operator in PAW spheres
   LVEL    =     F    velocity operator in full k-point grid
   CSHIFT  =0.0000    complex shift for real part using Kramers Kronig
   OMEGAMAX=  -1.0    maximum frequency
   DEG_THRESHOLD= 0.2000000E-02 threshold for treating states as degnerate
   RTIME   =   -0.100 relaxation time in fs
  (WPLASMAI=    0.000 imaginary part of plasma frequency in eV, 0.658/RTIME)
   DFIELD  = 0.0000000 0.0000000 0.0000000 field for delta impulse in time
 
  Optional k-point grid parameters
   LKPOINTS_OPT  =     F    use optional k-point grid
   KPOINTS_OPT_MODE=     1    mode for optional k-point grid
 
 Orbital magnetization related:
   ORBITALMAG=     F  switch on orbital magnetization
   LCHIMAG   =     F  perturbation theory with respect to B field
   DQ        =  0.001000  dq finite difference perturbation B field
   LLRAUG    =     F  two centre corrections for induced B field
   LBONE     =     F  B-component reconstruction in AE one-centre
   LVGVCALC  =     T  calculate vGv susceptibility
   LVGVAPPL  =     F  apply vGv susceptibility instead of pGv for G=0

 Random number generation:
   RANDOM_GENERATOR = DEFAULT
   PCG_SEED         = not used


--------------------------------------------------------------------------------------------------------


 Static calculation
 charge density and potential will be updated during run
 non-spin polarized calculation
 Variant of blocked Davidson
 Davidson routine will perform the subspace rotation
 perform sub-space diagonalisation
    after iterative eigenvector-optimisation
 Kerker-like  mixing scheme
 using additional bands           24
 reciprocal scheme for non local part
 use partial core corrections
 calculate Harris-corrections to forces 
   (improved forces if not selfconsistent)
 use gradient corrections 
 use of overlap-Matrix (Vanderbilt PP)
 Fermi weights with tetrahedron method with Bloechl corrections


--------------------------------------------------------------------------------------------------------


  energy-cutoff  :      680.00
  volume of cell :      158.39
      direct lattice vectors                 reciprocal lattice vectors
     4.939011845  0.000000000 -4.418482186     0.202469650  0.041317308  0.000000000
    -0.987535372  4.839278034 -4.418482186     0.000000000  0.206642394  0.000000000
     0.000000000  0.000000000  6.626976900     0.134994969  0.165325086  0.150898368

  length of vectors
     6.626976900  6.626976900  6.626976900     0.206642394  0.206642394  0.261393082


 
 k-points in units of 2pi/SCALE and weight: pymatgen with grid density = 802 / numbe
   0.00000000  0.00000000  0.00000000       0.016
   0.05061741  0.01032933  0.00000000       0.125
   0.10123483  0.02065865  0.00000000       0.062
   0.05061741  0.06198993  0.00000000       0.125
   0.10123483  0.07231925  0.00000000       0.125
   0.06748608 -0.07233322 -0.03772459       0.125
  -0.05061741  0.04133127  0.00000000       0.062
   0.10123483  0.12397985  0.00000000       0.031
   0.08436615  0.10332120  0.03772459       0.031
  -0.01686867  0.08266254  0.03772459       0.062
   0.13498357  0.16531112  0.03772459       0.062
  -0.01686867  0.13432314  0.03772459       0.125
  -0.01686867 -0.02065865  0.03772459       0.031
   0.16873231  0.20664239  0.07544918       0.016
 
 k-points in reciprocal lattice and weights: pymatgen with grid density = 802 / numbe
   0.00000000  0.00000000  0.00000000       0.016
   0.25000000  0.00000000  0.00000000       0.125
   0.50000000  0.00000000  0.00000000       0.062
   0.25000000  0.25000000  0.00000000       0.125
   0.50000000  0.25000000  0.00000000       0.125
   0.50000000 -0.25000000 -0.25000000       0.125
  -0.25000000  0.25000000  0.00000000       0.062
   0.50000000  0.50000000  0.00000000       0.031
   0.25000000  0.25000000  0.25000000       0.031
  -0.25000000  0.25000000  0.25000000       0.062
   0.50000000  0.50000000  0.25000000       0.062
  -0.25000000  0.50000000  0.25000000       0.125
  -0.25000000 -0.25000000  0.25000000       0.031
   0.50000000  0.50000000  0.50000000       0.016
 
 position of ions in fractional coordinates (direct lattice) 
   0.75000000  0.25000000  0.50000000
   0.00000000  0.00000000  0.00000000
   0.25000000  0.75000000  0.50000000
   0.50000000  0.50000000  0.00000000
   0.36432714  0.37124032  0.47758056
   0.89365977  0.88674759  0.52241944
   0.11325241  0.63567286  0.00691218
   0.62875968  0.10634023  0.99308782
 
 position of ions in cartesian coordinates  (Angst):
   3.45737504  1.20981951 -1.10499374
   0.00000000  0.00000000  0.00000000
   0.49410143  3.62945853 -1.10499374
   1.97573824  2.41963902 -4.41848219
   1.43280311  1.79653513 -0.08517638
   3.53810158  4.29121813 -4.40463664
  -0.06839444  3.07619771 -3.26330611
   3.00043677  0.51460994  3.33314419
 


--------------------------------------------------------------------------------------------------------


 k-point   1 :   0.0000 0.0000 0.0000  plane waves:    6435
 k-point   2 :   0.2500 0.0000 0.0000  plane waves:    6376
 k-point   3 :   0.5000 0.0000 0.0000  plane waves:    6380
 k-point   4 :   0.2500 0.2500 0.0000  plane waves:    6388
 k-point   5 :   0.5000 0.2500 0.0000  plane waves:    6371
 k-point   6 :   0.5000-0.2500-0.2500  plane waves:    6371
 k-point   7 :  -0.2500 0.2500 0.0000  plane waves:    6368
 k-point   8 :   0.5000 0.5000 0.0000  plane waves:    6288
 k-point   9 :   0.2500 0.2500 0.2500  plane waves:    6360
 k-point  10 :  -0.2500 0.2500 0.2500  plane waves:    6368
 k-point  11 :   0.5000 0.5000 0.2500  plane waves:    6386
 k-point  12 :  -0.2500 0.5000 0.2500  plane waves:    6399
 k-point  13 :  -0.2500-0.2500 0.2500  plane waves:    6383
 k-point  14 :   0.5000 0.5000 0.5000  plane waves:    6400

 maximum and minimum number of plane-waves per node :       348      288

 maximum number of plane-waves:      6435
 maximum index in each direction: 
   IXMAX=   14   IYMAX=   14   IZMAX=   14
   IXMIN=  -14   IYMIN=  -14   IZMIN=  -14


 parallel 3D FFT for wavefunctions:
    minimum data exchange during FFTs selected (reduces bandwidth)
 parallel 3D FFT for charge:
    minimum data exchange during FFTs selected (reduces bandwidth)

 
 Radii for the augmentation spheres in the non-local exchange
 for species   1 augmentation radius   1.190 (default was   0.952)
       energy cutoff for augmentation   2720.0
 for species   2 augmentation radius   1.179 (default was   0.943)
       energy cutoff for augmentation   2720.0
 for species   3 augmentation radius   1.362 (default was   1.089)
       energy cutoff for augmentation   2720.0
 for species   4 augmentation radius   1.212 (default was   0.970)
       energy cutoff for augmentation   2720.0

 real space projection operators:
  total allocation   :       9084.61 KBytes
  max/ min on nodes  :        485.20        348.80

 Maximum index for augmentation-charges in exchange          651
  SETUP_FOCK is finished

 total amount of memory used by VASP MPI-rank0    38439. kBytes
=======================================================================

   base      :      30000. kBytes
   nonl-proj :       2949. kBytes
   fftplans  :       1032. kBytes
   grid      :       1294. kBytes
   one-center:         15. kBytes
   HF        :         64. kBytes
   nonlr-proj:       2239. kBytes
   wavefun   :        846. kBytes
 
     INWAV:  cpu time      0.0001: real time      0.0007
 initial charge density was supplied:
 charge density of overlapping atoms calculated
 number of electron      72.0000000 magnetization 
 keeping initial charge density in first step


--------------------------------------------------------------------------------------------------------


 Maximum index for augmentation-charges         1075 (set IRDMAX)


--------------------------------------------------------------------------------------------------------


 First call to EWALD:  gamma=   0.328
 Maximum number of real-space cells 3x 3x 4
 Maximum number of reciprocal cells 3x 3x 3

    FEWALD:  cpu time      0.0020: real time      0.0024


--------------------------------------- Ionic step        1  -------------------------------------------




--------------------------------------- Iteration      1(   1)  ---------------------------------------


    POTLOK:  cpu time      0.0238: real time      0.0437
    SETDIJ:  cpu time      0.1296: real time      0.1304
     EDDAV:  cpu time      0.4892: real time      0.5518
 BZINTS: Fermi energy:   19.586160;   72.000000 electrons
         Band energy: 0.475158E+03;  BLOECHL correction:   -0.139474
       DOS:  cpu time      0.0208: real time      0.0208
    --------------------------------------------
      LOOP:  cpu time      0.6634: real time      0.7468

 eigenvalue-minimisations  :  1860
 total energy-change (2. order) :-0.2133032E+04  (-0.3703840E+04)
 number of electron      72.0000000 magnetization 
 augmentation part       72.0000000 magnetization 

 Free energy of the ion-electron system (eV)
  ---------------------------------------------------
  alpha Z        PSCENC =       202.50320330
  Ewald energy   TEWEN  =     -5034.42253749
  -Hartree energ DENC   =     -2428.65725175
  -exchange      EXHF   =         0.00000000
  -V(xc)+E(xc)   XCENC  =       254.67490769
  PAW double counting   =      6350.46103916    -9469.82004884
  entropy T*S    EENTRO =         0.00000000
  eigenvalues    EBANDS =       475.15824874
  atomic energy  EATOM  =      7517.07041424
  Solvation  Ediel_sol  =         0.00000000
  ---------------------------------------------------
  free energy    TOTEN  =     -2133.03202495 eV

  energy without entropy =    -2133.03202495  energy(sigma->0) =    -2133.03202495
  exchange ACFDT corr.  =         0.00000000  see jH, gK, PRB 81, 115126


--------------------------------------------------------------------------------------------------------




--------------------------------------- Iteration      1(   2)  ---------------------------------------


     EDDAV:  cpu time      0.4443: real time      0.4494
 BZINTS: Fermi energy:    6.472197;   72.000000 electrons
         Band energy:-0.193249E+03;  BLOECHL correction:    0.000000
       DOS:  cpu time      0.0140: real time      0.0140
    --------------------------------------------
      LOOP:  cpu time      0.4583: real time      0.4634

 eigenvalue-minimisations  :  1680
 total energy-change (2. order) :-0.6684070E+03  (-0.6088751E+03)
 number of electron      72.0000000 magnetization 
 augmentation part       72.0000000 magnetization 

 Free energy of the ion-electron system (eV)
  ---------------------------------------------------
  alpha Z        PSCENC =       202.50320330
  Ewald energy   TEWEN  =     -5034.42253749
  -Hartree energ DENC   =     -2428.65725175
  -exchange      EXHF   =         0.00000000
  -V(xc)+E(xc)   XCENC  =       254.67490769
  PAW double counting   =      6350.46103916    -9469.82004884
  entropy T*S    EENTRO =         0.00000000
  eigenvalues    EBANDS =      -193.24879329
  atomic energy  EATOM  =      7517.07041424
  Solvation  Ediel_sol  =         0.00000000
  ---------------------------------------------------
  free energy    TOTEN  =     -2801.43906697 eV

  energy without entropy =    -2801.43906697  energy(sigma->0) =    -2801.43906697
  exchange ACFDT corr.  =         0.00000000  see jH, gK, PRB 81, 115126


--------------------------------------------------------------------------------------------------------




--------------------------------------- Iteration      1(   3)  ---------------------------------------


     EDDAV:  cpu time      0.4815: real time      0.4974
 BZINTS: Fermi energy:    3.180341;   72.000000 electrons
         Band energy:-0.318425E+03;  BLOECHL correction:    0.000000
       DOS:  cpu time      0.0115: real time      0.0115
    --------------------------------------------
      LOOP:  cpu time      0.4930: real time      0.5089

 eigenvalue-minimisations  :  1920
 total energy-change (2. order) :-0.1251761E+03  (-0.1205729E+03)
 number of electron      72.0000000 magnetization 
 augmentation part       72.0000000 magnetization 

 Free energy of the ion-electron system (eV)
  ---------------------------------------------------
  alpha Z        PSCENC =       202.50320330
  Ewald energy   TEWEN  =     -5034.42253749
  -Hartree energ DENC   =     -2428.65725175
  -exchange      EXHF   =         0.00000000
  -V(xc)+E(xc)   XCENC  =       254.67490769
  PAW double counting   =      6350.46103916    -9469.82004884
  entropy T*S    EENTRO =         0.00000000
  eigenvalues    EBANDS =      -318.42490938
  atomic energy  EATOM  =      7517.07041424
  Solvation  Ediel_sol  =         0.00000000
  ---------------------------------------------------
  free energy    TOTEN  =     -2926.61518306 eV

  energy without entropy =    -2926.61518306  energy(sigma->0) =    -2926.61518306
  exchange ACFDT corr.  =         0.00000000  see jH, gK, PRB 81, 115126


--------------------------------------------------------------------------------------------------------




--------------------------------------- Iteration      1(   4)  ---------------------------------------


     EDDAV:  cpu time      0.5691: real time      0.5855
 BZINTS: Fermi energy:    2.963474;   72.000000 electrons
         Band energy:-0.325396E+03;  BLOECHL correction:    0.000000
       DOS:  cpu time      0.0122: real time      0.0122
    --------------------------------------------
      LOOP:  cpu time      0.5812: real time      0.5977

 eigenvalue-minimisations  :  2088
 total energy-change (2. order) :-0.6971137E+01  (-0.6931359E+01)
 number of electron      72.0000000 magnetization 
 augmentation part       72.0000000 magnetization 

 Free energy of the ion-electron system (eV)
  ---------------------------------------------------
  alpha Z        PSCENC =       202.50320330
  Ewald energy   TEWEN  =     -5034.42253749
  -Hartree energ DENC   =     -2428.65725175
  -exchange      EXHF   =         0.00000000
  -V(xc)+E(xc)   XCENC  =       254.67490769
  PAW double counting   =      6350.46103916    -9469.82004884
  entropy T*S    EENTRO =         0.00000000
  eigenvalues    EBANDS =      -325.39604652
  atomic energy  EATOM  =      7517.07041424
  Solvation  Ediel_sol  =         0.00000000
  ---------------------------------------------------
  free energy    TOTEN  =     -2933.58632020 eV

  energy without entropy =    -2933.58632020  energy(sigma->0) =    -2933.58632020
  exchange ACFDT corr.  =         0.00000000  see jH, gK, PRB 81, 115126


--------------------------------------------------------------------------------------------------------




--------------------------------------- Iteration      1(   5)  ---------------------------------------


    POTLOK:  cpu time      0.0288: real time      0.0458
    SETDIJ:  cpu time      0.3448: real time      0.3457
     EDDAV:  cpu time    188.4451: real time    188.9674
 BZINTS: Fermi energy:    3.791216;   72.000000 electrons
         Band energy:-0.290787E+03;  BLOECHL correction:    0.000000
       DOS:  cpu time      0.0117: real time      0.0118
    CHARGE:  cpu time      0.0732: real time      0.0737
    MIXING:  cpu time      0.0003: real time      0.0003
    --------------------------------------------
      LOOP:  cpu time    188.9040: real time    189.4447

 eigenvalue-minimisations  :  2196
 total energy-change (2. order) : 0.2893745E+04  (-0.2430201E+01)
 number of electron      71.9999997 magnetization 
 augmentation part       26.6433361 magnetization 

 Free energy of the ion-electron system (eV)
  ---------------------------------------------------
  alpha Z        PSCENC =       202.50320330
  Ewald energy   TEWEN  =     -5034.42253749
  -Hartree energ DENC   =     -2428.65725175
  -exchange      EXHF   =       178.73658024
  -V(xc)+E(xc)   XCENC  =       193.13699320
  PAW double counting   =      6409.19578704    -6786.61824001
  entropy T*S    EENTRO =         0.00000000
  eigenvalues    EBANDS =      -290.78675943
  atomic energy  EATOM  =      7517.07041424
  Solvation  Ediel_sol  =         0.00000000
  ---------------------------------------------------
  free energy    TOTEN  =       -39.84181067 eV

  energy without entropy =      -39.84181067  energy(sigma->0) =      -39.84181067
  exchange ACFDT corr.  =         0.00000000  see jH, gK, PRB 81, 115126


--------------------------------------------------------------------------------------------------------




--------------------------------------- Iteration      1(   6)  ---------------------------------------


    POTLOK:  cpu time      0.0233: real time      0.0383
    SETDIJ:  cpu time      0.3366: real time      0.3376
     EDDAV:  cpu time    189.5560: real time    190.0439
 BZINTS: Fermi energy:    4.172032;   72.000000 electrons
         Band energy:-0.286855E+03;  BLOECHL correction:    0.000000
       DOS:  cpu time      0.0126: real time      0.0127
    CHARGE:  cpu time      0.0745: real time      0.0747
    MIXING:  cpu time      0.0002: real time      0.0002
    --------------------------------------------
      LOOP:  cpu time    190.0032: real time    190.5073

 eigenvalue-minimisations  :  2664
 total energy-change (2. order) : 0.1103658E+01  (-0.2884602E+00)
 number of electron      71.9999995 magnetization 
 augmentation part       26.5406677 magnetization 

 Free energy of the ion-electron system (eV)
  ---------------------------------------------------
  alpha Z        PSCENC =       202.50320330
  Ewald energy   TEWEN  =     -5034.42253749
  -Hartree energ DENC   =     -2425.52514396
  -exchange      EXHF   =       174.40490233
  -V(xc)+E(xc)   XCENC  =       193.62242407
  PAW double counting   =      7218.63936932    -7598.17607926
  entropy T*S    EENTRO =         0.00000000
  eigenvalues    EBANDS =      -286.85470523
  atomic energy  EATOM  =      7517.07041424
  Solvation  Ediel_sol  =         0.00000000
  ---------------------------------------------------
  free energy    TOTEN  =       -38.73815268 eV

  energy without entropy =      -38.73815268  energy(sigma->0) =      -38.73815268
  exchange ACFDT corr.  =         0.00000000  see jH, gK, PRB 81, 115126


--------------------------------------------------------------------------------------------------------




--------------------------------------- Iteration      1(   7)  ---------------------------------------


    POTLOK:  cpu time      0.0244: real time      0.0406
    SETDIJ:  cpu time      0.3336: real time      0.3344
     EDDAV:  cpu time    190.0934: real time    190.5814
 BZINTS: Fermi energy:    4.107927;   72.000000 electrons
         Band energy:-0.294715E+03;  BLOECHL correction:    0.000000
       DOS:  cpu time      0.0131: real time      0.0132
    CHARGE:  cpu time      0.0788: real time      0.0790
    MIXING:  cpu time      0.0002: real time      0.0002
    --------------------------------------------
      LOOP:  cpu time    190.5434: real time    191.0487

 eigenvalue-minimisations  :  2640
 total energy-change (2. order) : 0.7426546E-01  (-0.1162566E+00)
 number of electron      71.9999993 magnetization 
 augmentation part       26.7381170 magnetization 

 Free energy of the ion-electron system (eV)
  ---------------------------------------------------
  alpha Z        PSCENC =       202.50320330
  Ewald energy   TEWEN  =     -5034.42253749
  -Hartree energ DENC   =     -2415.34736629
  -exchange      EXHF   =       172.73688572
  -V(xc)+E(xc)   XCENC  =       193.53991529
  PAW double counting   =      7957.23810906    -8337.26770040
  entropy T*S    EENTRO =         0.00000000
  eigenvalues    EBANDS =      -294.71481065
  atomic energy  EATOM  =      7517.07041424
  Solvation  Ediel_sol  =         0.00000000
  ---------------------------------------------------
  free energy    TOTEN  =       -38.66388722 eV

  energy without entropy =      -38.66388722  energy(sigma->0) =      -38.66388722
  exchange ACFDT corr.  =         0.00000000  see jH, gK, PRB 81, 115126


--------------------------------------------------------------------------------------------------------




--------------------------------------- Iteration      1(   8)  ---------------------------------------


    POTLOK:  cpu time      0.0240: real time      0.0422
    SETDIJ:  cpu time      0.3333: real time      0.3341
     EDDAV:  cpu time    189.3367: real time    189.8227
 BZINTS: Fermi energy:    4.234348;   72.000000 electrons
         Band energy:-0.290625E+03;  BLOECHL correction:    0.000000
       DOS:  cpu time      0.0137: real time      0.0138
    CHARGE:  cpu time      0.0868: real time      0.0870
    MIXING:  cpu time      0.0003: real time      0.0003
    --------------------------------------------
      LOOP:  cpu time    189.7948: real time    190.3001

 eigenvalue-minimisations  :  2652
 total energy-change (2. order) :-0.9661985E-02  (-0.2556481E-01)
 number of electron      71.9999993 magnetization 
 augmentation part       26.6909492 magnetization 

 Free energy of the ion-electron system (eV)
  ---------------------------------------------------
  alpha Z        PSCENC =       202.50320330
  Ewald energy   TEWEN  =     -5034.42253749
  -Hartree energ DENC   =     -2416.19948446
  -exchange      EXHF   =       172.72547750
  -V(xc)+E(xc)   XCENC  =       193.62797627
  PAW double counting   =      8514.06252560    -8897.41567277
  entropy T*S    EENTRO =         0.00000000
  eigenvalues    EBANDS =      -290.62545140
  atomic energy  EATOM  =      7517.07041424
  Solvation  Ediel_sol  =         0.00000000
  ---------------------------------------------------
  free energy    TOTEN  =       -38.67354920 eV

  energy without entropy =      -38.67354920  energy(sigma->0) =      -38.67354920
  exchange ACFDT corr.  =         0.00000000  see jH, gK, PRB 81, 115126


--------------------------------------------------------------------------------------------------------




--------------------------------------- Iteration      1(   9)  ---------------------------------------


    POTLOK:  cpu time      0.0251: real time      0.0774
    SETDIJ:  cpu time      0.3473: real time      0.3482
     EDDAV:  cpu time    188.9638: real time    189.4484
 BZINTS: Fermi energy:    4.214902;   72.000000 electrons
         Band energy:-0.290499E+03;  BLOECHL correction:    0.000000
       DOS:  cpu time      0.0126: real time      0.0127
    CHARGE:  cpu time      0.0750: real time      0.0752
    MIXING:  cpu time      0.0002: real time      0.0002
    --------------------------------------------
      LOOP:  cpu time    189.4240: real time    189.9622

 eigenvalue-minimisations  :  2376
 total energy-change (2. order) : 0.1504847E-01  (-0.1960079E-02)
 number of electron      71.9999992 magnetization 
 augmentation part       26.6768692 magnetization 

 Free energy of the ion-electron system (eV)
  ---------------------------------------------------
  alpha Z        PSCENC =       202.50320330
  Ewald energy   TEWEN  =     -5034.42253749
  -Hartree energ DENC   =     -2414.51283406
  -exchange      EXHF   =       172.41744087
  -V(xc)+E(xc)   XCENC  =       193.59216936
  PAW double counting   =      8915.38105038    -9300.18823986
  entropy T*S    EENTRO =         0.00000000
  eigenvalues    EBANDS =      -290.49916748
  atomic energy  EATOM  =      7517.07041424
  Solvation  Ediel_sol  =         0.00000000
  ---------------------------------------------------
  free energy    TOTEN  =       -38.65850073 eV

  energy without entropy =      -38.65850073  energy(sigma->0) =      -38.65850073
  exchange ACFDT corr.  =         0.00000000  see jH, gK, PRB 81, 115126


--------------------------------------------------------------------------------------------------------




--------------------------------------- Iteration      1(  10)  ---------------------------------------


    POTLOK:  cpu time      0.0220: real time      0.0383
    SETDIJ:  cpu time      0.3328: real time      0.3337
     EDDAV:  cpu time    190.0599: real time    190.5400
 BZINTS: Fermi energy:    4.213949;   72.000000 electrons
         Band energy:-0.291139E+03;  BLOECHL correction:    0.000000
       DOS:  cpu time      0.0137: real time      0.0138
    CHARGE:  cpu time      0.0710: real time      0.0712
    MIXING:  cpu time      0.0002: real time      0.0002
    --------------------------------------------
      LOOP:  cpu time    190.4995: real time    190.9972

 eigenvalue-minimisations  :  2664
 total energy-change (2. order) : 0.4315268E-02  (-0.7952233E-03)
 number of electron      71.9999992 magnetization 
 augmentation part       26.6817585 magnetization 

 Free energy of the ion-electron system (eV)
  ---------------------------------------------------
  alpha Z        PSCENC =       202.50320330
  Ewald energy   TEWEN  =     -5034.42253749
  -Hartree energ DENC   =     -2413.13465491
  -exchange      EXHF   =       172.41636115
  -V(xc)+E(xc)   XCENC  =       193.56334424
  PAW double counting   =      9143.16686685    -9528.67833382
  entropy T*S    EENTRO =         0.00000000
  eigenvalues    EBANDS =      -291.13884903
  atomic energy  EATOM  =      7517.07041424
  Solvation  Ediel_sol  =         0.00000000
  ---------------------------------------------------
  free energy    TOTEN  =       -38.65418546 eV

  energy without entropy =      -38.65418546  energy(sigma->0) =      -38.65418546
  exchange ACFDT corr.  =         0.00000000  see jH, gK, PRB 81, 115126


--------------------------------------------------------------------------------------------------------




--------------------------------------- Iteration      1(  11)  ---------------------------------------


    POTLOK:  cpu time      0.0238: real time      0.0397
    SETDIJ:  cpu time      0.3327: real time      0.3337
     EDDAV:  cpu time    190.0909: real time    190.5716
 BZINTS: Fermi energy:    4.210185;   72.000000 electrons
         Band energy:-0.291013E+03;  BLOECHL correction:    0.000000
       DOS:  cpu time      0.0120: real time      0.0121
    CHARGE:  cpu time      0.0734: real time      0.0736
    MIXING:  cpu time      0.0002: real time      0.0002
    --------------------------------------------
      LOOP:  cpu time    190.5331: real time    191.0308

 eigenvalue-minimisations  :  2532
 total energy-change (2. order) : 0.7231717E-03  (-0.1496838E-03)
 number of electron      71.9999992 magnetization 
 augmentation part       26.6789379 magnetization 

 Free energy of the ion-electron system (eV)
  ---------------------------------------------------
  alpha Z        PSCENC =       202.50320330
  Ewald energy   TEWEN  =     -5034.42253749
  -Hartree energ DENC   =     -2412.80498767
  -exchange      EXHF   =       172.49140370
  -V(xc)+E(xc)   XCENC  =       193.56741205
  PAW double counting   =      9258.35628452    -9644.40173649
  entropy T*S    EENTRO =         0.00000000
  eigenvalues    EBANDS =      -291.01291844
  atomic energy  EATOM  =      7517.07041424
  Solvation  Ediel_sol  =         0.00000000
  ---------------------------------------------------
  free energy    TOTEN  =       -38.65346229 eV

  energy without entropy =      -38.65346229  energy(sigma->0) =      -38.65346229
  exchange ACFDT corr.  =         0.00000000  see jH, gK, PRB 81, 115126


--------------------------------------------------------------------------------------------------------




--------------------------------------- Iteration      1(  12)  ---------------------------------------


    POTLOK:  cpu time      0.0380: real time      0.0387
    SETDIJ:  cpu time      0.3355: real time      0.3365
     EDDAV:  cpu time    189.3852: real time    189.8713
 BZINTS: Fermi energy:    4.208030;   72.000000 electrons
         Band energy:-0.290950E+03;  BLOECHL correction:    0.000000
       DOS:  cpu time      0.0120: real time      0.0121
    CHARGE:  cpu time      0.0855: real time      0.0858
    MIXING:  cpu time      0.0003: real time      0.0003
    --------------------------------------------
      LOOP:  cpu time    189.8564: real time    190.3447

 eigenvalue-minimisations  :  2184
 total energy-change (2. order) : 0.1400361E-03  (-0.5279492E-04)
 number of electron      71.9999992 magnetization 
 augmentation part       26.6777752 magnetization 

 Free energy of the ion-electron system (eV)
  ---------------------------------------------------
  alpha Z        PSCENC =       202.50320330
  Ewald energy   TEWEN  =     -5034.42253749
  -Hartree energ DENC   =     -2412.58245412
  -exchange      EXHF   =       172.49883708
  -V(xc)+E(xc)   XCENC  =       193.57064428
  PAW double counting   =      9320.39468114    -9706.73595291
  entropy T*S    EENTRO =         0.00000000
  eigenvalues    EBANDS =      -290.95015777
  atomic energy  EATOM  =      7517.07041424
  Solvation  Ediel_sol  =         0.00000000
  ---------------------------------------------------
  free energy    TOTEN  =       -38.65332225 eV

  energy without entropy =      -38.65332225  energy(sigma->0) =      -38.65332225
  exchange ACFDT corr.  =         0.00000000  see jH, gK, PRB 81, 115126


--------------------------------------------------------------------------------------------------------




--------------------------------------- Iteration      1(  13)  ---------------------------------------


    POTLOK:  cpu time      0.0491: real time      0.0499
    SETDIJ:  cpu time      0.3430: real time      0.3438
     EDDAV:  cpu time    189.0734: real time    189.5584
 BZINTS: Fermi energy:    4.207541;   72.000000 electrons
         Band energy:-0.290895E+03;  BLOECHL correction:    0.000000
       DOS:  cpu time      0.0147: real time      0.0148
    CHARGE:  cpu time      0.0708: real time      0.0710
    MIXING:  cpu time      0.0002: real time      0.0002
    --------------------------------------------
      LOOP:  cpu time    189.5512: real time    190.0381

 eigenvalue-minimisations  :  2376
 total energy-change (2. order) :-0.2067953E-04  (-0.1497938E-04)
 number of electron      71.9999992 magnetization 
 augmentation part       26.6776942 magnetization 

 Free energy of the ion-electron system (eV)
  ---------------------------------------------------
  alpha Z        PSCENC =       202.50320330
  Ewald energy   TEWEN  =     -5034.42253749
  -Hartree energ DENC   =     -2412.46211504
  -exchange      EXHF   =       172.49939061
  -V(xc)+E(xc)   XCENC  =       193.57290272
  PAW double counting   =      9352.70129453    -9739.22051068
  entropy T*S    EENTRO =         0.00000000
  eigenvalues    EBANDS =      -290.89538513
  atomic energy  EATOM  =      7517.07041424
  Solvation  Ediel_sol  =         0.00000000
  ---------------------------------------------------
  free energy    TOTEN  =       -38.65334293 eV

  energy without entropy =      -38.65334293  energy(sigma->0) =      -38.65334293
  exchange ACFDT corr.  =         0.00000000  see jH, gK, PRB 81, 115126


--------------------------------------------------------------------------------------------------------




--------------------------------------- Iteration      1(  14)  ---------------------------------------


    POTLOK:  cpu time      0.0229: real time      0.0390
    SETDIJ:  cpu time      0.3355: real time      0.3363
     EDDAV:  cpu time    189.5185: real time    190.0069
 BZINTS: Fermi energy:    4.232451;   72.000000 electrons
         Band energy:-0.290826E+03;  BLOECHL correction:    0.000000
       DOS:  cpu time      0.0133: real time      0.0134
    CHARGE:  cpu time      0.0710: real time      0.0712
    MIXING:  cpu time      0.0002: real time      0.0002
    --------------------------------------------
      LOOP:  cpu time    189.9614: real time    190.4669

 eigenvalue-minimisations  :  2004
 total energy-change (2. order) :-0.4386114E-04  (-0.6055740E-05)
 number of electron      71.9999992 magnetization 
 augmentation part       26.6773742 magnetization 

 Free energy of the ion-electron system (eV)
  ---------------------------------------------------
  alpha Z        PSCENC =       202.50320330
  Ewald energy   TEWEN  =     -5034.42253749
  -Hartree energ DENC   =     -2412.41721402
  -exchange      EXHF   =       172.49883092
  -V(xc)+E(xc)   XCENC  =       193.57468677
  PAW double counting   =      9370.12876350    -9756.76354440
  entropy T*S    EENTRO =         0.00000000
  eigenvalues    EBANDS =      -290.82598960
  atomic energy  EATOM  =      7517.07041424
  Solvation  Ediel_sol  =         0.00000000
  ---------------------------------------------------
  free energy    TOTEN  =       -38.65338679 eV

  energy without entropy =      -38.65338679  energy(sigma->0) =      -38.65338679
  exchange ACFDT corr.  =         0.00000000  see jH, gK, PRB 81, 115126


--------------------------------------------------------------------------------------------------------




--------------------------------------- Iteration      1(  15)  ---------------------------------------


    POTLOK:  cpu time      0.0210: real time      0.0371
    SETDIJ:  cpu time      0.3346: real time      0.3353
     EDDAV:  cpu time    189.8986: real time    190.3856
 BZINTS: Fermi energy:    4.232663;   72.000000 electrons
         Band energy:-0.290779E+03;  BLOECHL correction:    0.000000
       DOS:  cpu time      0.0133: real time      0.0134
    CHARGE:  cpu time      0.0719: real time      0.0721
    MIXING:  cpu time      0.0001: real time      0.0001
    --------------------------------------------
      LOOP:  cpu time    190.3395: real time    190.8437

 eigenvalue-minimisations  :  1692
 total energy-change (2. order) :-0.3201422E-04  (-0.1997790E-05)
 number of electron      71.9999992 magnetization 
 augmentation part       26.6770767 magnetization 

 Free energy of the ion-electron system (eV)
  ---------------------------------------------------
  alpha Z        PSCENC =       202.50320330
  Ewald energy   TEWEN  =     -5034.42253749
  -Hartree energ DENC   =     -2412.39355556
  -exchange      EXHF   =       172.49704682
  -V(xc)+E(xc)   XCENC  =       193.57550891
  PAW double counting   =      9379.60031183    -9766.30518960
  entropy T*S    EENTRO =         0.00000000
  eigenvalues    EBANDS =      -290.77862125
  atomic energy  EATOM  =      7517.07041424
  Solvation  Ediel_sol  =         0.00000000
  ---------------------------------------------------
  free energy    TOTEN  =       -38.65341881 eV

  energy without entropy =      -38.65341881  energy(sigma->0) =      -38.65341881
  exchange ACFDT corr.  =         0.00000000  see jH, gK, PRB 81, 115126


--------------------------------------------------------------------------------------------------------




--------------------------------------- Iteration      1(  16)  ---------------------------------------


    POTLOK:  cpu time      0.0235: real time      0.0871
    SETDIJ:  cpu time      0.3347: real time      0.3355
     EDDAV:  cpu time    189.3648: real time    189.8436
 BZINTS: Fermi energy:    4.232801;   72.000000 electrons
         Band energy:-0.290754E+03;  BLOECHL correction:    0.000000
       DOS:  cpu time      0.0122: real time      0.0123
    CHARGE:  cpu time      0.0841: real time      0.0843
    MIXING:  cpu time      0.0003: real time      0.0003
    --------------------------------------------
      LOOP:  cpu time    189.8196: real time    190.3631

 eigenvalue-minimisations  :  1524
 total energy-change (2. order) :-0.1868809E-04  (-0.7978249E-06)
 number of electron      71.9999992 magnetization 
 augmentation part       26.6771914 magnetization 

 Free energy of the ion-electron system (eV)
  ---------------------------------------------------
  alpha Z        PSCENC =       202.50320330
  Ewald energy   TEWEN  =     -5034.42253749
  -Hartree energ DENC   =     -2412.37778257
  -exchange      EXHF   =       172.49615517
  -V(xc)+E(xc)   XCENC  =       193.57581712
  PAW double counting   =      9384.72784087    -9771.47292482
  entropy T*S    EENTRO =         0.00000000
  eigenvalues    EBANDS =      -290.75362332
  atomic energy  EATOM  =      7517.07041424
  Solvation  Ediel_sol  =         0.00000000
  ---------------------------------------------------
  free energy    TOTEN  =       -38.65343750 eV

  energy without entropy =      -38.65343750  energy(sigma->0) =      -38.65343750
  exchange ACFDT corr.  =         0.00000000  see jH, gK, PRB 81, 115126


--------------------------------------------------------------------------------------------------------




--------------------------------------- Iteration      1(  17)  ---------------------------------------


    POTLOK:  cpu time      0.0262: real time      0.0405
    SETDIJ:  cpu time      0.3343: real time      0.3352
     EDDAV:  cpu time    188.4923: real time    189.1746
 BZINTS: Fermi energy:    4.232879;   72.000000 electrons
         Band energy:-0.290725E+03;  BLOECHL correction:    0.000000
       DOS:  cpu time      0.0153: real time      0.0153
    CHARGE:  cpu time      0.0709: real time      0.0710
    MIXING:  cpu time      0.0002: real time      0.0002
    --------------------------------------------
      LOOP:  cpu time    188.9391: real time    189.6369

 eigenvalue-minimisations  :  1452
 total energy-change (2. order) :-0.1018222E-04  (-0.6532533E-06)
 number of electron      71.9999992 magnetization 
 augmentation part       26.6768214 magnetization 

 Free energy of the ion-electron system (eV)
  ---------------------------------------------------
  alpha Z        PSCENC =       202.50320330
  Ewald energy   TEWEN  =     -5034.42253749
  -Hartree energ DENC   =     -2412.37997952
  -exchange      EXHF   =       172.49674203
  -V(xc)+E(xc)   XCENC  =       193.57634329
  PAW double counting   =      9387.41847824    -9774.19102303
  entropy T*S    EENTRO =         0.00000000
  eigenvalues    EBANDS =      -290.72508875
  atomic energy  EATOM  =      7517.07041424
  Solvation  Ediel_sol  =         0.00000000
  ---------------------------------------------------
[...]
   40.718935    0.798515    0.798476    0.798198   -0.000097    0.000217    0.000178
   40.746154    0.798863    0.798823    0.798545   -0.000097    0.000218    0.000178
   40.773373    0.799209    0.799169    0.798891   -0.000097    0.000218    0.000178
   40.800591    0.799553    0.799513    0.799235   -0.000097    0.000218    0.000178
   40.827810    0.799896    0.799856    0.799577   -0.000098    0.000218    0.000178
   40.855028    0.800237    0.800197    0.799918   -0.000098    0.000218    0.000178
   40.882247    0.800577    0.800537    0.800258   -0.000098    0.000218    0.000178
   40.909465    0.800916    0.800876    0.800596   -0.000098    0.000219    0.000179
   40.936684    0.801253    0.801213    0.800933   -0.000098    0.000219    0.000179
   40.963902    0.801588    0.801548    0.801268   -0.000098    0.000219    0.000179
   40.991121    0.801922    0.801882    0.801602   -0.000098    0.000219    0.000179
   41.018339    0.802255    0.802215    0.801935   -0.000098    0.000219    0.000179
   41.045558    0.802586    0.802546    0.802266   -0.000098    0.000219    0.000179
   41.072776    0.802916    0.802876    0.802596   -0.000098    0.000219    0.000179
   41.099995    0.803245    0.803205    0.802924   -0.000098    0.000219    0.000179
   41.127214    0.803572    0.803532    0.803252   -0.000098    0.000219    0.000179
   41.154432    0.803898    0.803858    0.803577   -0.000098    0.000220    0.000179
   41.181651    0.804223    0.804183    0.803902   -0.000098    0.000220    0.000179
   41.208869    0.804546    0.804506    0.804225   -0.000098    0.000220    0.000179
   41.236088    0.804869    0.804828    0.804548   -0.000098    0.000220    0.000179
   41.263306    0.805190    0.805149    0.804868   -0.000098    0.000220    0.000179
   41.290525    0.805509    0.805469    0.805188   -0.000098    0.000220    0.000180
   41.317743    0.805828    0.805788    0.805507   -0.000098    0.000220    0.000180
   41.344962    0.806145    0.806105    0.805824   -0.000098    0.000220    0.000180
   41.372180    0.806461    0.806421    0.806140   -0.000098    0.000220    0.000180
   41.399399    0.806776    0.806736    0.806455   -0.000098    0.000220    0.000180
   41.426618    0.807090    0.807050    0.806768   -0.000098    0.000220    0.000180
   41.453836    0.807402    0.807362    0.807081   -0.000098    0.000220    0.000180
   41.481055    0.807714    0.807674    0.807393   -0.000098    0.000220    0.000180
   41.508273    0.808024    0.807984    0.807703   -0.000098    0.000220    0.000180
   41.535492    0.808333    0.808293    0.808012   -0.000098    0.000220    0.000180
   41.562710    0.808642    0.808601    0.808320   -0.000098    0.000220    0.000180
   41.589929    0.808949    0.808908    0.808627   -0.000098    0.000220    0.000180
   41.617147    0.809254    0.809214    0.808933   -0.000098    0.000220    0.000180
   41.644366    0.809559    0.809519    0.809238   -0.000098    0.000220    0.000180
   41.671584    0.809863    0.809823    0.809542   -0.000098    0.000220    0.000180
   41.698803    0.810166    0.810126    0.809845   -0.000098    0.000220    0.000179
   41.726021    0.810468    0.810427    0.810146   -0.000098    0.000220    0.000179
   41.753240    0.810768    0.810728    0.810447   -0.000098    0.000220    0.000179
   41.780459    0.811068    0.811028    0.810747   -0.000098    0.000220    0.000179
   41.807677    0.811366    0.811326    0.811046   -0.000098    0.000220    0.000179
   41.834896    0.811664    0.811624    0.811343   -0.000098    0.000220    0.000179
   41.862114    0.811961    0.811921    0.811640   -0.000098    0.000220    0.000179
   41.889333    0.812256    0.812216    0.811936   -0.000098    0.000219    0.000179
   41.916551    0.812551    0.812511    0.812230   -0.000098    0.000219    0.000179
   41.943770    0.812845    0.812805    0.812524   -0.000098    0.000219    0.000179
   41.970988    0.813137    0.813097    0.812817   -0.000098    0.000219    0.000179
   41.998207    0.813429    0.813389    0.813109   -0.000098    0.000219    0.000179
   42.025425    0.813720    0.813680    0.813400   -0.000098    0.000219    0.000179
   42.052644    0.814010    0.813970    0.813690   -0.000098    0.000219    0.000179
   42.079862    0.814299    0.814259    0.813979   -0.000098    0.000219    0.000179
   42.107081    0.814587    0.814547    0.814267   -0.000098    0.000219    0.000179
   42.134300    0.814874    0.814834    0.814554   -0.000098    0.000219    0.000179
   42.161518    0.815160    0.815120    0.814841   -0.000098    0.000219    0.000179
   42.188737    0.815445    0.815405    0.815126   -0.000098    0.000219    0.000178
   42.215955    0.815730    0.815690    0.815410   -0.000098    0.000218    0.000178
   42.243174    0.816013    0.815973    0.815694   -0.000098    0.000218    0.000178
   42.270392    0.816296    0.816256    0.815977   -0.000098    0.000218    0.000178
   42.297611    0.816577    0.816538    0.816259   -0.000098    0.000218    0.000178
   42.324829    0.816858    0.816819    0.816540   -0.000097    0.000218    0.000178
   42.352048    0.817138    0.817099    0.816820   -0.000097    0.000218    0.000178
   42.379266    0.817418    0.817378    0.817099   -0.000097    0.000218    0.000178
   42.406485    0.817696    0.817656    0.817378   -0.000097    0.000218    0.000178
   42.433703    0.817973    0.817934    0.817655   -0.000097    0.000218    0.000178
   42.460922    0.818250    0.818210    0.817932   -0.000097    0.000217    0.000178
   42.488141    0.818526    0.818486    0.818208   -0.000097    0.000217    0.000177
   42.515359    0.818801    0.818761    0.818483   -0.000097    0.000217    0.000177
   42.542578    0.819075    0.819035    0.818758   -0.000097    0.000217    0.000177
   42.569796    0.819348    0.819309    0.819031   -0.000097    0.000217    0.000177
   42.597015    0.819621    0.819581    0.819304   -0.000097    0.000217    0.000177
   42.624233    0.819892    0.819853    0.819576   -0.000097    0.000217    0.000177
   42.651452    0.820163    0.820124    0.819847   -0.000097    0.000217    0.000177
   42.678670    0.820434    0.820394    0.820117   -0.000097    0.000216    0.000177
   42.705889    0.820703    0.820663    0.820387   -0.000097    0.000216    0.000177
   42.733107    0.820971    0.820932    0.820656   -0.000097    0.000216    0.000177
   42.760326    0.821239    0.821200    0.820924   -0.000097    0.000216    0.000176
   42.787545    0.821506    0.821467    0.821191   -0.000097    0.000216    0.000176
   42.814763    0.821773    0.821733    0.821457   -0.000096    0.000216    0.000176
   42.841982    0.822038    0.821999    0.821723   -0.000096    0.000216    0.000176
   42.869200    0.822303    0.822263    0.821988   -0.000096    0.000215    0.000176
   42.896419    0.822567    0.822527    0.822252   -0.000096    0.000215    0.000176
   42.923637    0.822830    0.822791    0.822516   -0.000096    0.000215    0.000176
   42.950856    0.823093    0.823053    0.822778   -0.000096    0.000215    0.000176
   42.978074    0.823354    0.823315    0.823040   -0.000096    0.000215    0.000175
   43.005293    0.823615    0.823576    0.823302   -0.000096    0.000215    0.000175
   43.032511    0.823876    0.823837    0.823562   -0.000096    0.000215    0.000175
   43.059730    0.824135    0.824096    0.823822   -0.000096    0.000214    0.000175
   43.086948    0.824394    0.824355    0.824081   -0.000096    0.000214    0.000175
   43.114167    0.824652    0.824613    0.824340   -0.000096    0.000214    0.000175
   43.141386    0.824910    0.824871    0.824597   -0.000096    0.000214    0.000175
   43.168604    0.825166    0.825127    0.824854   -0.000096    0.000214    0.000175
   43.195823    0.825422    0.825384    0.825110   -0.000096    0.000214    0.000174
   43.223041    0.825678    0.825639    0.825366   -0.000095    0.000213    0.000174
   43.250260    0.825932    0.825894    0.825621   -0.000095    0.000213    0.000174
   43.277478    0.826186    0.826148    0.825875   -0.000095    0.000213    0.000174
   43.304697    0.826440    0.826401    0.826129   -0.000095    0.000213    0.000174
   43.331915    0.826692    0.826653    0.826381   -0.000095    0.000213    0.000174
   43.359134    0.826944    0.826905    0.826634   -0.000095    0.000213    0.000174
   43.386352    0.827195    0.827157    0.826885   -0.000095    0.000212    0.000173
   43.413571    0.827446    0.827407    0.827136   -0.000095    0.000212    0.000173
   43.440789    0.827696    0.827657    0.827386   -0.000095    0.000212    0.000173
   43.468008    0.827945    0.827906    0.827636   -0.000095    0.000212    0.000173
   43.495227    0.828194    0.828155    0.827884   -0.000095    0.000212    0.000173
   43.522445    0.828442    0.828403    0.828133   -0.000095    0.000212    0.000173
   43.549664    0.828689    0.828650    0.828380   -0.000095    0.000211    0.000173
   43.576882    0.828935    0.828897    0.828627   -0.000094    0.000211    0.000172
   43.604101    0.829181    0.829143    0.828873   -0.000094    0.000211    0.000172
   43.631319    0.829427    0.829388    0.829119   -0.000094    0.000211    0.000172
   43.658538    0.829671    0.829633    0.829364   -0.000094    0.000211    0.000172
   43.685756    0.829916    0.829877    0.829608   -0.000094    0.000211    0.000172
   43.712975    0.830159    0.830121    0.829852   -0.000094    0.000210    0.000172
   43.740193    0.830402    0.830363    0.830095   -0.000094    0.000210    0.000172
   43.767412    0.830644    0.830606    0.830337   -0.000094    0.000210    0.000171
   43.794630    0.830885    0.830847    0.830579   -0.000094    0.000210    0.000171
   43.821849    0.831126    0.831088    0.830820   -0.000094    0.000210    0.000171
   43.849068    0.831367    0.831328    0.831061   -0.000094    0.000209    0.000171
   43.876286    0.831606    0.831568    0.831301   -0.000094    0.000209    0.000171
   43.903505    0.831845    0.831807    0.831540   -0.000093    0.000209    0.000171
   43.930723    0.832084    0.832046    0.831779   -0.000093    0.000209    0.000171
   43.957942    0.832322    0.832284    0.832017   -0.000093    0.000209    0.000170
   43.985160    0.832559    0.832521    0.832254   -0.000093    0.000209    0.000170
   44.012379    0.832796    0.832758    0.832491   -0.000093    0.000208    0.000170
   44.039597    0.833032    0.832994    0.832728   -0.000093    0.000208    0.000170
   44.066816    0.833267    0.833229    0.832963   -0.000093    0.000208    0.000170
   44.094034    0.833502    0.833464    0.833199   -0.000093    0.000208    0.000170
   44.121253    0.833737    0.833699    0.833433   -0.000093    0.000208    0.000169
   44.148471    0.833970    0.833932    0.833667   -0.000093    0.000207    0.000169
   44.175690    0.834203    0.834166    0.833901   -0.000093    0.000207    0.000169
   44.202909    0.834436    0.834398    0.834134   -0.000093    0.000207    0.000169
   44.230127    0.834668    0.834630    0.834366   -0.000092    0.000207    0.000169
   44.257346    0.834899    0.834862    0.834598   -0.000092    0.000207    0.000169
   44.284564    0.835130    0.835093    0.834829   -0.000092    0.000206    0.000169
   44.311783    0.835361    0.835323    0.835059   -0.000092    0.000206    0.000168
   44.339001    0.835590    0.835553    0.835289   -0.000092    0.000206    0.000168
   44.366220    0.835819    0.835782    0.835519   -0.000092    0.000206    0.000168
   44.393438    0.836048    0.836010    0.835748   -0.000092    0.000206    0.000168
   44.420657    0.836276    0.836239    0.835976   -0.000092    0.000205    0.000168
   44.447875    0.836504    0.836466    0.836204   -0.000092    0.000205    0.000168
   44.475094    0.836730    0.836693    0.836431   -0.000092    0.000205    0.000167
   44.502313    0.836957    0.836919    0.836657   -0.000092    0.000205    0.000167
   44.529531    0.837183    0.837145    0.836884   -0.000092    0.000205    0.000167
   44.556750    0.837408    0.837371    0.837109   -0.000091    0.000205    0.000167
   44.583968    0.837633    0.837595    0.837334   -0.000091    0.000204    0.000167
   44.611187    0.837857    0.837820    0.837559   -0.000091    0.000204    0.000167
   44.638405    0.838081    0.838043    0.837783   -0.000091    0.000204    0.000167
   44.665624    0.838304    0.838267    0.838006   -0.000091    0.000204    0.000166
   44.692842    0.838526    0.838489    0.838229   -0.000091    0.000204    0.000166
   44.720061    0.838748    0.838711    0.838451   -0.000091    0.000203    0.000166
   44.747279    0.838970    0.838933    0.838673   -0.000091    0.000203    0.000166
   44.774498    0.839191    0.839154    0.838895   -0.000091    0.000203    0.000166
   44.801716    0.839412    0.839375    0.839115   -0.000091    0.000203    0.000166
   44.828935    0.839631    0.839595    0.839336   -0.000091    0.000203    0.000165
   44.856154    0.839851    0.839814    0.839555   -0.000090    0.000202    0.000165
   44.883372    0.840070    0.840033    0.839775   -0.000090    0.000202    0.000165
   44.910591    0.840288    0.840251    0.839993   -0.000090    0.000202    0.000165
   44.937809    0.840506    0.840469    0.840211   -0.000090    0.000202    0.000165
   44.965028    0.840724    0.840687    0.840429   -0.000090    0.000202    0.000165
   44.992246    0.840941    0.840904    0.840646   -0.000090    0.000201    0.000164
   45.019465    0.841157    0.841120    0.840863   -0.000090    0.000201    0.000164
   45.046683    0.841373    0.841336    0.841079   -0.000090    0.000201    0.000164
   45.073902    0.841588    0.841552    0.841295   -0.000090    0.000201    0.000164
   45.101120    0.841803    0.841766    0.841510   -0.000090    0.000201    0.000164
   45.128339    0.842017    0.841981    0.841725   -0.000090    0.000200    0.000164
   45.155557    0.842231    0.842195    0.841939   -0.000090    0.000200    0.000163
   45.182776    0.842445    0.842408    0.842153   -0.000089    0.000200    0.000163
   45.209995    0.842658    0.842621    0.842366   -0.000089    0.000200    0.000163
   45.237213    0.842870    0.842834    0.842579   -0.000089    0.000200    0.000163
   45.264432    0.843082    0.843046    0.842791   -0.000089    0.000199    0.000163
   45.291650    0.843293    0.843257    0.843002   -0.000089    0.000199    0.000163
   45.318869    0.843504    0.843468    0.843214   -0.000089    0.000199    0.000162
   45.346087    0.843715    0.843679    0.843424   -0.000089    0.000199    0.000162
   45.373306    0.843925    0.843889    0.843635   -0.000089    0.000199    0.000162
   45.400524    0.844134    0.844098    0.843845   -0.000089    0.000198    0.000162
   45.427743    0.844344    0.844307    0.844054   -0.000089    0.000198    0.000162
   45.454961    0.844552    0.844516    0.844263   -0.000089    0.000198    0.000162
   45.482180    0.844760    0.844724    0.844471   -0.000088    0.000198    0.000162
   45.509398    0.844968    0.844932    0.844679   -0.000088    0.000198    0.000161
   45.536617    0.845175    0.845139    0.844887   -0.000088    0.000197    0.000161
   45.563836    0.845382    0.845346    0.845094   -0.000088    0.000197    0.000161
   45.591054    0.845588    0.845552    0.845300   -0.000088    0.000197    0.000161
   45.618273    0.845794    0.845758    0.845506   -0.000088    0.000197    0.000161
   45.645491    0.845999    0.845963    0.845712   -0.000088    0.000197    0.000161
   45.672710    0.846204    0.846168    0.845917   -0.000088    0.000196    0.000160
   45.699928    0.846408    0.846372    0.846122   -0.000088    0.000196    0.000160
   45.727147    0.846612    0.846576    0.846326   -0.000088    0.000196    0.000160
   45.754365    0.846816    0.846780    0.846530   -0.000088    0.000196    0.000160
   45.781584    0.847019    0.846983    0.846733   -0.000087    0.000196    0.000160
   45.808802    0.847221    0.847186    0.846936   -0.000087    0.000195    0.000160
   45.836021    0.847423    0.847388    0.847138   -0.000087    0.000195    0.000159
   45.863239    0.847625    0.847589    0.847340   -0.000087    0.000195    0.000159
   45.890458    0.847826    0.847791    0.847542   -0.000087    0.000195    0.000159
   45.917677    0.848027    0.847991    0.847743   -0.000087    0.000195    0.000159
   45.944895    0.848227    0.848192    0.847943   -0.000087    0.000194    0.000159
   45.972114    0.848427    0.848392    0.848143   -0.000087    0.000194    0.000159
   45.999332    0.848627    0.848591    0.848343   -0.000087    0.000194    0.000158
   46.026551    0.848826    0.848790    0.848543   -0.000087    0.000194    0.000158
   46.053769    0.849024    0.848989    0.848741   -0.000087    0.000194    0.000158
   46.080988    0.849222    0.849187    0.848940   -0.000086    0.000193    0.000158
   46.108206    0.849420    0.849385    0.849138   -0.000086    0.000193    0.000158
   46.135425    0.849617    0.849582    0.849335   -0.000086    0.000193    0.000158
   46.162643    0.849814    0.849779    0.849533   -0.000086    0.000193    0.000157
   46.189862    0.850011    0.849976    0.849729   -0.000086    0.000193    0.000157
   46.217081    0.850207    0.850172    0.849926   -0.000086    0.000192    0.000157
   46.244299    0.850402    0.850367    0.850121   -0.000086    0.000192    0.000157
   46.271518    0.850597    0.850562    0.850317   -0.000086    0.000192    0.000157
   46.298736    0.850792    0.850757    0.850512   -0.000086    0.000192    0.000157
   46.325955    0.850986    0.850951    0.850707   -0.000086    0.000192    0.000156
   46.353173    0.851180    0.851145    0.850901   -0.000086    0.000191    0.000156
   46.380392    0.851374    0.851339    0.851094   -0.000086    0.000191    0.000156
   46.407610    0.851567    0.851532    0.851288   -0.000085    0.000191    0.000156
 
 The outermost node in the dielectric function lies at epsilon=  20.4


--------------------------------------------------------------------------------------------------------


    OPTICS:  cpu time      8.6553: real time      8.7384
    4ORBIT:  cpu time      0.0000: real time      0.0000



 total charge

# of ion       s       p       d       tot
------------------------------------------
    1        0.493   0.469   9.837  10.799
    2        0.347   0.369   9.365  10.080
    3        0.348   0.371   9.365  10.083
    4        1.087   1.120  10.113  12.320
    5        1.319   2.413   0.000   3.732
    6        1.319   2.413   0.000   3.732
    7        1.319   2.413   0.000   3.732
    8        1.319   2.413   0.000   3.732
--------------------------------------------------
tot          7.551  11.979  38.680  58.210
 
 BZINTS: Fermi energy:    4.232939;   72.000000 electrons
         Band energy:-0.290720E+03;  BLOECHL correction:    0.000000

 total amount of memory used by VASP MPI-rank0    62178. kBytes
=======================================================================

   base      :      30000. kBytes
   nonl-proj :       2949. kBytes
   fftplans  :       1032. kBytes
   grid      :       1294. kBytes
   one-center:         15. kBytes
   HF        :         64. kBytes
   nonlr-proj:       7189. kBytes
   wavefun   :        846. kBytes
   fock_wrk  :      18789. kBytes
 
  
  
 General timing and accounting informations for this job:
 ========================================================
  
                  Total CPU time used (sec):     3878.417
                            User time (sec):     3874.210
                          System time (sec):        4.207
                         Elapsed time (sec):     3892.058
  
                   Maximum memory used (kb):      372960.
                   Average memory used (kb):          N/A
  
                          Minor page faults:       369545
                          Major page faults:            0
                 Voluntary context switches:        44519
