<?xml version="1.0" encoding="ISO-8859-1"?>
<modeling>
 <generator>
  <i name="program" type="string">vasp </i>
  <i name="version" type="string">6.4.2  </i>
  <i name="subversion" type="string">20Jul23 (build Mar 15 2024 16:31:38) complex                          parallel </i>
  <i name="platform" type="string">LinuxIFC </i>
  <i name="date" type="string">2025 03 27 </i>
  <i name="time" type="string">13:53:23 </i>
 </generator>
 <incar>
  <i type="string" name="PREC">Accurate</i>
  <i type="string" name="ALGO">Normal</i>
  <i type="int" name="ISPIN">     1</i>
  <i type="int" name="NELM">   200</i>
  <i type="int" name="NELMIN">     5</i>
  <i name="EDIFF">      0.00001000</i>
  <i type="int" name="NSW">     0</i>
  <i name="ENCUT">    680.00000000</i>
  <i name="ENAUG">   1360.00000000</i>
  <i type="int" name="NBANDS">    58</i>
  <i type="int" name="NEDOS">  1706</i>
  <i type="logical" name="LREAL"> F  </i>
  <i type="int" name="ISMEAR">    -5</i>
  <i name="SIGMA">      0.05000000</i>
  <i type="int" name="LMAXMIX">     4</i>
  <i type="logical" name="LWAVE"> F  </i>
  <i type="logical" name="LCHARG"> F  </i>
  <i type="logical" name="LVTOT"> T  </i>
  <i type="int" name="LORBIT">    11</i>
  <i type="logical" name="LELF"> F  </i>
  <i type="logical" name="LOPTICS"> T  </i>
  <i type="logical" name="LASPH"> T  </i>
  <i type="logical" name="LAECHG"> T  </i>
  <i name="CSHIFT">      0.00001000</i>
  <i name="HFSCREEN">      0.20000000</i>
  <i type="logical" name="LHFCALC"> T  </i>
  <i type="string" name="GGA">Pe</i>
  <i type="string" name="PRECFOCK">Accurate</i>
  <i type="logical" name="LDAU"> F  </i>
  <i type="logical" name="LMIXTAU"> T  </i>
 </incar>
 <primitive_cell>
  <structure name="primitive_cell" >
   <crystal>
    <varray name="basis" >
     <v>       4.93901185       0.00000000      -4.41848219 </v>
     <v>      -0.98753537       4.83927803      -4.41848219 </v>
     <v>       0.00000000       0.00000000       6.62697690 </v>
    </varray>
    <i name="volume">    158.39304179 </i>
    <varray name="rec_basis" >
     <v>       0.20246965       0.04131731       0.00000000 </v>
     <v>       0.00000000       0.20664239       0.00000000 </v>
     <v>       0.13499497       0.16532509       0.15089837 </v>
    </varray>
   </crystal>
   <varray name="positions" >
    <v>       0.75000000       0.25000000       0.50000000 </v>
    <v>       0.00000000       0.00000000       0.00000000 </v>
    <v>       0.25000000       0.75000000       0.50000000 </v>
    <v>       0.50000000       0.50000000       0.00000000 </v>
    <v>       0.36432714       0.37124032       0.47758056 </v>
    <v>       0.89365977       0.88674759       0.52241944 </v>
    <v>       0.11325241       0.63567286       0.00691218 </v>
    <v>       0.62875968       0.10634023       0.99308782 </v>
   </varray>
  </structure>
  <varray name="primitive_index" >
   <v type="int" >        1 </v>
   <v type="int" >        2 </v>
   <v type="int" >        3 </v>
   <v type="int" >        4 </v>
   <v type="int" >        5 </v>
   <v type="int" >        6 </v>
   <v type="int" >        7 </v>
   <v type="int" >        8 </v>
  </varray>
 </primitive_cell>
 <kpoints>
  <generation param="Gamma">
   <v type="int" name="divisions">       4        4        4 </v>
   <v name="usershift">      0.00000000       0.00000000       0.00000000 </v>
   <v name="genvec1">      0.25000000      -0.00000000       0.00000000 </v>
   <v name="genvec2">      0.00000000       0.25000000       0.00000000 </v>
   <v name="genvec3">      0.00000000       0.00000000       0.25000000 </v>
   <v name="shift">      0.00000000       0.00000000       0.00000000 </v>
  </generation>
  <varray name="kpointlist" >
   <v>       0.00000000       0.00000000       0.00000000 </v>
   <v>       0.25000000       0.00000000       0.00000000 </v>
   <v>       0.50000000       0.00000000       0.00000000 </v>
   <v>       0.25000000       0.25000000       0.00000000 </v>
   <v>       0.50000000       0.25000000       0.00000000 </v>
   <v>       0.50000000      -0.25000000      -0.25000000 </v>
   <v>      -0.25000000       0.25000000       0.00000000 </v>
   <v>       0.50000000       0.50000000       0.00000000 </v>
   <v>       0.25000000       0.25000000       0.25000000 </v>
   <v>      -0.25000000       0.25000000       0.25000000 </v>
   <v>       0.50000000       0.50000000       0.25000000 </v>
   <v>      -0.25000000       0.50000000       0.25000000 </v>
   <v>      -0.25000000      -0.25000000       0.25000000 </v>
   <v>       0.50000000       0.50000000       0.50000000 </v>
  </varray>
  <varray name="weights" >
   <v>       0.01562500 </v>
   <v>       0.12500000 </v>
   <v>       0.06250000 </v>
   <v>       0.12500000 </v>
   <v>       0.12500000 </v>
   <v>       0.12500000 </v>
   <v>       0.06250000 </v>
   <v>       0.03125000 </v>
   <v>       0.03125000 </v>
   <v>       0.06250000 </v>
   <v>       0.06250000 </v>
   <v>       0.12500000 </v>
   <v>       0.03125000 </v>
   <v>       0.01562500 </v>
  </varray>
  <varray name="tetrahedronlist"  type="int" >
   <v type="int" >        2        4        6        9       11 </v>
   <v type="int" >        2        4        5        9       11 </v>
   <v type="int" >        4        4        5       11       12 </v>
   <v type="int" >        4        4        6       11       12 </v>
   <v type="int" >        4        4       11       12       14 </v>
   <v type="int" >        2        6       10       12       12 </v>
   <v type="int" >        2        6       11       12       12 </v>
   <v type="int" >        4       11       12       12       14 </v>
   <v type="int" >        4       10       11       12       12 </v>
   <v type="int" >        4       11       12       12       12 </v>
   <v type="int" >        4       12       12       12       14 </v>
   <v type="int" >        2        4        5       10       11 </v>
   <v type="int" >        4        4       10       11       12 </v>
   <v type="int" >        4        4       11       12       12 </v>
   <v type="int" >        4        4        5        6       11 </v>
   <v type="int" >        2        3        4        6       11 </v>
   <v type="int" >        4        3        4       11       12 </v>
   <v type="int" >        4        5        5        6        9 </v>
   <v type="int" >        4        4        5        5        6 </v>
   <v type="int" >        8        3        4        5        6 </v>
   <v type="int" >        8        4        5        6        9 </v>
   <v type="int" >        4        4        5        6       12 </v>
   <v type="int" >        4        3        5        6       12 </v>
   <v type="int" >        2        5       11       12       12 </v>
   <v type="int" >        2        5       10       12       12 </v>
   <v type="int" >        4       11       12       13       14 </v>
   <v type="int" >        4       12       12       13       14 </v>
   <v type="int" >        4        4       12       13       14 </v>
   <v type="int" >        4        2        4       12       12 </v>
   <v type="int" >        4        2       12       12       13 </v>
   <v type="int" >        8        2        4       12       13 </v>
   <v type="int" >        8        2        3        4       12 </v>
   <v type="int" >        4        2        3        6       12 </v>
   <v type="int" >        4        2        4        6       12 </v>
   <v type="int" >        4        3        4        5       10 </v>
   <v type="int" >        4        2        3        4       10 </v>
   <v type="int" >        4        2        3        6       10 </v>
   <v type="int" >        4        3        5       10       12 </v>
   <v type="int" >        4        3       10       11       12 </v>
   <v type="int" >        2        3        6       10       11 </v>
   <v type="int" >        2        4        6       10       11 </v>
   <v type="int" >        2        3        4        5       11 </v>
   <v type="int" >        4        2        4        5       12 </v>
   <v type="int" >        4        2        3        5       12 </v>
   <v type="int" >        4        2        4        7       13 </v>
   <v type="int" >        4        2        4        5        7 </v>
   <v type="int" >        4        2        4        6        7 </v>
   <v type="int" >        2        4        6        7        8 </v>
   <v type="int" >        2        4        5        7        8 </v>
   <v type="int" >        2        2        6        6       10 </v>
   <v type="int" >        2        2        6        6        7 </v>
   <v type="int" >        2        6        6        7        8 </v>
   <v type="int" >        2        6        6       10       11 </v>
   <v type="int" >        2        5        6        6       11 </v>
   <v type="int" >        4        5        6        6        8 </v>
   <v type="int" >        4        4        5        6        6 </v>
   <v type="int" >        4        5        6        6        9 </v>
   <v type="int" >        4        3        4        6       10 </v>
   <v type="int" >        4        3        6       10       12 </v>
   <v type="int" >        4        2        3        5       10 </v>
   <v type="int" >        2        3        5       10       11 </v>
   <v type="int" >        2        2        5        5        7 </v>
   <v type="int" >        2        2        5        5       10 </v>
   <v type="int" >        2        5        5       10       11 </v>
   <v type="int" >        2        5        5        7        8 </v>
   <v type="int" >        4        5        5        6        8 </v>
   <v type="int" >        2        5        5        6       11 </v>
   <v type="int" >        2        6        7        8        9 </v>
   <v type="int" >        2        5        7        8        9 </v>
   <v type="int" >        8        5        6        8        9 </v>
   <v type="int" >        4        4        5        8        9 </v>
   <v type="int" >        4        4        6        8        9 </v>
   <v type="int" >        4        4       11       12       13 </v>
   <v type="int" >        2        4        5        8       11 </v>
   <v type="int" >        2        4        6        8       11 </v>
   <v type="int" >        2        5        5       10       12 </v>
   <v type="int" >        2        5        5       11       12 </v>
   <v type="int" >        2        5        5        8       11 </v>
   <v type="int" >        2        5        5        7       10 </v>
   <v type="int" >        2        5        5        6        7 </v>
   <v type="int" >        4        2        4        7       10 </v>
   <v type="int" >        2        4        5        7       10 </v>
   <v type="int" >        4        4        5        6        7 </v>
   <v type="int" >        4        2        2        4        7 </v>
   <v type="int" >        4        2        3        4        7 </v>
   <v type="int" >        2        3        4        6        7 </v>
   <v type="int" >        4        2        2       12       13 </v>
   <v type="int" >        4        2        2        4       12 </v>
   <v type="int" >        2        6        6       11       12 </v>
   <v type="int" >        2        6        6       10       12 </v>
   <v type="int" >        2        6        6        7       10 </v>
   <v type="int" >        2        6        6        8       11 </v>
   <v type="int" >        2        5        6        6        7 </v>
   <v type="int" >        2        5        8        9       11 </v>
   <v type="int" >        2        6        8        9       11 </v>
   <v type="int" >        4        2        3        5        6 </v>
   <v type="int" >        4        2        4        5        6 </v>
   <v type="int" >        4        3        4       10       12 </v>
   <v type="int" >        2        3        6        7       10 </v>
   <v type="int" >        4        2        3        7       10 </v>
   <v type="int" >        2        4        6        7       10 </v>
   <v type="int" >        2        3        4        5        7 </v>
   <v type="int" >        2        4        5        7        9 </v>
   <v type="int" >        2        4        6        7        9 </v>
   <v type="int" >        4        1        2        4        7 </v>
   <v type="int" >        2        2        2        5       10 </v>
   <v type="int" >        2        2        2        5        7 </v>
   <v type="int" >        4        1        2        2        7 </v>
   <v type="int" >        4        2        2        7       10 </v>
   <v type="int" >        4        2        2        2        7 </v>
   <v type="int" >        4        1        2        2        2 </v>
   <v type="int" >        2        3        5        7       10 </v>
   <v type="int" >        2        2        2        6        7 </v>
   <v type="int" >        2        2        2        6       10 </v>
   <v type="int" >        4        1        2        7       13 </v>
   <v type="int" >        4        1        2        2       13 </v>
   <v type="int" >        4        1        2        4       13 </v>
  </varray>
  <i name="volumeweight">      0.00260417 </i>
 </kpoints>
 <parameters>
  <separator name="general" >
   <i type="string" name="SYSTEM">unknown system</i>
   <i type="logical" name="LCOMPAT"> F  </i>
  </separator>
  <separator name="electronic" >
   <i type="string" name="PREC">accura</i>
   <i name="ENMAX">    680.00000000</i>
   <i name="ENAUG">   1360.00000000</i>
   <i name="EDIFF">      0.00001000</i>
   <i type="int" name="IALGO">    38</i>
   <i type="int" name="IWAVPR">    10</i>
   <i type="int" name="NBANDS">    60</i>
   <i type="int" name="NBANDSLOW">    -1</i>
   <i type="int" name="NBANDSHIGH">    -1</i>
   <i name="NELECT">     72.00000000</i>
   <i type="int" name="TURBO">     0</i>
   <i type="int" name="IRESTART">     0</i>
   <i type="int" name="NREBOOT">     0</i>
   <i type="int" name="NMIN">     0</i>
   <i name="EREF">      0.00000000</i>
   <separator name="electronic smearing" >
    <i type="int" name="ISMEAR">    -5</i>
    <i name="SIGMA">      0.05000000</i>
    <i name="KSPACING">      0.50000000</i>
    <i type="logical" name="KGAMMA"> T  </i>
    <i type="logical" name="KBLOWUP"> T  </i>
   </separator>
   <separator name="electronic projectors" >
    <i type="logical" name="LREAL"> F  </i>
    <v name="ROPT">      0.00000000      0.00000000      0.00000000      0.00000000</v>
    <i type="int" name="LMAXPAW">  -100</i>
    <i type="int" name="LMAXMIX">     4</i>
    <i type="logical" name="NLSPLINE"> F  </i>
   </separator>
   <separator name="electronic startup" >
    <i type="int" name="ISTART">     0</i>
    <i type="int" name="ICHARG">     2</i>
    <i type="int" name="INIWAV">     1</i>
   </separator>
   <separator name="electronic spin" >
    <i type="int" name="ISPIN">     1</i>
    <i type="logical" name="LNONCOLLINEAR"> F  </i>
    <v name="MAGMOM">      1.00000000      1.00000000      1.00000000      1.00000000      1.00000000      1.00000000      1.00000000      1.00000000</v>
    <i name="NUPDOWN">     -1.00000000</i>
    <i type="logical" name="LSORBIT"> F  </i>
    <v name="SAXIS">      0.00000000      0.00000000      1.00000000</v>
    <i type="logical" name="LSPIRAL"> F  </i>
    <v name="QSPIRAL">      0.00000000      0.00000000      0.00000000</v>
    <i type="logical" name="LZEROZ"> F  </i>
   </separator>
   <separator name="electronic exchange-correlation" >
    <i type="logical" name="LASPH"> T  </i>
    <i type="logical" name="LMETAGGA"> F  </i>
   </separator>
   <separator name="electronic convergence" >
    <i type="int" name="NELM">   200</i>
    <i type="int" name="NELMDL">     0</i>
    <i type="int" name="NELMIN">     5</i>
    <i name="ENINI">    680.00000000</i>
    <separator name="electronic convergence detail" >
     <i type="logical" name="LDIAG"> T  </i>
     <i type="logical" name="LSUBROT"> F  </i>
     <i name="WEIMIN">      0.00000000</i>
     <i name="EBREAK">      0.00000004</i>
     <i name="DEPER">      0.30000000</i>
     <i type="int" name="NRMM">     4</i>
     <i name="TIME">      0.40000000</i>
    </separator>
   </separator>
   <separator name="electronic mixer" >
    <i name="AMIX">      0.40000000</i>
    <i name="BMIX">      1.00000000</i>
    <i name="AMIN">      0.10000000</i>
    <i name="AMIX_MAG">      1.60000000</i>
    <i name="BMIX_MAG">      1.00000000</i>
    <separator name="electronic mixer details" >
     <i type="int" name="IMIX">     1</i>
     <i type="logical" name="MIXFIRST"> F  </i>
     <i type="int" name="MAXMIX">   -45</i>
     <i name="WC">    100.00000000</i>
     <i type="int" name="INIMIX">     1</i>
     <i type="int" name="MIXPRE">     1</i>
     <i type="int" name="MREMOVE">     5</i>
    </separator>
   </separator>
   <separator name="electronic dipolcorrection" >
    <i type="logical" name="LDIPOL"> F  </i>
    <i type="logical" name="LMONO"> F  </i>
    <i type="int" name="IDIPOL">     0</i>
    <i name="EPSILON">      1.00000000</i>
    <v name="DIPOL">   -100.00000000   -100.00000000   -100.00000000</v>
    <i name="EFIELD">      0.00000000</i>
   </separator>
  </separator>
  <separator name="grids" >
   <i type="int" name="NGX">    56</i>
   <i type="int" name="NGY">    56</i>
   <i type="int" name="NGZ">    56</i>
   <i type="int" name="NGXF">   112</i>
   <i type="int" name="NGYF">   112</i>
   <i type="int" name="NGZF">   112</i>
   <i type="logical" name="ADDGRID"> F  </i>
  </separator>
  <separator name="ionic" >
   <i type="int" name="NSW">     0</i>
   <i type="int" name="IBRION">    -1</i>
   <i type="int" name="MDALGO">     0</i>
   <i type="int" name="ISIF">     0</i>
   <i name="PSTRESS">      0.00000000</i>
   <i name="EDIFFG">      0.00010000</i>
   <i type="int" name="NFREE">     0</i>
   <i name="POTIM">      0.50000000</i>
   <i name="SMASS">     -3.00000000</i>
   <i name="SCALEE">      1.00000000</i>
  </separator>
  <separator name="ionic md" >
   <i name="TEBEG">      0.00010000</i>
   <i name="TEEND">      0.00010000</i>
   <i type="int" name="NBLOCK">     1</i>
   <i type="int" name="KBLOCK">     1</i>
   <i type="int" name="NPACO">   256</i>
   <i name="APACO">     10.00000000</i>
  </separator>
  <separator name="symmetry" >
   <i type="int" name="ISYM">     3</i>
   <i name="SYMPREC">      0.00001000</i>
  </separator>
  <separator name="dos" >
   <i type="int" name="LORBIT">    11</i>
   <v name="RWIGS">     -1.00000000     -1.00000000     -1.00000000     -1.00000000</v>
   <i type="int" name="NEDOS">  1706</i>
   <i name="EMIN">     10.00000000</i>
   <i name="EMAX">    -10.00000000</i>
   <i name="EFERMI">      0.00000000</i>
  </separator>
  <separator name="writing" >
   <i type="int" name="NWRITE">     2</i>
   <i type="logical" name="LWAVE"> F  </i>
   <i type="logical" name="LDOWNSAMPLE"> F  </i>
   <i type="logical" name="LCHARG"> F  </i>
   <i type="logical" name="LPARD"> F  </i>
   <i type="logical" name="LVTOT"> T  </i>
   <i type="logical" name="LVHAR"> F  </i>
   <i type="logical" name="LELF"> F  </i>
   <i type="logical" name="LOPTICS"> T  </i>
   <v name="STM">      0.00000000      0.00000000      0.00000000      0.00000000      0.00000000      0.00000000      0.00000000</v>
  </separator>
  <separator name="performance" >
   <i type="int" name="NPAR">     6</i>
   <i type="int" name="NSIM">     4</i>
   <i type="int" name="NBLK">    -1</i>
   <i type="logical" name="LPLANE"> T  </i>
   <i type="logical" name="LSCALAPACK"> T  </i>
   <i type="logical" name="LSCAAWARE"> T  </i>
   <i type="logical" name="LSCALU"> F  </i>
   <i type="logical" name="LASYNC"> F  </i>
   <i type="logical" name="LORBITALREAL"> F  </i>
  </separator>
  <separator name="miscellaneous" >
   <i type="int" name="IDIOT">     3</i>
   <i type="int" name="PHON_NSTRUCT">    -1</i>
   <i type="logical" name="LMUSIC"> F  </i>
   <v name="POMASS">     65.39000000     63.54600000    118.71000000     32.06600000</v>
   <v name="DARWINR">      0.00000000      0.00000000      0.00000000      0.00000000</v>
   <v name="DARWINV">      1.00000000      1.00000000      1.00000000      1.00000000</v>
   <i type="logical" name="LCORR"> T  </i>
  </separator>
  <i type="logical" name="GGA_COMPAT"> T  </i>
  <i type="logical" name="LBERRY"> F  </i>
  <i type="int" name="ICORELEVEL">     0</i>
  <i type="logical" name="LDAU"> F  </i>
  <i type="int" name="I_CONSTRAINED_M">     0</i>
  <separator name="electronic exchange-correlation" >
   <i type="string" name="GGA">PE</i>
   <i type="int" name="VOSKOWN">     0</i>
   <i type="logical" name="LHFCALC"> T  </i>
   <i type="string" name="PRECFOCK">accur.</i>
   <i type="logical" name="LSYMGRAD"> F  </i>
   <i type="logical" name="LHFONE"> F  </i>
   <i type="logical" name="LRHFCALC"> F  </i>
   <i type="logical" name="LTHOMAS"> F  </i>
   <i type="logical" name="LMODELHF"> F  </i>
   <i type="logical" name="LFOCKACE"> T  </i>
   <i name="ENCUT4O">     -1.00000000</i>
   <i type="int" name="EXXOEP">     0</i>
   <i type="int" name="FOURORBIT">     0</i>
   <i name="AEXX">      0.25000000</i>
   <i name="HFALPHA">     -1.00000000</i>
   <i name="MCALPHA">      0.00000000</i>
   <i name="ALDAX">      0.75000000</i>
   <i name="AGGAX">      0.75000000</i>
   <i name="ALDAC">      1.00000000</i>
   <i name="AGGAC">      1.00000000</i>
   <i type="int" name="NKREDX">     1</i>
   <i type="int" name="NKREDY">     1</i>
   <i type="int" name="NKREDZ">     1</i>
   <i type="logical" name="SHIFTRED"> F  </i>
   <i type="logical" name="ODDONLY"> F  </i>
   <i type="logical" name="EVENONLY"> F  </i>
   <i type="int" name="LMAXFOCK">     4</i>
   <i type="int" name="NMAXFOCKAE">     1</i>
   <i type="logical" name="LFOCKAEDFT"> F  </i>
   <i name="HFSCREEN">      0.20000000</i>
   <i name="HFSCREENC">      0.20000000</i>
   <i type="int" name="NBANDSGWLOW">     1</i>
  </separator>
  <separator name="vdW DFT" >
   <i type="logical" name="LUSE_VDW"> F  </i>
   <i type="int" name="IVDW_NL">     1</i>
   <i type="logical" name="LSPIN_VDW"> F  </i>
   <i name="Zab_VDW">     -0.84910000</i>
   <i name="PARAM1">      0.12340000</i>
   <i name="PARAM2">      1.00000000</i>
   <i name="PARAM3">      0.00000000</i>
  </separator>
  <separator name="model GW" >
   <i type="int" name="MODEL_GW">     0</i>
   <i name="MODEL_EPS0">     11.87947813</i>
   <i name="MODEL_ALPHA">      1.00000000</i>
  </separator>
  <separator name="linear response parameters" >
   <i type="logical" name="LEPSILON"> F  </i>
   <i type="logical" name="LRPA"> F  </i>
   <i type="logical" name="LNABLA"> F  </i>
   <i type="logical" name="LVEL"> F  </i>
   <i name="CSHIFT">      0.00001000</i>
   <i name="OMEGAMAX">     -1.00000000</i>
   <i name="DEG_THRESHOLD">      0.00200000</i>
   <i name="RTIME">     -0.10000000</i>
   <i name="WPLASMAI">      0.00000000</i>
   <v name="DFIELD">      0.00000000      0.00000000      0.00000000</v>
   <v name="WPLASMA">      0.00000000      0.00000000      0.00000000      0.00000000      0.00000000      0.00000000      0.00000000      0.00000000      0.00000000</v>
  </separator>
  <separator name="orbital magnetization" >
   <i type="logical" name="NUCIND"> F  </i>
   <v name="MAGPOS">      0.00000000      0.00000000      0.00000000</v>
   <i type="logical" name="LNICSALL"> T  </i>
   <i type="logical" name="ORBITALMAG"> F  </i>
   <i type="logical" name="LMAGBLOCH"> F  </i>
   <i type="logical" name="LCHIMAG"> F  </i>
   <i type="logical" name="LGAUGE"> T  </i>
   <i type="int" name="MAGATOM">     0</i>
   <v name="MAGDIPOL">      0.00000000      0.00000000      0.00000000</v>
   <v name="AVECCONST">      0.00000000      0.00000000      0.00000000</v>
  </separator>
  <separator name="response functions" >
   <i type="logical" name="LALL_IN_ONE"> F  </i>
   <i type="int" name="IALL_IN_ONE">    -1</i>
   <i type="int" name="NBANDS_WAVE">    -1</i>
   <i type="logical" name="LFINITE_TEMPERATURE"> F  </i>
   <i type="logical" name="LADDER"> F  </i>
   <i type="logical" name="LRPAFORCE"> F  </i>
   <i type="logical" name="LFXC"> F  </i>
   <i type="logical" name="LHARTREE"> T  </i>
   <i type="int" name="IBSE">     0</i>
   <v type="int" name="KPOINT">    -1     0     0     0</v>
   <i type="logical" name="LTCTC"> F  </i>
   <i type="logical" name="LTCTE"> F  </i>
   <i type="logical" name="LTETE"> F  </i>
   <i type="logical" name="LTRIPLET"> F  </i>
   <i type="logical" name="LFXCEPS"> F  </i>
   <i type="logical" name="LFXHEG"> F  </i>
   <i type="int" name="NATURALO">     2</i>
   <i type="logical" name="LHOLEGF"> F  </i>
   <i type="logical" name="L2ORDER"> F  </i>
   <i type="logical" name="LDMP1"> F  </i>
   <i type="logical" name="LMP2LT"> F  </i>
   <i type="logical" name="LSMP2LT"> F  </i>
   <i type="logical" name="LGWLF"> F  </i>
   <i name="ENCUTGW">     -1.60000002</i>
   <i name="ENCUTGWSOFT">     -1.60000002</i>
   <i name="ENCUTLF">     -1.00000000</i>
   <i type="logical" name="LESF_SPLINES"> F  </i>
   <i type="int" name="LMAXMP2">    -1</i>
   <i name="SCISSOR">      0.00000000</i>
   <i type="int" name="NOMEGA">     0</i>
   <i type="int" name="NOMEGAR">     0</i>
   <i type="int" name="NBANDSGW">    -1</i>
   <i type="int" name="NBANDSO">    -1</i>
   <i type="int" name="NBANDSV">    -1</i>
   <i type="int" name="NELMGW">     1</i>
   <i type="int" name="NELMHF">     1</i>
   <i type="int" name="DIM">     3</i>
   <i type="int" name="IESPILON">     4</i>
   <i type="int" name="ANTIRES">     0</i>
   <i name="OMEGAMAX">    -30.00000000</i>
   <i name="OMEGAMIN">    -30.00000000</i>
   <i name="OMEGATL">   -200.00000000</i>
   <i type="int" name="OMEGAGRID">     0</i>
   <i name="CSHIFT">      0.00001000</i>
   <i type="logical" name="LSELFENERGY"> F  </i>
   <i type="logical" name="LSPECTRAL"> F  </i>
   <i type="logical" name="LSPECTRALGW"> F  </i>
   <i type="logical" name="LSINGLES"> F  </i>
   <i type="logical" name="LFERMIGW"> F  </i>
   <i type="logical" name="ODDONLYGW"> F  </i>
   <i type="logical" name="EVENONLYGW"> F  </i>
   <i type="int" name="NKREDLFX">     1</i>
   <i type="int" name="NKREDLFY">     1</i>
   <i type="int" name="NKREDLFZ">     1</i>
   <i type="int" name="MAXMEM">  2800</i>
   <i type="int" name="TELESCOPE">     0</i>
   <i type="int" name="NTAUPAR">    -1</i>
   <i type="int" name="NOMEGAPAR">    -1</i>
   <i name="DAMP_NEWTON">      0.80000001</i>
   <i name="LAMBDA">      1.00000000</i>
  </separator>
  <separator name="External order field" >
   <i name="OFIELD_KAPPA">      0.00000000</i>
   <v name="OFIELD_K">      0.00000000      0.00000000      0.00000000</v>
   <i name="OFIELD_Q6_NEAR">      0.00000000</i>
   <i name="OFIELD_Q6_FAR">      0.00000000</i>
   <i name="OFIELD_A">      0.00000000</i>
  </separator>
  <separator name="optional k-points parameters" >
   <i type="int" name="KPOINTS_OPT_MODE">     1</i>
   <i type="logical" name="LKPOINTS_OPT"> F  </i>
  </separator>
 </parameters>
 <atominfo>
  <atoms>       8 </atoms>
  <types>       4 </types>
  <array name="atoms" >
   <dimension dim="1">ion</dimension>
   <field type="string">element</field>
   <field type="int">atomtype</field>
   <set>
    <rc><c>Zn</c><c>   1</c></rc>
    <rc><c>Cu</c><c>   2</c></rc>
    <rc><c>Cu</c><c>   2</c></rc>
    <rc><c>Sn</c><c>   3</c></rc>
    <rc><c>S </c><c>   4</c></rc>
    <rc><c>S </c><c>   4</c></rc>
    <rc><c>S </c><c>   4</c></rc>
    <rc><c>S </c><c>   4</c></rc>
   </set>
  </array>
  <array name="atomtypes" >
   <dimension dim="1">type</dimension>
   <field type="int">atomspertype</field>
   <field type="string">element</field>
   <field>mass</field>
   <field>valence</field>
   <field type="string">pseudopotential</field>
   <set>
    <rc><c>   1</c><c>Zn</c><c>     65.39000000</c><c>     12.00000000</c><c>  PAW_PBE Zn 06Sep2000                  </c></rc>
    <rc><c>   2</c><c>Cu</c><c>     63.54600000</c><c>     11.00000000</c><c>  PAW_PBE Cu 22Jun2005                  </c></rc>
    <rc><c>   1</c><c>Sn</c><c>    118.71000000</c><c>     14.00000000</c><c>  PAW_PBE Sn_d 06Sep2000                </c></rc>
    <rc><c>   4</c><c>S </c><c>     32.06600000</c><c>      6.00000000</c><c>  PAW_PBE S 06Sep2000                   </c></rc>
   </set>
  </array>
 </atominfo>
 <structure name="initialpos" >
  <crystal>
   <varray name="basis" >
    <v>       4.93901185       0.00000000      -4.41848219 </v>
    <v>      -0.98753537       4.83927803      -4.41848219 </v>
    <v>       0.00000000       0.00000000       6.62697690 </v>
   </varray>
   <i name="volume">    158.39304179 </i>
   <varray name="rec_basis" >
    <v>       0.20246965       0.04131731       0.00000000 </v>
    <v>       0.00000000       0.20664239       0.00000000 </v>
    <v>       0.13499497       0.16532509       0.15089837 </v>
   </varray>
  </crystal>
  <varray name="positions" >
   <v>       0.75000000       0.25000000       0.50000000 </v>
   <v>       0.00000000       0.00000000       0.00000000 </v>
   <v>       0.25000000       0.75000000       0.50000000 </v>
   <v>       0.50000000       0.50000000       0.00000000 </v>
   <v>       0.36432714       0.37124032       0.47758056 </v>
   <v>       0.89365977       0.88674759       0.52241944 </v>
   <v>       0.11325241       0.63567286       0.00691218 </v>
   <v>       0.62875968       0.10634023       0.99308782 </v>
  </varray>
 </structure>
 <calculation>
  <scstep>
   <time name="dav">    0.49    0.55</time>
   <time name="total">    0.66    0.75</time>
   <energy>
    <i name="alphaZ">    202.50320330 </i>
    <i name="ewald">  -5034.42253749 </i>
    <i name="hartreedc">  -2428.65725175 </i>
    <i name="XCdc">    254.67490769 </i>
    <i name="pawpsdc">   6350.46103916 </i>
    <i name="pawaedc">  -9469.82004884 </i>
    <i name="eentropy">      0.00000000 </i>
    <i name="bandstr">    475.15824874 </i>
    <i name="atom">   7517.07041424 </i>
    <i name="e_fr_energy">  -2133.03202495 </i>
    <i name="e_wo_entrp">  -2133.03202495 </i>
    <i name="e_0_energy">  -2133.03202495 </i>
   </energy>
  </scstep>
  <scstep>
   <time name="dav">    0.44    0.45</time>
   <time name="total">    0.46    0.46</time>
   <energy>
    <i name="e_fr_energy">  -2801.43906697 </i>
    <i name="e_wo_entrp">  -2801.43906697 </i>
    <i name="e_0_energy">  -2801.43906697 </i>
   </energy>
  </scstep>
  <scstep>
   <time name="dav">    0.48    0.50</time>
   <time name="total">    0.49    0.51</time>
   <energy>
    <i name="e_fr_energy">  -2926.61518306 </i>
    <i name="e_wo_entrp">  -2926.61518306 </i>
    <i name="e_0_energy">  -2926.61518306 </i>
   </energy>
  </scstep>
  <scstep>
   <time name="dav">    0.57    0.59</time>
   <time name="total">    0.58    0.60</time>
   <energy>
    <i name="e_fr_energy">  -2933.58632020 </i>
    <i name="e_wo_entrp">  -2933.58632020 </i>
    <i name="e_0_energy">  -2933.58632020 </i>
   </energy>
  </scstep>
  <scstep>
   <time name="dav">  188.45  188.97</time>
   <time name="total">  188.90  189.44</time>
   <energy>
    <i name="e_fr_energy">    -39.84181067 </i>
    <i name="e_wo_entrp">    -39.84181067 </i>
    <i name="e_0_energy">    -39.84181067 </i>
   </energy>
  </scstep>
  <scstep>
   <time name="dav">  189.56  190.04</time>
   <time name="total">  190.00  190.51</time>
   <energy>
    <i name="e_fr_energy">    -38.73815268 </i>
    <i name="e_wo_entrp">    -38.73815268 </i>
    <i name="e_0_energy">    -38.73815268 </i>
   </energy>
  </scstep>
  <scstep>
   <time name="dav">  190.09  190.58</time>
   <time name="total">  190.54  191.05</time>
   <energy>
    <i name="e_fr_energy">    -38.66388722 </i>
    <i name="e_wo_entrp">    -38.66388722 </i>
    <i name="e_0_energy">    -38.66388722 </i>
   </energy>
  </scstep>
  <scstep>
   <time name="dav">  189.34  189.82</time>
   <time name="total">  189.79  190.30</time>
   <energy>
    <i name="e_fr_energy">    -38.67354920 </i>
    <i name="e_wo_entrp">    -38.67354920 </i>
    <i name="e_0_energy">    -38.67354920 </i>
   </energy>
  </scstep>
  <scstep>
   <time name="dav">  188.96  189.45</time>
   <time name="total">  189.42  189.96</time>
   <energy>
    <i name="e_fr_energy">    -38.65850073 </i>
    <i name="e_wo_entrp">    -38.65850073 </i>
    <i name="e_0_energy">    -38.65850073 </i>
   </energy>
  </scstep>
  <scstep>
   <time name="dav">  190.06  190.54</time>
   <time name="total">  190.50  191.00</time>
   <energy>
    <i name="e_fr_energy">    -38.65418546 </i>
    <i name="e_wo_entrp">    -38.65418546 </i>
    <i name="e_0_energy">    -38.65418546 </i>
   </energy>
  </scstep>
  <scstep>
   <time name="dav">  190.09  190.57</time>
   <time name="total">  190.53  191.03</time>
   <energy>
    <i name="e_fr_energy">    -38.65346229 </i>
    <i name="e_wo_entrp">    -38.65346229 </i>
    <i name="e_0_energy">    -38.65346229 </i>
   </energy>
  </scstep>
  <scstep>
   <time name="dav">  189.39  189.87</time>
   <time name="total">  189.86  190.34</time>
   <energy>
    <i name="e_fr_energy">    -38.65332225 </i>
    <i name="e_wo_entrp">    -38.65332225 </i>
    <i name="e_0_energy">    -38.65332225 </i>
   </energy>
  </scstep>
  <scstep>
   <time name="dav">  189.07  189.56</time>
   <time name="total">  189.55  190.04</time>
   <energy>
    <i name="e_fr_energy">    -38.65334293 </i>
    <i name="e_wo_entrp">    -38.65334293 </i>
    <i name="e_0_energy">    -38.65334293 </i>
   </energy>
  </scstep>
  <scstep>
   <time name="dav">  189.52  190.01</time>
   <time name="total">  189.96  190.47</time>
   <energy>
    <i name="e_fr_energy">    -38.65338679 </i>
    <i name="e_wo_entrp">    -38.65338679 </i>
    <i name="e_0_energy">    -38.65338679 </i>
   </energy>
  </scstep>
  <scstep>
   <time name="dav">  189.90  190.39</time>
   <time name="total">  190.34  190.84</time>
   <energy>
    <i name="e_fr_energy">    -38.65341881 </i>
    <i name="e_wo_entrp">    -38.65341881 </i>
    <i name="e_0_energy">    -38.65341881 </i>
   </energy>
  </scstep>
  <scstep>
   <time name="dav">  189.36  189.84</time>
   <time name="total">  189.82  190.36</time>
   <energy>
    <i name="e_fr_energy">    -38.65343750 </i>
    <i name="e_wo_entrp">    -38.65343750 </i>
    <i name="e_0_energy">    -38.65343750 </i>
   </energy>
  </scstep>
  <scstep>
   <time name="dav">  188.49  189.17</time>
   <time name="total">  188.94  189.64</time>
   <energy>
    <i name="e_fr_energy">    -38.65344768 </i>
    <i name="e_wo_entrp">    -38.65344768 </i>
    <i name="e_0_energy">    -38.65344768 </i>
   </energy>
  </scstep>
  <scstep>
   <time name="dav">  189.39  189.87</time>
   <time name="total">  189.75  190.30</time>
   <energy>
    <i name="alphaZ">    202.50320330 </i>
    <i name="ewald">  -5034.42253749 </i>
    <i name="hartreedc">  -2412.37206577 </i>
    <i name="XCdc">    193.57630355 </i>
    <i name="pawpsdc">   9388.81569617 </i>
    <i name="pawaedc">  -9775.59996841 </i>
    <i name="eentropy">      0.00000000 </i>
    <i name="bandstr">   -290.72035804 </i>
    <i name="atom">   7517.07041424 </i>
    <i name="e_fr_energy">    -38.65345318 </i>
    <i name="e_wo_entrp">    -38.65345318 </i>
    <i name="e_0_energy">    -38.65345318 </i>
   </energy>
  </scstep>
  <structure>
   <crystal>
    <varray name="basis" >
     <v>       4.93901185       0.00000000      -4.41848219 </v>
     <v>      -0.98753537       4.83927803      -4.41848219 </v>
     <v>       0.00000000       0.00000000       6.62697690 </v>
    </varray>
    <i name="volume">    158.39304179 </i>
    <varray name="rec_basis" >
     <v>       0.20246965       0.04131731       0.00000000 </v>
     <v>       0.00000000       0.20664239       0.00000000 </v>
     <v>       0.13499497       0.16532509       0.15089837 </v>
    </varray>
   </crystal>
   <varray name="positions" >
    <v>       0.75000000       0.25000000       0.50000000 </v>
    <v>       0.00000000       0.00000000       0.00000000 </v>
    <v>       0.25000000       0.75000000       0.50000000 </v>
    <v>       0.50000000       0.50000000       0.00000000 </v>
    <v>       0.36432714       0.37124032       0.47758056 </v>
    <v>       0.89365977       0.88674759       0.52241944 </v>
    <v>       0.11325241       0.63567286       0.00691218 </v>
    <v>       0.62875968       0.10634023       0.99308782 </v>
   </varray>
  </structure>
  <varray name="forces" >
   <v>       0.00000000      -0.00000000       0.00000000 </v>
   <v>       0.00000000       0.00000000       0.00000000 </v>
   <v>      -0.00000000      -0.00000000       0.00000000 </v>
   <v>      -0.00000000       0.00000000       0.00000000 </v>
   <v>       0.21016838       0.09053730       0.35008867 </v>
   <v>      -0.33331713      -0.24135461      -0.07468247 </v>
   <v>       0.29204519      -0.22402700      -0.19862361 </v>
   <v>      -0.16889644       0.37484431      -0.07678259 </v>
  </varray>
  <energy>
   <i name="e_fr_energy">    -38.65345318 </i>
   <i name="e_wo_entrp">    -38.65345318 </i>
   <i name="e_0_energy">    -38.65345318 </i>
  </energy>
  <time name="totalsc"> 2789.62 2797.49</time>
  <eigenvalues>
   <array>
    <dimension dim="1">band</dimension>
    <dimension dim="2">kpoint</dimension>
    <dimension dim="3">spin</dimension>
    <field>eigene</field>
    <field>occ</field>
    <set>
     <set comment="spin 1">
      <set comment="kpoint 1">
       <r>  -19.9553    1.0000 </r>
       <r>  -19.9514    1.0000 </r>
       <r>  -19.9514    1.0000 </r>
       <r>  -19.8629    1.0000 </r>
       <r>  -19.8583    1.0000 </r>
       <r>  -11.5428    1.0000 </r>
       <r>   -9.8964    1.0000 </r>
       <r>   -9.8791    1.0000 </r>
       <r>   -9.8791    1.0000 </r>
       <r>   -4.5152    1.0000 </r>
       <r>   -4.4405    1.0000 </r>
       <r>   -4.3928    1.0000 </r>
       <r>   -4.3928    1.0000 </r>
       <r>   -4.3880    1.0000 </r>
       <r>   -4.0167    1.0000 </r>
       <r>   -1.7315    1.0000 </r>
       <r>   -1.0765    1.0000 </r>
       <r>   -1.0709    1.0000 </r>
       <r>   -0.6020    1.0000 </r>
       <r>   -0.3795    1.0000 </r>
       <r>   -0.3795    1.0000 </r>
       <r>    0.0998    1.0000 </r>
       <r>    0.0998    1.0000 </r>
       <r>    0.4560    1.0000 </r>
       <r>    0.4979    1.0000 </r>
       <r>    0.4979    1.0000 </r>
       <r>    1.5114    1.0000 </r>
       <r>    1.5633    1.0000 </r>
       <r>    1.7390    1.0000 </r>
       <r>    2.0857    1.0000 </r>
       <r>    2.1426    1.0000 </r>
       <r>    2.1426    1.0000 </r>
       <r>    2.3099    1.0000 </r>
       <r>    4.1681    1.0000 </r>
       <r>    4.1681    1.0000 </r>
       <r>    4.2113    1.0000 </r>
       <r>    5.5588    0.0000 </r>
       <r>    7.1929    0.0000 </r>
       <r>    8.2465    0.0000 </r>
       <r>    9.1088    0.0000 </r>
       <r>    9.1088    0.0000 </r>
       <r>   10.3734    0.0000 </r>
       <r>   10.7651    0.0000 </r>
       <r>   10.7651    0.0000 </r>
       <r>   10.7971    0.0000 </r>
       <r>   11.5430    0.0000 </r>
       <r>   12.3927    0.0000 </r>
       <r>   12.4935    0.0000 </r>
       <r>   12.4935    0.0000 </r>
       <r>   12.5629    0.0000 </r>
       <r>   15.6015    0.0000 </r>
       <r>   16.4067    0.0000 </r>
       <r>   16.4109    0.0000 </r>
       <r>   16.6512    0.0000 </r>
       <r>   16.6512    0.0000 </r>
       <r>   16.7918    0.0000 </r>
       <r>   16.8463    0.0000 </r>
       <r>   17.7865    0.0000 </r>
       <r>   17.9356    0.0000 </r>
       <r>   18.5868    0.0000 </r>
      </set>
      <set comment="kpoint 2">
       <r>  -19.9556    1.0000 </r>
       <r>  -19.9517    1.0000 </r>
       <r>  -19.9514    1.0000 </r>
       <r>  -19.8626    1.0000 </r>
       <r>  -19.8581    1.0000 </r>
       <r>  -11.3178    1.0000 </r>
       <r>  -10.0817    1.0000 </r>
       <r>   -9.9707    1.0000 </r>
       <r>   -9.9329    1.0000 </r>
       <r>   -4.6056    1.0000 </r>
       <r>   -4.4296    1.0000 </r>
       <r>   -4.4099    1.0000 </r>
       <r>   -4.3766    1.0000 </r>
       <r>   -4.3639    1.0000 </r>
       <r>   -3.8271    1.0000 </r>
       <r>   -1.8160    1.0000 </r>
       <r>   -1.3010    1.0000 </r>
       <r>   -1.0302    1.0000 </r>
       <r>   -0.6282    1.0000 </r>
       <r>   -0.2993    1.0000 </r>
       <r>   -0.1813    1.0000 </r>
       <r>   -0.0631    1.0000 </r>
       <r>    0.0682    1.0000 </r>
       <r>    0.4479    1.0000 </r>
       <r>    0.5113    1.0000 </r>
       <r>    0.7806    1.0000 </r>
       <r>    1.6129    1.0000 </r>
       <r>    1.7379    1.0000 </r>
       <r>    1.8209    1.0000 </r>
       <r>    1.9253    1.0000 </r>
       <r>    2.1090    1.0000 </r>
       <r>    2.3862    1.0000 </r>
       <r>    2.5215    1.0000 </r>
       <r>    3.1954    1.0000 </r>
       <r>    3.6384    1.0000 </r>
       <r>    3.9626    1.0000 </r>
       <r>    6.5318    0.0000 </r>
       <r>    8.1252    0.0000 </r>
       <r>    8.3957    0.0000 </r>
       <r>    8.7462    0.0000 </r>
       <r>    9.1426    0.0000 </r>
       <r>   10.2247    0.0000 </r>
       <r>   10.6974    0.0000 </r>
       <r>   10.9239    0.0000 </r>
       <r>   11.0929    0.0000 </r>
       <r>   11.5233    0.0000 </r>
       <r>   11.9953    0.0000 </r>
       <r>   12.8825    0.0000 </r>
       <r>   13.3315    0.0000 </r>
       <r>   13.8642    0.0000 </r>
       <r>   14.3461    0.0000 </r>
       <r>   14.8019    0.0000 </r>
       <r>   15.0285    0.0000 </r>
       <r>   15.3208    0.0000 </r>
       <r>   15.8244    0.0000 </r>
       <r>   15.9726    0.0000 </r>
       <r>   16.2599    0.0000 </r>
       <r>   17.0471    0.0000 </r>
       <r>   17.9563    0.0000 </r>
       <r>   18.1894    0.0000 </r>
      </set>
      <set comment="kpoint 3">
       <r>  -19.9559    1.0000 </r>
       <r>  -19.9519    1.0000 </r>
       <r>  -19.9514    1.0000 </r>
       <r>  -19.8623    1.0000 </r>
       <r>  -19.8580    1.0000 </r>
       <r>  -10.8932    1.0000 </r>
       <r>  -10.5062    1.0000 </r>
       <r>  -10.0408    1.0000 </r>
       <r>   -9.9750    1.0000 </r>
       <r>   -4.6660    1.0000 </r>
       <r>   -4.4418    1.0000 </r>
       <r>   -4.4242    1.0000 </r>
       <r>   -4.3673    1.0000 </r>
       <r>   -4.3413    1.0000 </r>
       <r>   -3.6172    1.0000 </r>
       <r>   -1.7597    1.0000 </r>
       <r>   -1.3680    1.0000 </r>
       <r>   -0.9804    1.0000 </r>
       <r>   -0.7366    1.0000 </r>
       <r>   -0.4576    1.0000 </r>
       <r>   -0.2396    1.0000 </r>
       <r>    0.0066    1.0000 </r>
       <r>    0.1430    1.0000 </r>
       <r>    0.3893    1.0000 </r>
       <r>    0.6617    1.0000 </r>
       <r>    0.7973    1.0000 </r>
       <r>    1.6737    1.0000 </r>
       <r>    1.7615    1.0000 </r>
       <r>    1.8449    1.0000 </r>
       <r>    2.0545    1.0000 </r>
       <r>    2.1846    1.0000 </r>
       <r>    2.6149    1.0000 </r>
       <r>    2.7694    1.0000 </r>
       <r>    2.8311    1.0000 </r>
       <r>    2.9492    1.0000 </r>
       <r>    3.5952    1.0000 </r>
       <r>    7.0268    0.0000 </r>
       <r>    8.4706    0.0000 </r>
       <r>    8.7195    0.0000 </r>
       <r>    9.5561    0.0000 </r>
       <r>    9.8834    0.0000 </r>
       <r>   10.1087    0.0000 </r>
       <r>   10.6734    0.0000 </r>
       <r>   11.1084    0.0000 </r>
       <r>   11.1242    0.0000 </r>
       <r>   11.7489    0.0000 </r>
       <r>   11.9995    0.0000 </r>
       <r>   12.2883    0.0000 </r>
       <r>   12.5148    0.0000 </r>
       <r>   13.4441    0.0000 </r>
       <r>   13.7372    0.0000 </r>
       <r>   14.0742    0.0000 </r>
       <r>   14.2677    0.0000 </r>
       <r>   14.7828    0.0000 </r>
       <r>   14.9104    0.0000 </r>
       <r>   16.0137    0.0000 </r>
       <r>   16.9899    0.0000 </r>
       <r>   17.0435    0.0000 </r>
       <r>   17.3376    0.0000 </r>
       <r>   17.4793    0.0000 </r>
      </set>
      <set comment="kpoint 4">
       <r>  -19.9560    1.0000 </r>
       <r>  -19.9516    1.0000 </r>
       <r>  -19.9516    1.0000 </r>
       <r>  -19.8622    1.0000 </r>
       <r>  -19.8580    1.0000 </r>
       <r>  -11.0517    1.0000 </r>
       <r>  -10.2025    1.0000 </r>
       <r>  -10.0641    1.0000 </r>
       <r>  -10.0558    1.0000 </r>
       <r>   -4.6855    1.0000 </r>
       <r>   -4.4509    1.0000 </r>
       <r>   -4.4353    1.0000 </r>
       <r>   -4.3581    1.0000 </r>
       <r>   -4.3439    1.0000 </r>
       <r>   -3.7235    1.0000 </r>
       <r>   -1.9974    1.0000 </r>
       <r>   -1.5963    1.0000 </r>
       <r>   -0.9646    1.0000 </r>
       <r>   -0.4702    1.0000 </r>
       <r>   -0.3109    1.0000 </r>
       <r>   -0.2059    1.0000 </r>
       <r>    0.0752    1.0000 </r>
       <r>    0.1818    1.0000 </r>
       <r>    0.4441    1.0000 </r>
       <r>    0.6788    1.0000 </r>
       <r>    0.7740    1.0000 </r>
       <r>    1.6202    1.0000 </r>
       <r>    1.7675    1.0000 </r>
       <r>    1.9248    1.0000 </r>
       <r>    1.9904    1.0000 </r>
       <r>    2.2499    1.0000 </r>
       <r>    2.4940    1.0000 </r>
       <r>    2.6228    1.0000 </r>
       <r>    2.9245    1.0000 </r>
       <r>    3.7250    1.0000 </r>
       <r>    3.7582    1.0000 </r>
       <r>    6.4034    0.0000 </r>
       <r>    8.0839    0.0000 </r>
       <r>    8.3608    0.0000 </r>
       <r>    8.5478    0.0000 </r>
       <r>    9.4094    0.0000 </r>
       <r>   10.4901    0.0000 </r>
       <r>   11.0748    0.0000 </r>
       <r>   11.1711    0.0000 </r>
       <r>   11.2481    0.0000 </r>
       <r>   11.5970    0.0000 </r>
       <r>   12.4482    0.0000 </r>
       <r>   12.7302    0.0000 </r>
       <r>   12.8723    0.0000 </r>
       <r>   13.1207    0.0000 </r>
       <r>   13.4110    0.0000 </r>
       <r>   13.8541    0.0000 </r>
       <r>   15.2534    0.0000 </r>
       <r>   15.3885    0.0000 </r>
       <r>   16.0747    0.0000 </r>
       <r>   16.4322    0.0000 </r>
       <r>   16.6517    0.0000 </r>
       <r>   16.7360    0.0000 </r>
       <r>   17.7743    0.0000 </r>
       <r>   18.0399    0.0000 </r>
      </set>
      <set comment="kpoint 5">
       <r>  -19.9562    1.0000 </r>
       <r>  -19.9520    1.0000 </r>
       <r>  -19.9516    1.0000 </r>
       <r>  -19.8619    1.0000 </r>
       <r>  -19.8579    1.0000 </r>
       <r>  -10.8141    1.0000 </r>
       <r>  -10.3863    1.0000 </r>
       <r>  -10.1683    1.0000 </r>
       <r>  -10.0135    1.0000 </r>
       <r>   -4.6622    1.0000 </r>
       <r>   -4.4679    1.0000 </r>
       <r>   -4.4215    1.0000 </r>
       <r>   -4.3511    1.0000 </r>
       <r>   -4.3389    1.0000 </r>
       <r>   -3.7808    1.0000 </r>
       <r>   -2.1519    1.0000 </r>
       <r>   -1.6583    1.0000 </r>
       <r>   -1.2789    1.0000 </r>
       <r>   -0.6321    1.0000 </r>
       <r>   -0.2119    1.0000 </r>
       <r>    0.0103    1.0000 </r>
       <r>    0.0582    1.0000 </r>
       <r>    0.2296    1.0000 </r>
       <r>    0.4935    1.0000 </r>
       <r>    0.7392    1.0000 </r>
       <r>    0.8197    1.0000 </r>
       <r>    1.6512    1.0000 </r>
       <r>    1.7334    1.0000 </r>
       <r>    1.8214    1.0000 </r>
       <r>    2.0691    1.0000 </r>
       <r>    2.4938    1.0000 </r>
       <r>    2.6485    1.0000 </r>
       <r>    2.8154    1.0000 </r>
       <r>    3.1207    1.0000 </r>
       <r>    3.3718    1.0000 </r>
       <r>    3.5258    1.0000 </r>
       <r>    6.5581    0.0000 </r>
       <r>    8.3736    0.0000 </r>
       <r>    8.7670    0.0000 </r>
       <r>    9.1765    0.0000 </r>
       <r>    9.6929    0.0000 </r>
       <r>   10.3031    0.0000 </r>
       <r>   10.7037    0.0000 </r>
       <r>   10.9491    0.0000 </r>
       <r>   11.3999    0.0000 </r>
       <r>   11.8290    0.0000 </r>
       <r>   12.0761    0.0000 </r>
       <r>   12.3050    0.0000 </r>
       <r>   12.6128    0.0000 </r>
       <r>   13.0304    0.0000 </r>
       <r>   13.4960    0.0000 </r>
       <r>   13.9517    0.0000 </r>
       <r>   14.8279    0.0000 </r>
       <r>   15.1692    0.0000 </r>
       <r>   15.7748    0.0000 </r>
       <r>   16.4291    0.0000 </r>
       <r>   16.9615    0.0000 </r>
       <r>   17.1226    0.0000 </r>
       <r>   17.2955    0.0000 </r>
       <r>   17.6686    0.0000 </r>
      </set>
      <set comment="kpoint 6">
       <r>  -19.9562    1.0000 </r>
       <r>  -19.9520    1.0000 </r>
       <r>  -19.9516    1.0000 </r>
       <r>  -19.8619    1.0000 </r>
       <r>  -19.8579    1.0000 </r>
       <r>  -10.8143    1.0000 </r>
       <r>  -10.3860    1.0000 </r>
       <r>  -10.1687    1.0000 </r>
       <r>  -10.0131    1.0000 </r>
       <r>   -4.6839    1.0000 </r>
       <r>   -4.4429    1.0000 </r>
       <r>   -4.4289    1.0000 </r>
       <r>   -4.3510    1.0000 </r>
       <r>   -4.3382    1.0000 </r>
       <r>   -3.7710    1.0000 </r>
       <r>   -2.1382    1.0000 </r>
       <r>   -1.6912    1.0000 </r>
       <r>   -1.2417    1.0000 </r>
       <r>   -0.7315    1.0000 </r>
       <r>   -0.1494    1.0000 </r>
       <r>    0.0281    1.0000 </r>
       <r>    0.0683    1.0000 </r>
       <r>    0.2149    1.0000 </r>
       <r>    0.5065    1.0000 </r>
       <r>    0.6622    1.0000 </r>
       <r>    0.8993    1.0000 </r>
       <r>    1.6594    1.0000 </r>
       <r>    1.7188    1.0000 </r>
       <r>    1.8406    1.0000 </r>
       <r>    2.0123    1.0000 </r>
       <r>    2.4897    1.0000 </r>
       <r>    2.6927    1.0000 </r>
       <r>    2.9044    1.0000 </r>
       <r>    3.0338    1.0000 </r>
       <r>    3.3640    1.0000 </r>
       <r>    3.5180    1.0000 </r>
       <r>    6.5507    0.0000 </r>
       <r>    8.3658    0.0000 </r>
       <r>    8.7612    0.0000 </r>
       <r>    9.2132    0.0000 </r>
       <r>    9.7216    0.0000 </r>
       <r>   10.2436    0.0000 </r>
       <r>   10.6678    0.0000 </r>
       <r>   10.9811    0.0000 </r>
       <r>   11.4272    0.0000 </r>
       <r>   11.8429    0.0000 </r>
       <r>   12.0992    0.0000 </r>
       <r>   12.2864    0.0000 </r>
       <r>   12.5921    0.0000 </r>
       <r>   13.0427    0.0000 </r>
       <r>   13.4549    0.0000 </r>
       <r>   13.9665    0.0000 </r>
       <r>   14.7710    0.0000 </r>
       <r>   15.2848    0.0000 </r>
       <r>   15.7623    0.0000 </r>
       <r>   16.3893    0.0000 </r>
       <r>   16.9447    0.0000 </r>
       <r>   17.1759    0.0000 </r>
       <r>   17.3524    0.0000 </r>
       <r>   17.6219    0.0000 </r>
      </set>
      <set comment="kpoint 7">
       <r>  -19.9559    1.0000 </r>
       <r>  -19.9518    1.0000 </r>
       <r>  -19.9516    1.0000 </r>
       <r>  -19.8622    1.0000 </r>
       <r>  -19.8580    1.0000 </r>
       <r>  -11.1965    1.0000 </r>
       <r>  -10.1495    1.0000 </r>
       <r>  -10.0443    1.0000 </r>
       <r>   -9.9143    1.0000 </r>
       <r>   -4.5660    1.0000 </r>
       <r>   -4.4317    1.0000 </r>
       <r>   -4.4081    1.0000 </r>
       <r>   -4.3726    1.0000 </r>
       <r>   -4.3546    1.0000 </r>
       <r>   -3.9178    1.0000 </r>
       <r>   -2.0930    1.0000 </r>
       <r>   -1.5112    1.0000 </r>
       <r>   -1.0347    1.0000 </r>
       <r>   -0.8325    1.0000 </r>
       <r>   -0.3078    1.0000 </r>
       <r>   -0.0764    1.0000 </r>
       <r>    0.1198    1.0000 </r>
       <r>    0.1395    1.0000 </r>
       <r>    0.4323    1.0000 </r>
       <r>    0.6484    1.0000 </r>
       <r>    0.9107    1.0000 </r>
       <r>    1.6215    1.0000 </r>
       <r>    1.7624    1.0000 </r>
       <r>    1.8485    1.0000 </r>
       <r>    1.9716    1.0000 </r>
       <r>    2.2213    1.0000 </r>
       <r>    2.5765    1.0000 </r>
       <r>    2.7392    1.0000 </r>
       <r>    2.8730    1.0000 </r>
       <r>    3.5060    1.0000 </r>
       <r>    3.9942    1.0000 </r>
       <r>    6.5400    0.0000 </r>
       <r>    8.2509    0.0000 </r>
       <r>    8.6930    0.0000 </r>
       <r>    8.9943    0.0000 </r>
       <r>    9.4592    0.0000 </r>
       <r>   10.1567    0.0000 </r>
       <r>   10.6691    0.0000 </r>
       <r>   10.9668    0.0000 </r>
       <r>   11.2173    0.0000 </r>
       <r>   11.4362    0.0000 </r>
       <r>   12.5112    0.0000 </r>
       <r>   12.7940    0.0000 </r>
       <r>   13.2766    0.0000 </r>
       <r>   13.5893    0.0000 </r>
       <r>   14.0448    0.0000 </r>
       <r>   14.4326    0.0000 </r>
       <r>   14.7236    0.0000 </r>
       <r>   14.9599    0.0000 </r>
       <r>   15.4462    0.0000 </r>
       <r>   15.9392    0.0000 </r>
       <r>   16.1828    0.0000 </r>
       <r>   16.9596    0.0000 </r>
       <r>   17.6745    0.0000 </r>
       <r>   17.9633    0.0000 </r>
      </set>
      <set comment="kpoint 8">
       <r>  -19.9566    1.0000 </r>
       <r>  -19.9522    1.0000 </r>
       <r>  -19.9517    1.0000 </r>
       <r>  -19.8616    1.0000 </r>
       <r>  -19.8578    1.0000 </r>
       <r>  -10.6925    1.0000 </r>
       <r>  -10.2449    1.0000 </r>
       <r>  -10.2169    1.0000 </r>
       <r>  -10.1943    1.0000 </r>
       <r>   -4.6982    1.0000 </r>
       <r>   -4.4576    1.0000 </r>
       <r>   -4.4063    1.0000 </r>
       <r>   -4.3377    1.0000 </r>
       <r>   -4.3354    1.0000 </r>
       <r>   -3.9382    1.0000 </r>
       <r>   -2.4897    1.0000 </r>
       <r>   -1.8116    1.0000 </r>
       <r>   -1.3994    1.0000 </r>
       <r>   -0.4657    1.0000 </r>
       <r>   -0.3527    1.0000 </r>
       <r>    0.1091    1.0000 </r>
       <r>    0.1492    1.0000 </r>
       <r>    0.4432    1.0000 </r>
       <r>    0.5816    1.0000 </r>
       <r>    0.5910    1.0000 </r>
       <r>    0.8109    1.0000 </r>
       <r>    1.6769    1.0000 </r>
       <r>    1.7088    1.0000 </r>
       <r>    1.9521    1.0000 </r>
       <r>    2.0374    1.0000 </r>
       <r>    2.6340    1.0000 </r>
       <r>    2.7503    1.0000 </r>
       <r>    3.2460    1.0000 </r>
       <r>    3.3424    1.0000 </r>
       <r>    3.5784    1.0000 </r>
       <r>    3.7067    1.0000 </r>
       <r>    5.9625    0.0000 </r>
       <r>    7.8110    0.0000 </r>
       <r>    8.5955    0.0000 </r>
       <r>    9.5243    0.0000 </r>
       <r>    9.9522    0.0000 </r>
       <r>   10.4538    0.0000 </r>
       <r>   10.7479    0.0000 </r>
       <r>   11.2517    0.0000 </r>
       <r>   11.3696    0.0000 </r>
       <r>   11.6692    0.0000 </r>
       <r>   12.0555    0.0000 </r>
       <r>   12.1977    0.0000 </r>
       <r>   12.3208    0.0000 </r>
       <r>   12.6509    0.0000 </r>
       <r>   13.5379    0.0000 </r>
       <r>   13.6559    0.0000 </r>
       <r>   14.7866    0.0000 </r>
       <r>   14.8884    0.0000 </r>
       <r>   16.5576    0.0000 </r>
       <r>   16.8338    0.0000 </r>
       <r>   16.9910    0.0000 </r>
       <r>   17.7062    0.0000 </r>
       <r>   17.8411    0.0000 </r>
       <r>   17.8635    0.0000 </r>
      </set>
      <set comment="kpoint 9">
       <r>  -19.9566    1.0000 </r>
       <r>  -19.9519    1.0000 </r>
       <r>  -19.9519    1.0000 </r>
       <r>  -19.8616    1.0000 </r>
       <r>  -19.8578    1.0000 </r>
       <r>  -10.6919    1.0000 </r>
       <r>  -10.2331    1.0000 </r>
       <r>  -10.2179    1.0000 </r>
       <r>  -10.2065    1.0000 </r>
       <r>   -4.6958    1.0000 </r>
       <r>   -4.4556    1.0000 </r>
       <r>   -4.4300    1.0000 </r>
       <r>   -4.3403    1.0000 </r>
       <r>   -4.3376    1.0000 </r>
       <r>   -3.8810    1.0000 </r>
       <r>   -2.2992    1.0000 </r>
       <r>   -1.9557    1.0000 </r>
       <r>   -1.7995    1.0000 </r>
       <r>   -0.1839    1.0000 </r>
       <r>   -0.1013    1.0000 </r>
       <r>    0.0527    1.0000 </r>
       <r>    0.1852    1.0000 </r>
       <r>    0.2307    1.0000 </r>
       <r>    0.5212    1.0000 </r>
       <r>    0.7185    1.0000 </r>
       <r>    0.9276    1.0000 </r>
       <r>    1.6410    1.0000 </r>
       <r>    1.6444    1.0000 </r>
       <r>    2.0573    1.0000 </r>
       <r>    2.0926    1.0000 </r>
       <r>    2.6287    1.0000 </r>
       <r>    2.6495    1.0000 </r>
       <r>    3.2716    1.0000 </r>
       <r>    3.2882    1.0000 </r>
       <r>    3.4989    1.0000 </r>
       <r>    3.5093    1.0000 </r>
       <r>    6.1800    0.0000 </r>
       <r>    8.3282    0.0000 </r>
       <r>    8.5186    0.0000 </r>
       <r>    9.0345    0.0000 </r>
       <r>   10.0393    0.0000 </r>
       <r>   10.0791    0.0000 </r>
       <r>   10.3870    0.0000 </r>
       <r>   10.9895    0.0000 </r>
       <r>   11.7478    0.0000 </r>
       <r>   11.7898    0.0000 </r>
       <r>   11.8947    0.0000 </r>
       <r>   12.1659    0.0000 </r>
       <r>   12.9659    0.0000 </r>
       <r>   13.2694    0.0000 </r>
       <r>   13.2705    0.0000 </r>
       <r>   13.4079    0.0000 </r>
       <r>   15.7092    0.0000 </r>
       <r>   15.9661    0.0000 </r>
       <r>   16.0477    0.0000 </r>
       <r>   16.4731    0.0000 </r>
       <r>   16.9605    0.0000 </r>
       <r>   16.9827    0.0000 </r>
       <r>   17.1554    0.0000 </r>
       <r>   17.2315    0.0000 </r>
      </set>
      <set comment="kpoint 10">
       <r>  -19.9559    1.0000 </r>
       <r>  -19.9519    1.0000 </r>
       <r>  -19.9514    1.0000 </r>
       <r>  -19.8623    1.0000 </r>
       <r>  -19.8580    1.0000 </r>
       <r>  -10.9184    1.0000 </r>
       <r>  -10.3638    1.0000 </r>
       <r>  -10.2532    1.0000 </r>
       <r>   -9.8804    1.0000 </r>
       <r>   -4.6508    1.0000 </r>
       <r>   -4.4840    1.0000 </r>
       <r>   -4.4100    1.0000 </r>
       <r>   -4.3672    1.0000 </r>
       <r>   -4.3406    1.0000 </r>
       <r>   -3.5928    1.0000 </r>
       <r>   -1.8138    1.0000 </r>
       <r>   -1.2712    1.0000 </r>
       <r>   -0.9631    1.0000 </r>
       <r>   -0.7169    1.0000 </r>
       <r>   -0.5005    1.0000 </r>
       <r>   -0.2019    1.0000 </r>
       <r>   -0.1175    1.0000 </r>
       <r>    0.0493    1.0000 </r>
       <r>    0.4618    1.0000 </r>
       <r>    0.6439    1.0000 </r>
       <r>    0.8704    1.0000 </r>
       <r>    1.6760    1.0000 </r>
       <r>    1.7501    1.0000 </r>
       <r>    1.8146    1.0000 </r>
       <r>    2.0965    1.0000 </r>
       <r>    2.2261    1.0000 </r>
       <r>    2.3565    1.0000 </r>
       <r>    2.5791    1.0000 </r>
       <r>    3.0358    1.0000 </r>
       <r>    3.3070    1.0000 </r>
       <r>    3.5282    1.0000 </r>
       <r>    6.9949    0.0000 </r>
       <r>    8.0758    0.0000 </r>
       <r>    8.6647    0.0000 </r>
       <r>    9.4882    0.0000 </r>
       <r>    9.8337    0.0000 </r>
       <r>   10.5174    0.0000 </r>
       <r>   10.9059    0.0000 </r>
       <r>   11.2390    0.0000 </r>
       <r>   11.5967    0.0000 </r>
       <r>   12.0594    0.0000 </r>
       <r>   12.1779    0.0000 </r>
       <r>   12.2534    0.0000 </r>
       <r>   12.6612    0.0000 </r>
       <r>   12.8775    0.0000 </r>
       <r>   13.2119    0.0000 </r>
       <r>   13.2840    0.0000 </r>
       <r>   13.5040    0.0000 </r>
       <r>   14.6100    0.0000 </r>
       <r>   15.0056    0.0000 </r>
       <r>   16.8625    0.0000 </r>
       <r>   17.2289    0.0000 </r>
       <r>   17.7048    0.0000 </r>
       <r>   18.5430    0.0000 </r>
       <r>   18.7164    0.0000 </r>
      </set>
      <set comment="kpoint 11">
       <r>  -19.9560    1.0000 </r>
       <r>  -19.9517    1.0000 </r>
       <r>  -19.9514    1.0000 </r>
       <r>  -19.8622    1.0000 </r>
       <r>  -19.8580    1.0000 </r>
       <r>  -10.7992    1.0000 </r>
       <r>  -10.4350    1.0000 </r>
       <r>  -10.1348    1.0000 </r>
       <r>  -10.0742    1.0000 </r>
       <r>   -4.7584    1.0000 </r>
       <r>   -4.4694    1.0000 </r>
       <r>   -4.4625    1.0000 </r>
       <r>   -4.3604    1.0000 </r>
       <r>   -4.3341    1.0000 </r>
       <r>   -3.5485    1.0000 </r>
       <r>   -1.9673    1.0000 </r>
       <r>   -1.3521    1.0000 </r>
       <r>   -1.2346    1.0000 </r>
       <r>   -0.3166    1.0000 </r>
       <r>   -0.1973    1.0000 </r>
       <r>   -0.0103    1.0000 </r>
       <r>    0.0171    1.0000 </r>
       <r>    0.1843    1.0000 </r>
       <r>    0.3887    1.0000 </r>
       <r>    0.5939    1.0000 </r>
       <r>    0.7880    1.0000 </r>
       <r>    1.6833    1.0000 </r>
       <r>    1.7182    1.0000 </r>
       <r>    1.8649    1.0000 </r>
       <r>    1.8874    1.0000 </r>
       <r>    2.3542    1.0000 </r>
       <r>    2.4429    1.0000 </r>
       <r>    3.1304    1.0000 </r>
       <r>    3.1362    1.0000 </r>
       <r>    3.2168    1.0000 </r>
       <r>    3.2673    1.0000 </r>
       <r>    6.5805    0.0000 </r>
       <r>    8.0794    0.0000 </r>
       <r>    8.3350    0.0000 </r>
       <r>    8.8417    0.0000 </r>
       <r>    9.0182    0.0000 </r>
       <r>   10.0505    0.0000 </r>
       <r>   10.3787    0.0000 </r>
       <r>   11.1333    0.0000 </r>
       <r>   11.5313    0.0000 </r>
       <r>   11.6731    0.0000 </r>
       <r>   11.9646    0.0000 </r>
       <r>   12.4594    0.0000 </r>
       <r>   12.7775    0.0000 </r>
       <r>   12.9048    0.0000 </r>
       <r>   14.8511    0.0000 </r>
       <r>   15.1713    0.0000 </r>
       <r>   15.2069    0.0000 </r>
       <r>   15.2934    0.0000 </r>
       <r>   15.6702    0.0000 </r>
       <r>   15.9113    0.0000 </r>
       <r>   16.9995    0.0000 </r>
       <r>   17.2771    0.0000 </r>
       <r>   17.3338    0.0000 </r>
       <r>   17.5125    0.0000 </r>
      </set>
      <set comment="kpoint 12">
       <r>  -19.9557    1.0000 </r>
       <r>  -19.9515    1.0000 </r>
       <r>  -19.9513    1.0000 </r>
       <r>  -19.8626    1.0000 </r>
       <r>  -19.8581    1.0000 </r>
       <r>  -11.0150    1.0000 </r>
       <r>  -10.3790    1.0000 </r>
       <r>  -10.1395    1.0000 </r>
       <r>   -9.8943    1.0000 </r>
       <r>   -4.7655    1.0000 </r>
       <r>   -4.4752    1.0000 </r>
       <r>   -4.4152    1.0000 </r>
       <r>   -4.3908    1.0000 </r>
       <r>   -4.3378    1.0000 </r>
       <r>   -3.5558    1.0000 </r>
       <r>   -1.8867    1.0000 </r>
       <r>   -1.1108    1.0000 </r>
       <r>   -0.7841    1.0000 </r>
       <r>   -0.6266    1.0000 </r>
       <r>   -0.2816    1.0000 </r>
       <r>   -0.0606    1.0000 </r>
       <r>    0.0526    1.0000 </r>
       <r>    0.0944    1.0000 </r>
       <r>    0.4365    1.0000 </r>
       <r>    0.6894    1.0000 </r>
       <r>    0.7155    1.0000 </r>
       <r>    1.6610    1.0000 </r>
       <r>    1.6993    1.0000 </r>
       <r>    1.8050    1.0000 </r>
       <r>    1.9528    1.0000 </r>
       <r>    2.2694    1.0000 </r>
       <r>    2.4366    1.0000 </r>
       <r>    2.6937    1.0000 </r>
       <r>    2.9306    1.0000 </r>
       <r>    3.0683    1.0000 </r>
       <r>    3.7419    1.0000 </r>
       <r>    6.7173    0.0000 </r>
       <r>    7.7017    0.0000 </r>
       <r>    7.9677    0.0000 </r>
       <r>    8.5164    0.0000 </r>
       <r>    9.0927    0.0000 </r>
       <r>    9.7738    0.0000 </r>
       <r>   10.3534    0.0000 </r>
       <r>   10.6627    0.0000 </r>
       <r>   11.2180    0.0000 </r>
       <r>   11.6131    0.0000 </r>
       <r>   11.9107    0.0000 </r>
       <r>   13.6586    0.0000 </r>
       <r>   13.8431    0.0000 </r>
       <r>   14.1735    0.0000 </r>
       <r>   14.3747    0.0000 </r>
       <r>   14.4574    0.0000 </r>
       <r>   14.8687    0.0000 </r>
       <r>   15.3563    0.0000 </r>
       <r>   15.6527    0.0000 </r>
       <r>   16.3661    0.0000 </r>
       <r>   16.6888    0.0000 </r>
       <r>   17.7659    0.0000 </r>
       <r>   17.9697    0.0000 </r>
       <r>   18.2261    0.0000 </r>
      </set>
      <set comment="kpoint 13">
       <r>  -19.9554    1.0000 </r>
       <r>  -19.9513    1.0000 </r>
       <r>  -19.9513    1.0000 </r>
       <r>  -19.8629    1.0000 </r>
       <r>  -19.8583    1.0000 </r>
       <r>  -11.3594    1.0000 </r>
       <r>  -10.1817    1.0000 </r>
       <r>   -9.8867    1.0000 </r>
       <r>   -9.8867    1.0000 </r>
       <r>   -4.7546    1.0000 </r>
       <r>   -4.4144    1.0000 </r>
       <r>   -4.4082    1.0000 </r>
       <r>   -4.4082    1.0000 </r>
       <r>   -4.3533    1.0000 </r>
       <r>   -3.7529    1.0000 </r>
       <r>   -1.9407    1.0000 </r>
       <r>   -1.1554    1.0000 </r>
       <r>   -0.6463    1.0000 </r>
       <r>   -0.2854    1.0000 </r>
       <r>   -0.2682    1.0000 </r>
       <r>   -0.2682    1.0000 </r>
       <r>    0.0940    1.0000 </r>
       <r>    0.0940    1.0000 </r>
       <r>    0.4698    1.0000 </r>
       <r>    0.5562    1.0000 </r>
       <r>    0.5562    1.0000 </r>
       <r>    1.4501    1.0000 </r>
       <r>    1.6666    1.0000 </r>
       <r>    1.8534    1.0000 </r>
       <r>    1.9006    1.0000 </r>
       <r>    2.3178    1.0000 </r>
       <r>    2.4070    1.0000 </r>
       <r>    2.4070    1.0000 </r>
       <r>    3.4196    1.0000 </r>
       <r>    3.7484    1.0000 </r>
       <r>    3.7484    1.0000 </r>
       <r>    6.3578    0.0000 </r>
       <r>    7.4179    0.0000 </r>
       <r>    8.0512    0.0000 </r>
       <r>    8.0512    0.0000 </r>
       <r>    8.4393    0.0000 </r>
       <r>    9.4219    0.0000 </r>
       <r>   10.0257    0.0000 </r>
       <r>   10.3574    0.0000 </r>
       <r>   11.2034    0.0000 </r>
       <r>   11.2035    0.0000 </r>
       <r>   13.9348    0.0000 </r>
       <r>   14.1677    0.0000 </r>
       <r>   14.1813    0.0000 </r>
       <r>   14.1813    0.0000 </r>
       <r>   14.3457    0.0000 </r>
       <r>   14.9240    0.0000 </r>
       <r>   15.4788    0.0000 </r>
       <r>   15.4788    0.0000 </r>
       <r>   16.5285    0.0000 </r>
       <r>   16.7426    0.0000 </r>
       <r>   17.5011    0.0000 </r>
       <r>   17.8037    0.0000 </r>
       <r>   18.1911    0.0000 </r>
       <r>   18.5880    0.0000 </r>
      </set>
      <set comment="kpoint 14">
       <r>  -19.9555    1.0000 </r>
       <r>  -19.9511    1.0000 </r>
       <r>  -19.9511    1.0000 </r>
       <r>  -19.8629    1.0000 </r>
       <r>  -19.8582    1.0000 </r>
       <r>  -10.9994    1.0000 </r>
       <r>  -10.6381    1.0000 </r>
       <r>   -9.8943    1.0000 </r>
       <r>   -9.8943    1.0000 </r>
       <r>   -4.8553    1.0000 </r>
       <r>   -4.4366    1.0000 </r>
       <r>   -4.4230    1.0000 </r>
       <r>   -4.4230    1.0000 </r>
       <r>   -4.3489    1.0000 </r>
       <r>   -3.5814    1.0000 </r>
       <r>   -2.0882    1.0000 </r>
       <r>   -0.7080    1.0000 </r>
       <r>   -0.6869    1.0000 </r>
       <r>   -0.1770    1.0000 </r>
       <r>   -0.1770    1.0000 </r>
       <r>   -0.1654    1.0000 </r>
       <r>    0.0850    1.0000 </r>
       <r>    0.0850    1.0000 </r>
       <r>    0.6543    1.0000 </r>
       <r>    0.6734    1.0000 </r>
       <r>    0.6734    1.0000 </r>
       <r>    1.4626    1.0000 </r>
       <r>    1.6641    1.0000 </r>
       <r>    1.7463    1.0000 </r>
       <r>    1.7805    1.0000 </r>
       <r>    2.6509    1.0000 </r>
       <r>    2.7749    1.0000 </r>
       <r>    2.8715    1.0000 </r>
       <r>    2.8715    1.0000 </r>
       <r>    3.1469    1.0000 </r>
       <r>    3.1469    1.0000 </r>
       <r>    6.5679    0.0000 </r>
       <r>    7.2308    0.0000 </r>
       <r>    7.2308    0.0000 </r>
       <r>    7.6604    0.0000 </r>
       <r>    8.7178    0.0000 </r>
       <r>    8.8885    0.0000 </r>
       <r>    9.8265    0.0000 </r>
       <r>    9.8866    0.0000 </r>
       <r>   12.2537    0.0000 </r>
       <r>   12.2537    0.0000 </r>
       <r>   12.9456    0.0000 </r>
       <r>   13.4863    0.0000 </r>
       <r>   13.5044    0.0000 </r>
       <r>   13.5044    0.0000 </r>
       <r>   15.5142    0.0000 </r>
       <r>   15.6576    0.0000 </r>
       <r>   16.2107    0.0000 </r>
       <r>   16.8404    0.0000 </r>
       <r>   17.1251    0.0000 </r>
       <r>   17.1251    0.0000 </r>
       <r>   17.3393    0.0000 </r>
       <r>   17.5814    0.0000 </r>
       <r>   17.9137    0.0000 </r>
       <r>   17.9137    0.0000 </r>
      </set>
     </set>
    </set>
   </array>
  </eigenvalues>
  <separator name="orbital magnetization" >
   <v name="MAGDIPOLOUT">      0.00000000      0.00000000      0.00000000</v>
  </separator>
  <dielectricfunction comment="density-density">
   <imag>
    <array>
     <dimension dim="1">gridpoints</dimension>
     <field>energy</field>
     <field>xx</field>
     <field>yy</field>
     <field>zz</field>
     <field>xy</field>
     <field>yz</field>
     <field>zx</field>
     <set>
      <r>     0.0000     0.0000     0.0000     0.0000     0.0000     0.0000     0.0000 </r>
      <r>     0.0272     0.0000     0.0000     0.0000     0.0000     0.0000     0.0000 </r>
      <r>     0.0544     0.0000     0.0000     0.0000     0.0000     0.0000     0.0000 </r>
      <r>     0.0817     0.0000     0.0000     0.0000     0.0000     0.0000     0.0000 </r>
      <r>     0.1089     0.0000     0.0000     0.0000     0.0000     0.0000     0.0000 </r>
      <r>     0.1361     0.0000     0.0000     0.0000     0.0000     0.0000     0.0000 </r>
      <r>     0.1633     0.0000     0.0000     0.0000     0.0000     0.0000     0.0000 </r>
      <r>     0.1905     0.0000     0.0000     0.0000     0.0000     0.0000     0.0000 </r>
      <r>     0.2177     0.0000     0.0000     0.0000     0.0000     0.0000     0.0000 </r>
      <r>     0.2450     0.0000     0.0000     0.0000     0.0000     0.0000     0.0000 </r>
      <r>     0.2722     0.0000     0.0000     0.0000     0.0000     0.0000     0.0000 </r>
      <r>     0.2994     0.0000     0.0000     0.0000     0.0000     0.0000     0.0000 </r>
      <r>     0.3266     0.0000     0.0000     0.0000     0.0000     0.0000     0.0000 </r>
      <r>     0.3538     0.0000     0.0000     0.0000     0.0000     0.0000     0.0000 </r>
      <r>     0.3811     0.0000     0.0000     0.0000     0.0000     0.0000     0.0000 </r>
      <r>     0.4083     0.0000     0.0000     0.0000     0.0000     0.0000     0.0000 </r>
      <r>     0.4355     0.0000     0.0000     0.0000     0.0000     0.0000     0.0000 </r>
      <r>     0.4627     0.0000     0.0000     0.0000     0.0000     0.0000     0.0000 </r>
      <r>     0.4899     0.0000     0.0000     0.0000     0.0000     0.0000     0.0000 </r>
      <r>     0.5172     0.0000     0.0000     0.0000     0.0000     0.0000     0.0000 </r>
      <r>     0.5444     0.0000     0.0000     0.0000     0.0000     0.0000     0.0000 </r>
      <r>     0.5716     0.0000     0.0000     0.0000     0.0000     0.0000     0.0000 </r>
      <r>     0.5988     0.0000     0.0000     0.0000     0.0000     0.0000     0.0000 </r>
      <r>     0.6260     0.0000     0.0000     0.0000     0.0000     0.0000     0.0000 </r>
      <r>     0.6532     0.0000     0.0000     0.0000     0.0000     0.0000     0.0000 </r>
      <r>     0.6805     0.0000     0.0000     0.0000     0.0000     0.0000     0.0000 </r>
      <r>     0.7077     0.0000     0.0000     0.0000     0.0000     0.0000     0.0000 </r>
      <r>     0.7349     0.0000     0.0000     0.0000     0.0000     0.0000     0.0000 </r>
      <r>     0.7621     0.0000     0.0000     0.0000     0.0000     0.0000     0.0000 </r>
      <r>     0.7893     0.0000     0.0000     0.0000     0.0000     0.0000     0.0000 </r>
      <r>     0.8166     0.0000     0.0000     0.0000     0.0000     0.0000     0.0000 </r>
      <r>     0.8438     0.0000     0.0000     0.0000     0.0000     0.0000     0.0000 </r>
      <r>     0.8710     0.0000     0.0000     0.0000     0.0000     0.0000     0.0000 </r>
      <r>     0.8982     0.0000     0.0000     0.0000     0.0000     0.0000     0.0000 </r>
      <r>     0.9254     0.0000     0.0000     0.0000     0.0000     0.0000     0.0000 </r>
      <r>     0.9526     0.0000     0.0000     0.0000     0.0000     0.0000     0.0000 </r>
      <r>     0.9799     0.0000     0.0000     0.0000     0.0000     0.0000     0.0000 </r>
      <r>     1.0071     0.0000     0.0000     0.0000     0.0000     0.0000     0.0000 </r>
      <r>     1.0343     0.0000     0.0000     0.0000     0.0000     0.0000     0.0000 </r>
      <r>     1.0615     0.0000     0.0000     0.0000     0.0000     0.0000     0.0000 </r>
      <r>     1.0887     0.0000     0.0000     0.0000     0.0000     0.0000     0.0000 </r>
      <r>     1.1160     0.0000     0.0000     0.0000     0.0000     0.0000     0.0000 </r>
      <r>     1.1432     0.0000     0.0000     0.0000     0.0000     0.0000     0.0000 </r>
      <r>     1.1704     0.0000     0.0000     0.0000     0.0000     0.0000     0.0000 </r>
      <r>     1.1976     0.0000     0.0000     0.0000     0.0000     0.0000     0.0000 </r>
      <r>     1.2248     0.0000     0.0000     0.0000     0.0000     0.0000     0.0000 </r>
      <r>     1.2521     0.0000     0.0000     0.0000     0.0000     0.0000     0.0000 </r>
      <r>     1.2793     0.0000     0.0000     0.0000     0.0000     0.0000     0.0000 </r>
      <r>     1.3065     0.0000     0.0000     0.0000     0.0000     0.0000     0.0000 </r>
      <r>     1.3337     0.0000     0.0000     0.0000     0.0000     0.0000     0.0000 </r>
      <r>     1.3609     0.0001     0.0001     0.0003     0.0001    -0.0001    -0.0001 </r>
      <r>     1.3881     0.0009     0.0012     0.0029     0.0006    -0.0013    -0.0011 </r>
      <r>     1.4154     0.0032     0.0038     0.0083     0.0016    -0.0035    -0.0029 </r>
      <r>     1.4426     0.0077     0.0088     0.0168     0.0028    -0.0063    -0.0051 </r>
      <r>     1.4698     0.0144     0.0161     0.0286     0.0043    -0.0097    -0.0079 </r>
      <r>     1.4970     0.0233     0.0258     0.0434     0.0062    -0.0138    -0.0113 </r>
      <r>     1.5242     0.0344     0.0378     0.0615     0.0083    -0.0185    -0.0151 </r>
      <r>     1.5515     0.0478     0.0522     0.0827     0.0107    -0.0239    -0.0195 </r>
      <r>     1.5787     0.0634     0.0689     0.1070     0.0133    -0.0298    -0.0244 </r>
      <r>     1.6059     0.0813     0.0879     0.1346     0.0163    -0.0365    -0.0298 </r>
      <r>     1.6331     0.1014     0.1093     0.1653     0.0196    -0.0437    -0.0357 </r>
      <r>     1.6603     0.1237     0.1331     0.1991     0.0231    -0.0516    -0.0422 </r>
      <r>     1.6875     0.1482     0.1592     0.2361     0.0269    -0.0602    -0.0491 </r>
      <r>     1.7148     0.1749     0.1876     0.2763     0.0310    -0.0694    -0.0566 </r>
      <r>     1.7420     0.2039     0.2184     0.3196     0.0354    -0.0792    -0.0647 </r>
      <r>     1.7692     0.2351     0.2515     0.3661     0.0401    -0.0896    -0.0732 </r>
      <r>     1.7964     0.2686     0.2870     0.4158     0.0450    -0.1007    -0.0823 </r>
      <r>     1.8236     0.3043     0.3248     0.4686     0.0503    -0.1125    -0.0918 </r>
      <r>     1.8509     0.3422     0.3649     0.5246     0.0558    -0.1249    -0.1020 </r>
      <r>     1.8781     0.3823     0.4074     0.5837     0.0616    -0.1379    -0.1126 </r>
      <r>     1.9053     0.4246     0.4523     0.6460     0.0678    -0.1515    -0.1237 </r>
      <r>     1.9325     0.4692     0.4995     0.7115     0.0741    -0.1658    -0.1354 </r>
      <r>     1.9597     0.5160     0.5490     0.7801     0.0808    -0.1807    -0.1476 </r>
      <r>     1.9870     0.5651     0.6009     0.8519     0.0878    -0.1963    -0.1603 </r>
      <r>     2.0142     0.6164     0.6551     0.9268     0.0950    -0.2125    -0.1735 </r>
      <r>     2.0414     0.6699     0.7117     1.0049     0.1026    -0.2294    -0.1873 </r>
      <r>     2.0686     0.7256     0.7706     1.0862     0.1104    -0.2468    -0.2016 </r>
      <r>     2.0958     0.7835     0.8319     1.1706     0.1185    -0.2650    -0.2164 </r>
      <r>     2.1230     0.8437     0.8955     1.2582     0.1269    -0.2837    -0.2317 </r>
      <r>     2.1503     0.9061     0.9615     1.3490     0.1355    -0.3031    -0.2475 </r>
      <r>     2.1775     0.9708     1.0298     1.4429     0.1445    -0.3232    -0.2639 </r>
      <r>     2.2047     1.0377     1.1004     1.5400     0.1537    -0.3438    -0.2808 </r>
      <r>     2.2319     1.1068     1.1734     1.6402     0.1633    -0.3652    -0.2982 </r>
      <r>     2.2591     1.1781     1.2488     1.7437     0.1731    -0.3871    -0.3161 </r>
      <r>     2.2864     1.2548     1.3294     1.8524     0.1829    -0.4091    -0.3341 </r>
      <r>     2.3136     1.3386     1.4172     1.9679     0.1926    -0.4308    -0.3518 </r>
      <r>     2.3408     1.4295     1.5120     2.0902     0.2022    -0.4522    -0.3692 </r>
      <r>     2.3680     1.5277     1.6140     2.2191     0.2116    -0.4733    -0.3864 </r>
      <r>     2.3952     1.6334     1.7236     2.3554     0.2210    -0.4942    -0.4035 </r>
      <r>     2.4225     1.7509     1.8451     2.5047     0.2307    -0.5160    -0.4213 </r>
      <r>     2.4497     1.8810     1.9793     2.6685     0.2410    -0.5390    -0.4401 </r>
      <r>     2.4769     2.0237     2.1265     2.8465     0.2518    -0.5632    -0.4599 </r>
      <r>     2.5041     2.1791     2.2865     3.0390     0.2632    -0.5886    -0.4806 </r>
      <r>     2.5313     2.3471     2.4594     3.2458     0.2751    -0.6152    -0.5023 </r>
      <r>     2.5585     4.7134     4.8858     6.0931     0.4223    -0.9444    -0.7711 </r>
      <r>     2.5858     4.9886     4.9361     4.5683    -0.1286     0.2877     0.2349 </r>
      <r>     2.6130     4.6717     4.5783     3.9240    -0.2288     0.5118     0.4179 </r>
      <r>     2.6402     4.4051     4.3031     3.5891    -0.2497     0.5585     0.4560 </r>
      <r>     2.6674     4.5955     4.4906     3.7556    -0.2571     0.5749     0.4694 </r>
      <r>     2.6946     4.7358     4.6322     3.9063    -0.2539     0.5678     0.4636 </r>
      <r>     2.7219     4.8745     4.7716     4.0509    -0.2521     0.5637     0.4603 </r>
      <r>     2.7491     5.0109     4.9091     4.1956    -0.2496     0.5581     0.4557 </r>
      <r>     2.7763     5.1467     5.0461     4.3410    -0.2466     0.5515     0.4503 </r>
      <r>     2.8035     5.2818     5.1825     4.4871    -0.2432     0.5439     0.4441 </r>
      <r>     2.8307     5.4161     5.3184     4.6341    -0.2394     0.5353     0.4371 </r>
      <r>     2.8579     5.5498     5.4539     4.7817    -0.2351     0.5257     0.4293 </r>
      <r>     2.8852     5.6828     5.5888     4.9302    -0.2304     0.5152     0.4206 </r>
      <r>     2.9124     5.7818     5.6881     5.0311    -0.2298     0.5139     0.4196 </r>
      <r>     2.9396     5.6834     5.6010     5.0237    -0.2019     0.4515     0.3687 </r>
      <r>     2.9668     5.6067     5.5325     5.0133    -0.1816     0.4061     0.3316 </r>
      <r>     2.9940     5.9188     5.8496     5.3652    -0.1694     0.3789     0.3094 </r>
      <r>     3.0213     5.9537     5.8959     5.4911    -0.1416     0.3167     0.2586 </r>
      <r>     3.0485     5.3687     5.3033     4.8452    -0.1602     0.3583     0.2926 </r>
      <r>     3.0757     5.2027     5.1345     4.6561    -0.1673     0.3741     0.3055 </r>
      <r>     3.1029     5.0380     4.9674     4.4729    -0.1730     0.3868     0.3159 </r>
      <r>     3.1301     4.8745     4.8022     4.2953    -0.1773     0.3964     0.3237 </r>
      <r>     3.1574     4.7122     4.6387     4.1236    -0.1802     0.4029     0.3290 </r>
      <r>     3.1846     4.5512     4.4770     3.9576    -0.1817     0.4063     0.3318 </r>
      <r>     3.2118     3.9021     3.8186     3.2340    -0.2045     0.4572     0.3734 </r>
      <r>     3.2390     3.7009     3.6171     3.0302    -0.2053     0.4591     0.3749 </r>
      <r>     3.2662     3.5062     3.4233     2.8429    -0.2030     0.4540     0.3708 </r>
[...]
        <r>  0.0000  0.0151  0.0045  0.0000  0.0480  0.0130  0.1475  0.0121  0.0014 </r>
        <r>  0.0000  0.0053  0.0028  0.0009  0.0000  0.0011  0.0002  0.0010  0.0011 </r>
        <r>  0.0001  0.0084  0.0001  0.0003  0.0000  0.0000  0.0000  0.0000  0.0000 </r>
        <r>  0.0001  0.0028  0.0037  0.0024  0.0000  0.0000  0.0000  0.0000  0.0000 </r>
        <r>  0.0001  0.0054  0.0448  0.0451  0.0000  0.0000  0.0000  0.0000  0.0000 </r>
        <r>  0.0001  0.0017  0.0000  0.0936  0.0000  0.0000  0.0000  0.0000  0.0000 </r>
       </set>
       <set comment="band 37">
        <r>  0.0000  0.0000  0.0000  0.0000  0.0003  0.0029  0.0002  0.0012  0.0084 </r>
        <r>  0.0005  0.0000  0.0000  0.0000  0.0051  0.0255  0.0159  0.0170  0.0002 </r>
        <r>  0.0000  0.0000  0.0001  0.0000  0.0120  0.0017  0.0007  0.0144  0.0224 </r>
        <r>  0.2321  0.0000  0.0000  0.0000  0.0000  0.0001  0.0000  0.0000  0.0000 </r>
        <r>  0.0035  0.0003  0.0725  0.0005  0.0000  0.0000  0.0000  0.0000  0.0000 </r>
        <r>  0.0035  0.0402  0.0041  0.0290  0.0000  0.0000  0.0000  0.0000  0.0000 </r>
        <r>  0.0035  0.0006  0.0287  0.0439  0.0000  0.0000  0.0000  0.0000  0.0000 </r>
        <r>  0.0035  0.0428  0.0268  0.0037  0.0000  0.0000  0.0000  0.0000  0.0000 </r>
       </set>
       <set comment="band 38">
        <r>  0.0000  0.0197  0.0013  0.0083  0.0003  0.0032  0.0001  0.0055  0.0040 </r>
        <r>  0.0000  0.0063  0.0037  0.0014  0.0088  0.0003  0.0235  0.0061  0.0003 </r>
        <r>  0.0000  0.0080  0.0001  0.0075  0.0042  0.0046  0.0060  0.0178  0.0086 </r>
        <r>  0.0000  0.0671  0.0313  0.0062  0.0066  0.0004  0.0182  0.0040  0.0001 </r>
        <r>  0.0236  0.0000  0.0078  0.0014  0.0000  0.0000  0.0000  0.0000  0.0000 </r>
        <r>  0.0236  0.0029  0.0000  0.0062  0.0000  0.0000  0.0000  0.0000  0.0000 </r>
        <r>  0.0024  0.0021  0.0006  0.0021  0.0000  0.0000  0.0000  0.0000  0.0000 </r>
        <r>  0.0024  0.0009  0.0028  0.0011  0.0000  0.0000  0.0000  0.0000  0.0000 </r>
       </set>
       <set comment="band 39">
        <r>  0.0000  0.0037  0.0084  0.0171  0.0027  0.0012  0.0087  0.0003  0.0003 </r>
        <r>  0.0000  0.0028  0.0001  0.0085  0.0000  0.0127  0.0025  0.0112  0.0125 </r>
        <r>  0.0000  0.0045  0.0051  0.0060  0.0052  0.0091  0.0215  0.0005  0.0050 </r>
        <r>  0.0000  0.0166  0.0035  0.0845  0.0000  0.0094  0.0014  0.0090  0.0095 </r>
        <r>  0.0024  0.0015  0.0003  0.0030  0.0000  0.0000  0.0000  0.0000  0.0000 </r>
        <r>  0.0024  0.0029  0.0001  0.0018  0.0000  0.0000  0.0000  0.0000  0.0000 </r>
        <r>  0.0236  0.0013  0.0039  0.0039  0.0000  0.0000  0.0000  0.0000  0.0000 </r>
        <r>  0.0236  0.0078  0.0010  0.0004  0.0000  0.0000  0.0000  0.0000  0.0000 </r>
       </set>
       <set comment="band 40">
        <r>  0.0057  0.0000  0.0000  0.0000  0.0000  0.0000  0.0000  0.0000  0.0000 </r>
        <r>  0.0000  0.0109  0.0362  0.0072  0.0064  0.0016  0.0008  0.0006  0.0006 </r>
        <r>  0.0017  0.0000  0.0000  0.0000  0.0000  0.0000  0.0000  0.0000  0.0000 </r>
        <r>  0.0000  0.0438  0.1460  0.0292  0.0120  0.0019  0.0015  0.0020  0.0002 </r>
        <r>  0.0145  0.0080  0.0005  0.0048  0.0000  0.0000  0.0000  0.0000  0.0000 </r>
        <r>  0.0145  0.0023  0.0097  0.0013  0.0000  0.0000  0.0000  0.0000  0.0000 </r>
        <r>  0.0145  0.0073  0.0015  0.0044  0.0000  0.0000  0.0000  0.0000  0.0000 </r>
        <r>  0.0145  0.0020  0.0013  0.0100  0.0000  0.0000  0.0000  0.0000  0.0000 </r>
       </set>
       <set comment="band 41">
        <r>  0.2431  0.0000  0.0000  0.0000  0.0000  0.0001  0.0001  0.0001  0.0000 </r>
        <r>  0.0000  0.0000  0.0000  0.0000  0.0003  0.0046  0.0000  0.0052  0.0195 </r>
        <r>  0.0113  0.0000  0.0000  0.0000  0.0028  0.0138  0.0086  0.0092  0.0001 </r>
        <r>  0.0000  0.0000  0.0000  0.0000  0.0009  0.0036  0.0000  0.0058  0.0179 </r>
        <r>  0.0047  0.0000  0.0086  0.0143  0.0000  0.0000  0.0000  0.0000  0.0000 </r>
        <r>  0.0047  0.0120  0.0097  0.0012  0.0000  0.0000  0.0000  0.0000  0.0000 </r>
        <r>  0.0047  0.0135  0.0016  0.0078  0.0000  0.0000  0.0000  0.0000  0.0000 </r>
        <r>  0.0047  0.0001  0.0228  0.0000  0.0000  0.0000  0.0000  0.0000  0.0000 </r>
       </set>
       <set comment="band 42">
        <r>  0.0000  0.0180  0.0600  0.0120  0.0032  0.0016  0.0005  0.0001  0.0016 </r>
        <r>  0.0036  0.0000  0.0000  0.0000  0.0000  0.0000  0.0000  0.0000  0.0000 </r>
        <r>  0.0000  0.0116  0.0387  0.0077  0.0070  0.0004  0.0007  0.0022  0.0003 </r>
        <r>  0.0053  0.0000  0.0000  0.0000  0.0003  0.0013  0.0008  0.0009  0.0000 </r>
        <r>  0.0159  0.0036  0.0063  0.0002  0.0000  0.0000  0.0000  0.0000  0.0000 </r>
        <r>  0.0159  0.0007  0.0061  0.0033  0.0000  0.0000  0.0000  0.0000  0.0000 </r>
        <r>  0.0159  0.0006  0.0090  0.0005  0.0000  0.0000  0.0000  0.0000  0.0000 </r>
        <r>  0.0159  0.0038  0.0039  0.0024  0.0000  0.0000  0.0000  0.0000  0.0000 </r>
       </set>
       <set comment="band 43">
        <r>  0.0000  0.0032  0.0108  0.0022  0.0007  0.0009  0.0000  0.0023  0.0058 </r>
        <r>  0.2141  0.0000  0.0000  0.0000  0.0002  0.0012  0.0007  0.0008  0.0000 </r>
        <r>  0.0000  0.0020  0.0066  0.0013  0.0001  0.0025  0.0000  0.0025  0.0099 </r>
        <r>  0.0033  0.0000  0.0000  0.0000  0.0032  0.0161  0.0101  0.0108  0.0001 </r>
        <r>  0.0012  0.0012  0.0038  0.0016  0.0000  0.0000  0.0000  0.0000  0.0000 </r>
        <r>  0.0012  0.0014  0.0048  0.0004  0.0000  0.0000  0.0000  0.0000  0.0000 </r>
        <r>  0.0012  0.0021  0.0037  0.0008  0.0000  0.0000  0.0000  0.0000  0.0000 </r>
        <r>  0.0012  0.0007  0.0050  0.0009  0.0000  0.0000  0.0000  0.0000  0.0000 </r>
       </set>
       <set comment="band 44">
        <r>  0.0212  0.0000  0.0000  0.0000  0.0018  0.0091  0.0057  0.0060  0.0001 </r>
        <r>  0.0000  0.0001  0.0005  0.0001  0.0000  0.0014  0.0000  0.0014  0.0055 </r>
        <r>  0.2083  0.0000  0.0000  0.0000  0.0005  0.0026  0.0016  0.0017  0.0000 </r>
        <r>  0.0000  0.0013  0.0043  0.0009  0.0012  0.0012  0.0000  0.0032  0.0076 </r>
        <r>  0.0080  0.0028  0.0133  0.0023  0.0000  0.0000  0.0000  0.0000  0.0000 </r>
        <r>  0.0080  0.0046  0.0112  0.0026  0.0000  0.0000  0.0000  0.0000  0.0000 </r>
        <r>  0.0080  0.0033  0.0117  0.0033  0.0000  0.0000  0.0000  0.0000  0.0000 </r>
        <r>  0.0080  0.0040  0.0127  0.0017  0.0000  0.0000  0.0000  0.0000  0.0000 </r>
       </set>
       <set comment="band 45">
        <r>  0.0000  0.0103  0.0065  0.0031  0.0000  0.0030  0.0007  0.0026  0.0029 </r>
        <r>  0.0000  0.0163  0.0008  0.0489  0.0000  0.0011  0.0004  0.0008  0.0010 </r>
        <r>  0.0000  0.0003  0.0002  0.0024  0.0017  0.0007  0.0030  0.0047  0.0018 </r>
        <r>  0.0000  0.0519  0.0030  0.1614  0.0001  0.0001  0.0002  0.0000  0.0000 </r>
        <r>  0.0000  0.0182  0.0028  0.0102  0.0000  0.0000  0.0000  0.0000  0.0000 </r>
        <r>  0.0000  0.0233  0.0004  0.0075  0.0000  0.0000  0.0000  0.0000  0.0000 </r>
        <r>  0.0002  0.0040  0.0123  0.0291  0.0000  0.0000  0.0000  0.0000  0.0000 </r>
        <r>  0.0002  0.0305  0.0085  0.0064  0.0000  0.0000  0.0000  0.0000  0.0000 </r>
       </set>
       <set comment="band 46">
        <r>  0.0000  0.0056  0.0001  0.0141  0.0021  0.0001  0.0055  0.0015  0.0001 </r>
        <r>  0.0000  0.0365  0.0212  0.0083  0.0007  0.0000  0.0019  0.0007  0.0001 </r>
        <r>  0.0000  0.0020  0.0008  0.0001  0.0010  0.0032  0.0049  0.0006  0.0021 </r>
        <r>  0.0000  0.1212  0.0691  0.0261  0.0000  0.0001  0.0000  0.0002  0.0001 </r>
        <r>  0.0002  0.0019  0.0403  0.0031  0.0000  0.0000  0.0000  0.0000  0.0000 </r>
        <r>  0.0002  0.0238  0.0000  0.0215  0.0000  0.0000  0.0000  0.0000  0.0000 </r>
        <r>  0.0000  0.0052  0.0061  0.0199  0.0000  0.0000  0.0000  0.0000  0.0000 </r>
        <r>  0.0000  0.0030  0.0122  0.0160  0.0000  0.0000  0.0000  0.0000  0.0000 </r>
       </set>
       <set comment="band 47">
        <r>  0.0000  0.0004  0.0013  0.0003  0.0182  0.0024  0.0021  0.0035  0.0000 </r>
        <r>  0.0247  0.0000  0.0000  0.0000  0.0022  0.0108  0.0067  0.0072  0.0001 </r>
        <r>  0.0000  0.0001  0.0004  0.0001  0.0156  0.0045  0.0021  0.0013  0.0022 </r>
        <r>  0.0026  0.0000  0.0000  0.0000  0.0029  0.0146  0.0091  0.0097  0.0001 </r>
        <r>  0.0051  0.0046  0.0134  0.0035  0.0000  0.0000  0.0000  0.0000  0.0000 </r>
        <r>  0.0051  0.0040  0.0152  0.0023  0.0000  0.0000  0.0000  0.0000  0.0000 </r>
        <r>  0.0051  0.0051  0.0139  0.0025  0.0000  0.0000  0.0000  0.0000  0.0000 </r>
        <r>  0.0051  0.0036  0.0147  0.0032  0.0000  0.0000  0.0000  0.0000  0.0000 </r>
       </set>
       <set comment="band 48">
        <r>  0.0150  0.0000  0.0000  0.0000  0.0011  0.0055  0.0034  0.0037  0.0000 </r>
        <r>  0.0000  0.0000  0.0001  0.0000  0.0147  0.0025  0.0018  0.0023  0.0003 </r>
        <r>  0.0186  0.0000  0.0000  0.0000  0.0015  0.0073  0.0046  0.0049  0.0001 </r>
        <r>  0.0000  0.0003  0.0009  0.0002  0.0354  0.0094  0.0046  0.0033  0.0039 </r>
        <r>  0.0122  0.0028  0.0115  0.0047  0.0000  0.0000  0.0000  0.0000  0.0000 </r>
        <r>  0.0122  0.0048  0.0133  0.0009  0.0000  0.0000  0.0000  0.0000  0.0000 </r>
        <r>  0.0122  0.0061  0.0100  0.0030  0.0000  0.0000  0.0000  0.0000  0.0000 </r>
        <r>  0.0122  0.0019  0.0151  0.0020  0.0000  0.0000  0.0000  0.0000  0.0000 </r>
       </set>
       <set comment="band 49">
        <r>  0.0000  0.0900  0.0061  0.0369  0.0000  0.0002  0.0000  0.0002  0.0002 </r>
        <r>  0.0000  0.0047  0.0007  0.0005  0.0003  0.0038  0.0023  0.0020  0.0032 </r>
        <r>  0.0000  0.0633  0.0054  0.0205  0.0000  0.0004  0.0000  0.0007  0.0005 </r>
        <r>  0.0000  0.0027  0.0000  0.0025  0.0000  0.0035  0.0004  0.0036  0.0037 </r>
        <r>  0.0000  0.0003  0.0002  0.0257  0.0000  0.0000  0.0000  0.0000  0.0000 </r>
        <r>  0.0000  0.0028  0.0061  0.0173  0.0000  0.0000  0.0000  0.0000  0.0000 </r>
        <r>  0.0003  0.0042  0.0007  0.0121  0.0000  0.0000  0.0000  0.0000  0.0000 </r>
        <r>  0.0003  0.0031  0.0001  0.0139  0.0000  0.0000  0.0000  0.0000  0.0000 </r>
       </set>
       <set comment="band 50">
        <r>  0.0000  0.0165  0.0382  0.0784  0.0001  0.0000  0.0003  0.0000  0.0000 </r>
        <r>  0.0000  0.0001  0.0012  0.0046  0.0023  0.0000  0.0054  0.0031  0.0006 </r>
        <r>  0.0000  0.0081  0.0243  0.0568  0.0004  0.0001  0.0011  0.0001  0.0000 </r>
        <r>  0.0000  0.0015  0.0017  0.0020  0.0025  0.0002  0.0071  0.0014  0.0000 </r>
        <r>  0.0003  0.0109  0.0042  0.0020  0.0000  0.0000  0.0000  0.0000  0.0000 </r>
        <r>  0.0003  0.0090  0.0066  0.0014  0.0000  0.0000  0.0000  0.0000  0.0000 </r>
        <r>  0.0000  0.0236  0.0021  0.0005  0.0000  0.0000  0.0000  0.0000  0.0000 </r>
        <r>  0.0000  0.0140  0.0122  0.0000  0.0000  0.0000  0.0000  0.0000  0.0000 </r>
       </set>
       <set comment="band 51">
        <r>  0.0508  0.0000  0.0000  0.0000  0.0000  0.0002  0.0001  0.0001  0.0000 </r>
        <r>  0.0000  0.0001  0.0004  0.0001  0.0000  0.0003  0.0000  0.0003  0.0013 </r>
        <r>  0.0658  0.0000  0.0000  0.0000  0.0000  0.0001  0.0001  0.0001  0.0000 </r>
        <r>  0.0000  0.0013  0.0044  0.0009  0.0017  0.0048  0.0000  0.0086  0.0251 </r>
        <r>  0.0007  0.0313  0.0018  0.0539  0.0000  0.0000  0.0000  0.0000  0.0000 </r>
        <r>  0.0007  0.0228  0.0000  0.0641  0.0000  0.0000  0.0000  0.0000  0.0000 </r>
        <r>  0.0007  0.0369  0.0368  0.0132  0.0000  0.0000  0.0000  0.0000  0.0000 </r>
        <r>  0.0007  0.0475  0.0210  0.0185  0.0000  0.0000  0.0000  0.0000  0.0000 </r>
       </set>
       <set comment="band 52">
        <r>  0.0000  0.0005  0.0015  0.0003  0.0004  0.0010  0.0000  0.0019  0.0054 </r>
        <r>  0.0753  0.0000  0.0000  0.0000  0.0001  0.0006  0.0004  0.0004  0.0000 </r>
        <r>  0.0000  0.0001  0.0002  0.0000  0.0001  0.0001  0.0000  0.0000  0.0002 </r>
        <r>  0.0257  0.0000  0.0000  0.0000  0.0001  0.0007  0.0005  0.0005  0.0000 </r>
        <r>  0.0025  0.0378  0.0150  0.0313  0.0000  0.0000  0.0000  0.0000  0.0000 </r>
        <r>  0.0025  0.0220  0.0426  0.0194  0.0000  0.0000  0.0000  0.0000  0.0000 </r>
        <r>  0.0025  0.0450  0.0011  0.0379  0.0000  0.0000  0.0000  0.0000  0.0000 </r>
        <r>  0.0025  0.0276  0.0025  0.0540  0.0000  0.0000  0.0000  0.0000  0.0000 </r>
       </set>
       <set comment="band 53">
        <r>  0.0013  0.0000  0.0000  0.0000  0.0000  0.0000  0.0000  0.0000  0.0000 </r>
        <r>  0.0000  0.0221  0.0737  0.0147  0.0056  0.0012  0.0007  0.0007  0.0003 </r>
        <r>  0.0127  0.0000  0.0000  0.0000  0.0000  0.0000  0.0000  0.0000  0.0000 </r>
        <r>  0.0000  0.0361  0.1203  0.0240  0.0007  0.0003  0.0001  0.0000  0.0003 </r>
        <r>  0.0001  0.0232  0.0244  0.0046  0.0000  0.0000  0.0000  0.0000  0.0000 </r>
        <r>  0.0001  0.0336  0.0100  0.0087  0.0000  0.0000  0.0000  0.0000  0.0000 </r>
        <r>  0.0001  0.0094  0.0000  0.0428  0.0000  0.0000  0.0000  0.0000  0.0000 </r>
        <r>  0.0001  0.0164  0.0028  0.0330  0.0000  0.0000  0.0000  0.0000  0.0000 </r>
       </set>
       <set comment="band 54">
        <r>  0.0000  0.0021  0.0069  0.0014  0.0002  0.0079  0.0003  0.0045  0.0253 </r>
        <r>  0.0023  0.0000  0.0000  0.0000  0.0000  0.0000  0.0000  0.0000  0.0000 </r>
        <r>  0.0000  0.0020  0.0067  0.0013  0.0063  0.0023  0.0003  0.0105  0.0201 </r>
        <r>  0.0003  0.0000  0.0000  0.0000  0.0000  0.0002  0.0001  0.0001  0.0000 </r>
        <r>  0.0000  0.0101  0.0003  0.0039  0.0000  0.0000  0.0000  0.0000  0.0000 </r>
        <r>  0.0000  0.0088  0.0009  0.0046  0.0000  0.0000  0.0000  0.0000  0.0000 </r>
        <r>  0.0000  0.0017  0.0050  0.0076  0.0000  0.0000  0.0000  0.0000  0.0000 </r>
        <r>  0.0000  0.0023  0.0034  0.0086  0.0000  0.0000  0.0000  0.0000  0.0000 </r>
       </set>
       <set comment="band 55">
        <r>  0.0000  0.0265  0.0009  0.0175  0.0000  0.0019  0.0001  0.0023  0.0021 </r>
        <r>  0.0000  0.0621  0.0316  0.0086  0.0003  0.0000  0.0006  0.0004  0.0001 </r>
        <r>  0.0000  0.0388  0.0019  0.0208  0.0007  0.0002  0.0013  0.0017  0.0006 </r>
        <r>  0.0000  0.0271  0.0134  0.0033  0.0011  0.0003  0.0034  0.0003  0.0000 </r>
        <r>  0.0000  0.0141  0.0559  0.0131  0.0000  0.0000  0.0000  0.0000  0.0000 </r>
        <r>  0.0000  0.0192  0.0547  0.0092  0.0000  0.0000  0.0000  0.0000  0.0000 </r>
        <r>  0.0000  0.0003  0.0094  0.0000  0.0000  0.0000  0.0000  0.0000  0.0000 </r>
        <r>  0.0000  0.0037  0.0019  0.0042  0.0000  0.0000  0.0000  0.0000  0.0000 </r>
       </set>
       <set comment="band 56">
        <r>  0.0000  0.0094  0.0141  0.0214  0.0014  0.0002  0.0041  0.0005  0.0000 </r>
        <r>  0.0000  0.0197  0.0025  0.0800  0.0000  0.0004  0.0003  0.0002  0.0004 </r>
        <r>  0.0000  0.0104  0.0186  0.0325  0.0003  0.0013  0.0017  0.0003  0.0009 </r>
        <r>  0.0000  0.0080  0.0012  0.0347  0.0001  0.0014  0.0000  0.0020  0.0017 </r>
        <r>  0.0000  0.0057  0.0040  0.0000  0.0000  0.0000  0.0000  0.0000  0.0000 </r>
        <r>  0.0000  0.0000  0.0059  0.0038  0.0000  0.0000  0.0000  0.0000  0.0000 </r>
        <r>  0.0000  0.0185  0.0517  0.0129  0.0000  0.0000  0.0000  0.0000  0.0000 </r>
        <r>  0.0000  0.0148  0.0590  0.0093  0.0000  0.0000  0.0000  0.0000  0.0000 </r>
       </set>
       <set comment="band 57">
        <r>  0.0079  0.0000  0.0000  0.0000  0.0001  0.0003  0.0002  0.0002  0.0000 </r>
        <r>  0.0000  0.0000  0.0000  0.0000  0.0009  0.0058  0.0000  0.0080  0.0268 </r>
        <r>  0.0064  0.0000  0.0000  0.0000  0.0000  0.0001  0.0001  0.0001  0.0000 </r>
        <r>  0.0000  0.0002  0.0007  0.0001  0.0029  0.0080  0.0000  0.0144  0.0419 </r>
        <r>  0.0000  0.0048  0.0001  0.0054  0.0000  0.0000  0.0000  0.0000  0.0000 </r>
        <r>  0.0000  0.0036  0.0001  0.0065  0.0000  0.0000  0.0000  0.0000  0.0000 </r>
        <r>  0.0000  0.0034  0.0044  0.0024  0.0000  0.0000  0.0000  0.0000  0.0000 </r>
        <r>  0.0000  0.0045  0.0025  0.0032  0.0000  0.0000  0.0000  0.0000  0.0000 </r>
       </set>
       <set comment="band 58">
        <r>  0.0000  0.0304  0.1015  0.0203  0.0027  0.0000  0.0002  0.0020  0.0019 </r>
        <r>  0.0019  0.0000  0.0000  0.0000  0.0000  0.0000  0.0000  0.0000  0.0000 </r>
        <r>  0.0000  0.0200  0.0667  0.0133  0.0027  0.0025  0.0005  0.0000  0.0039 </r>
        <r>  0.0016  0.0000  0.0000  0.0000  0.0000  0.0000  0.0000  0.0000  0.0000 </r>
        <r>  0.0000  0.0140  0.0001  0.0240  0.0000  0.0000  0.0000  0.0000  0.0000 </r>
        <r>  0.0000  0.0166  0.0001  0.0214  0.0000  0.0000  0.0000  0.0000  0.0000 </r>
        <r>  0.0000  0.0164  0.0106  0.0111  0.0000  0.0000  0.0000  0.0000  0.0000 </r>
        <r>  0.0000  0.0138  0.0149  0.0094  0.0000  0.0000  0.0000  0.0000  0.0000 </r>
       </set>
       <set comment="band 59">
        <r>  0.0000  0.0019  0.0004  0.0000  0.0001  0.0001  0.0002  0.0003  0.0001 </r>
        <r>  0.0000  0.0011  0.0007  0.0004  0.0001  0.0000  0.0003  0.0000  0.0000 </r>
        <r>  0.0000  0.0002  0.0001  0.0020  0.0000  0.0002  0.0000  0.0002  0.0002 </r>
        <r>  0.0000  0.0004  0.0006  0.0008  0.0004  0.0001  0.0012  0.0002  0.0000 </r>
        <r>  0.0000  0.0006  0.0000  0.0006  0.0000  0.0000  0.0000  0.0000  0.0000 </r>
        <r>  0.0000  0.0000  0.0010  0.0001  0.0000  0.0000  0.0000  0.0000  0.0000 </r>
        <r>  0.0000  0.0003  0.0003  0.0000  0.0000  0.0000  0.0000  0.0000  0.0000 </r>
        <r>  0.0000  0.0004  0.0001  0.0001  0.0000  0.0000  0.0000  0.0000  0.0000 </r>
       </set>
       <set comment="band 60">
        <r>  0.0000  0.0000  0.0003  0.0020  0.0001  0.0002  0.0004  0.0000  0.0001 </r>
        <r>  0.0000  0.0007  0.0000  0.0015  0.0000  0.0001  0.0000  0.0002  0.0001 </r>
        <r>  0.0000  0.0017  0.0007  0.0001  0.0001  0.0000  0.0004  0.0000  0.0000 </r>
        <r>  0.0000  0.0010  0.0000  0.0008  0.0000  0.0006  0.0000  0.0006  0.0006 </r>
        <r>  0.0000  0.0002  0.0001  0.0004  0.0000  0.0000  0.0000  0.0000  0.0000 </r>
        <r>  0.0000  0.0001  0.0000  0.0005  0.0000  0.0000  0.0000  0.0000  0.0000 </r>
        <r>  0.0000  0.0008  0.0002  0.0002  0.0000  0.0000  0.0000  0.0000  0.0000 </r>
        <r>  0.0000  0.0001  0.0003  0.0007  0.0000  0.0000  0.0000  0.0000  0.0000 </r>
       </set>
      </set>
     </set>
    </set>
   </array>
  </projected>
 </calculation>
 <structure name="finalpos" >
  <crystal>
   <varray name="basis" >
    <v>       4.93901185       0.00000000      -4.41848219 </v>
    <v>      -0.98753537       4.83927803      -4.41848219 </v>
    <v>       0.00000000       0.00000000       6.62697690 </v>
   </varray>
   <i name="volume">    158.39304179 </i>
   <varray name="rec_basis" >
    <v>       0.20246965       0.04131731       0.00000000 </v>
    <v>       0.00000000       0.20664239       0.00000000 </v>
    <v>       0.13499497       0.16532509       0.15089837 </v>
   </varray>
  </crystal>
  <varray name="positions" >
   <v>       0.75000000       0.25000000       0.50000000 </v>
   <v>       0.00000000       0.00000000       0.00000000 </v>
   <v>       0.25000000       0.75000000       0.50000000 </v>
   <v>       0.50000000       0.50000000       0.00000000 </v>
   <v>       0.36432714       0.37124032       0.47758056 </v>
   <v>       0.89365977       0.88674759       0.52241944 </v>
   <v>       0.11325241       0.63567286       0.00691218 </v>
   <v>       0.62875968       0.10634023       0.99308782 </v>
  </varray>
 </structure>
</modeling>
