<?xml version="1.0" encoding="ISO-8859-1"?>
<modeling>
 <generator>
  <i name="program" type="string">vasp </i>
  <i name="version" type="string">6.4.2  </i>
  <i name="subversion" type="string">20Jul23 (build Mar 15 2024 16:31:38) complex                          parallel </i>
  <i name="platform" type="string">LinuxIFC </i>
  <i name="date" type="string">2025 03 24 </i>
  <i name="time" type="string">15:53:12 </i>
 </generator>
 <incar>
  <i type="string" name="PREC">Accurate</i>
  <i type="string" name="ALGO">Normal</i>
  <i type="int" name="ISPIN">     1</i>
  <i type="int" name="NELM">   200</i>
  <i type="int" name="NELMIN">     5</i>
  <i name="EDIFF">      0.00001000</i>
  <i type="int" name="NSW">     0</i>
  <i name="ENCUT">    680.00000000</i>
  <i name="ENAUG">   1360.00000000</i>
  <i type="int" name="NBANDS">    58</i>
  <i type="int" name="NEDOS">  1372</i>
  <i type="logical" name="LREAL"> F  </i>
  <i type="int" name="ISMEAR">    -5</i>
  <i name="SIGMA">      0.05000000</i>
  <i type="int" name="LMAXMIX">     4</i>
  <i type="logical" name="LWAVE"> T  </i>
  <i type="logical" name="LCHARG"> T  </i>
  <i type="logical" name="LVTOT"> T  </i>
  <i type="int" name="LORBIT">    11</i>
  <i type="logical" name="LELF"> F  </i>
  <i type="logical" name="LOPTICS"> T  </i>
  <i type="logical" name="LASPH"> T  </i>
  <i type="logical" name="LAECHG"> T  </i>
  <i name="CSHIFT">      0.00001000</i>
  <i name="HFSCREEN">      0.20000000</i>
  <i type="logical" name="LHFCALC"> T  </i>
  <i type="string" name="GGA">Pe</i>
  <i type="string" name="PRECFOCK">Fast</i>
  <i type="logical" name="LDAU"> F  </i>
  <i type="logical" name="LMIXTAU"> T  </i>
 </incar>
 <primitive_cell>
  <structure name="primitive_cell" >
   <crystal>
    <varray name="basis" >
     <v>       5.10874036       0.00000000      -2.30030869 </v>
     <v>      -1.03575852       5.00264257      -2.30030916 </v>
     <v>       0.00000000       0.00000000       6.82313837 </v>
    </varray>
    <i name="volume">    174.38032574 </i>
    <varray name="rec_basis" >
     <v>       0.19574297       0.04052707       0.00000000 </v>
     <v>       0.00000000       0.19989435       0.00000000 </v>
     <v>       0.06599152       0.08105414       0.14656012 </v>
    </varray>
   </crystal>
   <varray name="positions" >
    <v>       0.50000000       0.50000000       1.00000000 </v>
    <v>       0.75000000       0.25000000       0.50000000 </v>
    <v>       0.00000000       0.00000000       0.00000000 </v>
    <v>       0.25000000       0.75000000       0.50000000 </v>
    <v>       0.37121578       0.37500000       0.25000000 </v>
    <v>       0.12500000       0.62878422       0.75000000 </v>
    <v>       0.62500000       0.12121578       0.75000000 </v>
    <v>       0.87878422       0.87500000       0.25000000 </v>
   </varray>
  </structure>
  <varray name="primitive_index" >
   <v type="int" >        1 </v>
   <v type="int" >        2 </v>
   <v type="int" >        3 </v>
   <v type="int" >        4 </v>
   <v type="int" >        5 </v>
   <v type="int" >        6 </v>
   <v type="int" >        7 </v>
   <v type="int" >        8 </v>
  </varray>
 </primitive_cell>
 <kpoints>
  <generation param="Gamma">
   <v type="int" name="divisions">       4        4        3 </v>
   <v name="usershift">      0.00000000       0.00000000       0.00000000 </v>
   <v name="genvec1">      0.25000000       0.00000000       0.00000000 </v>
   <v name="genvec2">      0.00000000       0.25000000       0.00000000 </v>
   <v name="genvec3">     -0.00000000       0.00000000       0.33333333 </v>
   <v name="shift">      0.00000000       0.00000000       0.00000000 </v>
  </generation>
  <varray name="kpointlist" >
   <v>       0.00000000       0.00000000       0.00000000 </v>
   <v>       0.25000000      -0.00000000       0.00000000 </v>
   <v>       0.50000000      -0.00000000       0.00000000 </v>
   <v>       0.25000000       0.25000000       0.00000000 </v>
   <v>       0.50000000       0.25000000       0.00000000 </v>
   <v>      -0.25000000       0.25000000       0.00000000 </v>
   <v>       0.50000000       0.50000000       0.00000000 </v>
   <v>       0.00000000      -0.00000000       0.33333333 </v>
   <v>       0.25000000       0.00000000       0.33333333 </v>
   <v>       0.50000000      -0.00000000       0.33333333 </v>
   <v>      -0.25000000      -0.00000000       0.33333333 </v>
   <v>       0.25000000       0.25000000       0.33333333 </v>
   <v>       0.50000000       0.25000000       0.33333333 </v>
   <v>      -0.25000000       0.25000000       0.33333333 </v>
   <v>       0.50000000       0.50000000       0.33333333 </v>
   <v>      -0.25000000       0.50000000       0.33333333 </v>
   <v>      -0.25000000      -0.25000000       0.33333333 </v>
  </varray>
  <varray name="weights" >
   <v>       0.02083333 </v>
   <v>       0.08333333 </v>
   <v>       0.04166667 </v>
   <v>       0.04166667 </v>
   <v>       0.08333333 </v>
   <v>       0.04166667 </v>
   <v>       0.02083333 </v>
   <v>       0.04166667 </v>
   <v>       0.08333333 </v>
   <v>       0.08333333 </v>
   <v>       0.08333333 </v>
   <v>       0.04166667 </v>
   <v>       0.08333333 </v>
   <v>       0.08333333 </v>
   <v>       0.04166667 </v>
   <v>       0.08333333 </v>
   <v>       0.04166667 </v>
  </varray>
  <varray name="tetrahedronlist"  type="int" >
   <v type="int" >        4        9       10       14       14 </v>
   <v type="int" >        4       10       14       14       16 </v>
   <v type="int" >        4       10       13       14       16 </v>
   <v type="int" >        4        9       10       11       14 </v>
   <v type="int" >        4       10       10       11       14 </v>
   <v type="int" >        4       10       10       13       14 </v>
   <v type="int" >        4       10       11       13       16 </v>
   <v type="int" >        4       11       13       16       17 </v>
   <v type="int" >        4       11       12       13       17 </v>
   <v type="int" >        4       10       10       11       13 </v>
   <v type="int" >        4        9       10       11       13 </v>
   <v type="int" >        4        9       11       12       13 </v>
   <v type="int" >        4        8       11       12       17 </v>
   <v type="int" >        4        8        9       11       12 </v>
   <v type="int" >        4        8        8        9       12 </v>
   <v type="int" >        4        8        9        9       11 </v>
   <v type="int" >        4        9        9       11       14 </v>
   <v type="int" >        2        9        9       14       14 </v>
   <v type="int" >        2        8        8        9        9 </v>
   <v type="int" >        4        5       13       14       16 </v>
   <v type="int" >        4        5       13       15       16 </v>
   <v type="int" >        4        5        7       13       15 </v>
   <v type="int" >        4        5        6       13       14 </v>
   <v type="int" >        4        5        5        6       13 </v>
   <v type="int" >        4        5        5        7       13 </v>
   <v type="int" >        4        7       12       13       15 </v>
   <v type="int" >        4        5        7       12       13 </v>
   <v type="int" >        4        4        5        7       12 </v>
   <v type="int" >        4        5        9       12       13 </v>
   <v type="int" >        4        5        9       10       13 </v>
   <v type="int" >        4        3        5        9       10 </v>
   <v type="int" >        4        4        5        9       12 </v>
   <v type="int" >        4        2        4        5        9 </v>
   <v type="int" >        4        2        3        5        9 </v>
   <v type="int" >        4        3        9       10       14 </v>
   <v type="int" >        4        3       10       14       16 </v>
   <v type="int" >        4        3        5       14       16 </v>
   <v type="int" >        4        2        3        9       14 </v>
   <v type="int" >        4        2        3        6       14 </v>
   <v type="int" >        4        3        5        6       14 </v>
   <v type="int" >        4        6       10       11       14 </v>
   <v type="int" >        4        6       10       13       14 </v>
   <v type="int" >        4        5        6       10       13 </v>
   <v type="int" >        4        2        6       10       11 </v>
   <v type="int" >        4        2        3        6       10 </v>
   <v type="int" >        4        3        5        6       10 </v>
   <v type="int" >        4        4        8        9       12 </v>
   <v type="int" >        4        2        4        8        9 </v>
   <v type="int" >        4        1        2        4        8 </v>
   <v type="int" >        4        2        8        9       11 </v>
   <v type="int" >        4        2        9       11       14 </v>
   <v type="int" >        4        2        6       11       14 </v>
   <v type="int" >        4        1        2        8       11 </v>
   <v type="int" >        4        1        2        2       11 </v>
   <v type="int" >        4        2        2        6       11 </v>
   <v type="int" >        4        4        5        7       15 </v>
   <v type="int" >        4        4        5       15       16 </v>
   <v type="int" >        4        4       15       16       17 </v>
   <v type="int" >        4        2        4        5       16 </v>
   <v type="int" >        4        2        3        5       16 </v>
   <v type="int" >        4        2        3       10       16 </v>
   <v type="int" >        4        2        4       16       17 </v>
   <v type="int" >        4        2       11       16       17 </v>
   <v type="int" >        4        2       10       11       16 </v>
   <v type="int" >        4       12       13       15       17 </v>
   <v type="int" >        4       13       15       16       17 </v>
   <v type="int" >        4       15       15       16       17 </v>
   <v type="int" >        4       13       15       16       16 </v>
   <v type="int" >        4       13       14       16       16 </v>
   <v type="int" >        2       14       14       16       16 </v>
   <v type="int" >        2       15       15       16       16 </v>
   <v type="int" >        4        1        8       11       17 </v>
   <v type="int" >        4        1        2       11       17 </v>
   <v type="int" >        4        1        2        4       17 </v>
  </varray>
  <i name="volumeweight">      0.00347222 </i>
 </kpoints>
 <parameters>
  <separator name="general" >
   <i type="string" name="SYSTEM">unknown system</i>
   <i type="logical" name="LCOMPAT"> F  </i>
  </separator>
  <separator name="electronic" >
   <i type="string" name="PREC">accura</i>
   <i name="ENMAX">    680.00000000</i>
   <i name="ENAUG">   1360.00000000</i>
   <i name="EDIFF">      0.00001000</i>
   <i type="int" name="IALGO">    38</i>
   <i type="int" name="IWAVPR">    10</i>
   <i type="int" name="NBANDS">    60</i>
   <i type="int" name="NBANDSLOW">    -1</i>
   <i type="int" name="NBANDSHIGH">    -1</i>
   <i name="NELECT">     72.00000000</i>
   <i type="int" name="TURBO">     0</i>
   <i type="int" name="IRESTART">     0</i>
   <i type="int" name="NREBOOT">     0</i>
   <i type="int" name="NMIN">     0</i>
   <i name="EREF">      0.00000000</i>
   <separator name="electronic smearing" >
    <i type="int" name="ISMEAR">    -5</i>
    <i name="SIGMA">      0.05000000</i>
    <i name="KSPACING">      0.50000000</i>
    <i type="logical" name="KGAMMA"> T  </i>
    <i type="logical" name="KBLOWUP"> F  </i>
   </separator>
   <separator name="electronic projectors" >
    <i type="logical" name="LREAL"> F  </i>
    <v name="ROPT">      0.00000000      0.00000000      0.00000000</v>
    <i type="int" name="LMAXPAW">  -100</i>
    <i type="int" name="LMAXMIX">     4</i>
    <i type="logical" name="NLSPLINE"> F  </i>
   </separator>
   <separator name="electronic startup" >
    <i type="int" name="ISTART">     0</i>
    <i type="int" name="ICHARG">     2</i>
    <i type="int" name="INIWAV">     1</i>
   </separator>
   <separator name="electronic spin" >
    <i type="int" name="ISPIN">     1</i>
    <i type="logical" name="LNONCOLLINEAR"> F  </i>
    <v name="MAGMOM">      1.00000000      1.00000000      1.00000000      1.00000000      1.00000000      1.00000000      1.00000000      1.00000000</v>
    <i name="NUPDOWN">     -1.00000000</i>
    <i type="logical" name="LSORBIT"> F  </i>
    <v name="SAXIS">      0.00000000      0.00000000      1.00000000</v>
    <i type="logical" name="LSPIRAL"> F  </i>
    <v name="QSPIRAL">      0.00000000      0.00000000      0.00000000</v>
    <i type="logical" name="LZEROZ"> F  </i>
   </separator>
   <separator name="electronic exchange-correlation" >
    <i type="logical" name="LASPH"> T  </i>
    <i type="logical" name="LMETAGGA"> F  </i>
   </separator>
   <separator name="electronic convergence" >
    <i type="int" name="NELM">   200</i>
    <i type="int" name="NELMDL">     0</i>
    <i type="int" name="NELMIN">     5</i>
    <i name="ENINI">    680.00000000</i>
    <separator name="electronic convergence detail" >
     <i type="logical" name="LDIAG"> T  </i>
     <i type="logical" name="LSUBROT"> F  </i>
     <i name="WEIMIN">      0.00000000</i>
     <i name="EBREAK">      0.00000004</i>
     <i name="DEPER">      0.30000000</i>
     <i type="int" name="NRMM">     4</i>
     <i name="TIME">      0.40000000</i>
    </separator>
   </separator>
   <separator name="electronic mixer" >
    <i name="AMIX">      0.40000000</i>
    <i name="BMIX">      1.00000000</i>
    <i name="AMIN">      0.10000000</i>
    <i name="AMIX_MAG">      1.60000000</i>
    <i name="BMIX_MAG">      1.00000000</i>
    <separator name="electronic mixer details" >
     <i type="int" name="IMIX">     1</i>
     <i type="logical" name="MIXFIRST"> F  </i>
     <i type="int" name="MAXMIX">   -45</i>
     <i name="WC">    100.00000000</i>
     <i type="int" name="INIMIX">     1</i>
     <i type="int" name="MIXPRE">     1</i>
     <i type="int" name="MREMOVE">     5</i>
    </separator>
   </separator>
   <separator name="electronic dipolcorrection" >
    <i type="logical" name="LDIPOL"> F  </i>
    <i type="logical" name="LMONO"> F  </i>
    <i type="int" name="IDIPOL">     0</i>
    <i name="EPSILON">      1.00000000</i>
    <v name="DIPOL">   -100.00000000   -100.00000000   -100.00000000</v>
    <i name="EFIELD">      0.00000000</i>
   </separator>
  </separator>
  <separator name="grids" >
   <i type="int" name="NGX">    48</i>
   <i type="int" name="NGY">    48</i>
   <i type="int" name="NGZ">    60</i>
   <i type="int" name="NGXF">    96</i>
   <i type="int" name="NGYF">    96</i>
   <i type="int" name="NGZF">   120</i>
   <i type="logical" name="ADDGRID"> F  </i>
  </separator>
  <separator name="ionic" >
   <i type="int" name="NSW">     0</i>
   <i type="int" name="IBRION">    -1</i>
   <i type="int" name="MDALGO">     0</i>
   <i type="int" name="ISIF">     0</i>
   <i name="PSTRESS">      0.00000000</i>
   <i name="EDIFFG">      0.00010000</i>
   <i type="int" name="NFREE">     0</i>
   <i name="POTIM">      0.50000000</i>
   <i name="SMASS">     -3.00000000</i>
   <i name="SCALEE">      1.00000000</i>
  </separator>
  <separator name="ionic md" >
   <i name="TEBEG">      0.00010000</i>
   <i name="TEEND">      0.00010000</i>
   <i type="int" name="NBLOCK">     1</i>
   <i type="int" name="KBLOCK">     1</i>
   <i type="int" name="NPACO">   256</i>
   <i name="APACO">     10.00000000</i>
  </separator>
  <separator name="symmetry" >
   <i type="int" name="ISYM">     3</i>
   <i name="SYMPREC">      0.00001000</i>
  </separator>
  <separator name="dos" >
   <i type="int" name="LORBIT">    11</i>
   <v name="RWIGS">     -1.00000000     -1.00000000     -1.00000000</v>
   <i type="int" name="NEDOS">  1372</i>
   <i name="EMIN">     10.00000000</i>
   <i name="EMAX">    -10.00000000</i>
   <i name="EFERMI">      0.00000000</i>
  </separator>
  <separator name="writing" >
   <i type="int" name="NWRITE">     2</i>
   <i type="logical" name="LWAVE"> T  </i>
   <i type="logical" name="LDOWNSAMPLE"> F  </i>
   <i type="logical" name="LCHARG"> T  </i>
   <i type="logical" name="LPARD"> F  </i>
   <i type="logical" name="LVTOT"> T  </i>
   <i type="logical" name="LVHAR"> F  </i>
   <i type="logical" name="LELF"> F  </i>
   <i type="logical" name="LOPTICS"> T  </i>
   <v name="STM">      0.00000000      0.00000000      0.00000000      0.00000000      0.00000000      0.00000000      0.00000000</v>
  </separator>
  <separator name="performance" >
   <i type="int" name="NPAR">    12</i>
   <i type="int" name="NSIM">     4</i>
   <i type="int" name="NBLK">    -1</i>
   <i type="logical" name="LPLANE"> T  </i>
   <i type="logical" name="LSCALAPACK"> T  </i>
   <i type="logical" name="LSCAAWARE"> F  </i>
   <i type="logical" name="LSCALU"> F  </i>
   <i type="logical" name="LASYNC"> F  </i>
   <i type="logical" name="LORBITALREAL"> F  </i>
  </separator>
  <separator name="miscellaneous" >
   <i type="int" name="IDIOT">     3</i>
   <i type="int" name="PHON_NSTRUCT">    -1</i>
   <i type="logical" name="LMUSIC"> F  </i>
   <v name="POMASS">     69.72300000     63.54600000     78.96000000</v>
   <v name="DARWINR">      0.00000000      0.00000000      0.00000000</v>
   <v name="DARWINV">      1.00000000      1.00000000      1.00000000</v>
   <i type="logical" name="LCORR"> T  </i>
  </separator>
  <i type="logical" name="GGA_COMPAT"> T  </i>
  <i type="logical" name="LBERRY"> F  </i>
  <i type="int" name="ICORELEVEL">     0</i>
  <i type="logical" name="LDAU"> F  </i>
  <i type="int" name="I_CONSTRAINED_M">     0</i>
  <separator name="electronic exchange-correlation" >
   <i type="string" name="GGA">PE</i>
   <i type="int" name="VOSKOWN">     0</i>
   <i type="logical" name="LHFCALC"> T  </i>
   <i type="string" name="PRECFOCK">fast</i>
   <i type="logical" name="LSYMGRAD"> F  </i>
   <i type="logical" name="LHFONE"> F  </i>
   <i type="logical" name="LRHFCALC"> F  </i>
   <i type="logical" name="LTHOMAS"> F  </i>
   <i type="logical" name="LMODELHF"> F  </i>
   <i type="logical" name="LFOCKACE"> T  </i>
   <i name="ENCUT4O">     -1.00000000</i>
   <i type="int" name="EXXOEP">     0</i>
   <i type="int" name="FOURORBIT">     0</i>
   <i name="AEXX">      0.25000000</i>
   <i name="HFALPHA">     -1.00000000</i>
   <i name="MCALPHA">      0.00000000</i>
   <i name="ALDAX">      0.75000000</i>
   <i name="AGGAX">      0.75000000</i>
   <i name="ALDAC">      1.00000000</i>
   <i name="AGGAC">      1.00000000</i>
   <i type="int" name="NKREDX">     1</i>
   <i type="int" name="NKREDY">     1</i>
   <i type="int" name="NKREDZ">     1</i>
   <i type="logical" name="SHIFTRED"> F  </i>
   <i type="logical" name="ODDONLY"> F  </i>
   <i type="logical" name="EVENONLY"> F  </i>
   <i type="int" name="LMAXFOCK">     4</i>
   <i type="int" name="NMAXFOCKAE">     1</i>
   <i type="logical" name="LFOCKAEDFT"> F  </i>
   <i name="HFSCREEN">      0.20000000</i>
   <i name="HFSCREENC">      0.20000000</i>
   <i type="int" name="NBANDSGWLOW">     1</i>
  </separator>
  <separator name="vdW DFT" >
   <i type="logical" name="LUSE_VDW"> F  </i>
   <i type="int" name="IVDW_NL">     1</i>
   <i type="logical" name="LSPIN_VDW"> F  </i>
   <i name="Zab_VDW">     -0.84910000</i>
   <i name="PARAM1">      0.12340000</i>
   <i name="PARAM2">      1.00000000</i>
   <i name="PARAM3">      0.00000000</i>
  </separator>
  <separator name="model GW" >
   <i type="int" name="MODEL_GW">     0</i>
   <i name="MODEL_EPS0">     13.07852443</i>
   <i name="MODEL_ALPHA">      1.00000000</i>
  </separator>
  <separator name="linear response parameters" >
   <i type="logical" name="LEPSILON"> F  </i>
   <i type="logical" name="LRPA"> F  </i>
   <i type="logical" name="LNABLA"> F  </i>
   <i type="logical" name="LVEL"> F  </i>
   <i name="CSHIFT">      0.00001000</i>
   <i name="OMEGAMAX">     -1.00000000</i>
   <i name="DEG_THRESHOLD">      0.00200000</i>
   <i name="RTIME">     -0.10000000</i>
   <i name="WPLASMAI">      0.00000000</i>
   <v name="DFIELD">      0.00000000      0.00000000      0.00000000</v>
   <v name="WPLASMA">      0.00000000      0.00000000      0.00000000      0.00000000      0.00000000      0.00000000      0.00000000      0.00000000      0.00000000</v>
  </separator>
  <separator name="orbital magnetization" >
   <i type="logical" name="NUCIND"> F  </i>
   <v name="MAGPOS">      0.00000000      0.00000000      0.00000000</v>
   <i type="logical" name="LNICSALL"> T  </i>
   <i type="logical" name="ORBITALMAG"> F  </i>
   <i type="logical" name="LMAGBLOCH"> F  </i>
   <i type="logical" name="LCHIMAG"> F  </i>
   <i type="logical" name="LGAUGE"> T  </i>
   <i type="int" name="MAGATOM">     0</i>
   <v name="MAGDIPOL">      0.00000000      0.00000000      0.00000000</v>
   <v name="AVECCONST">      0.00000000      0.00000000      0.00000000</v>
  </separator>
  <separator name="response functions" >
   <i type="logical" name="LALL_IN_ONE"> F  </i>
   <i type="int" name="IALL_IN_ONE">    -1</i>
   <i type="int" name="NBANDS_WAVE">    -1</i>
   <i type="logical" name="LFINITE_TEMPERATURE"> F  </i>
   <i type="logical" name="LADDER"> F  </i>
   <i type="logical" name="LRPAFORCE"> F  </i>
   <i type="logical" name="LFXC"> F  </i>
   <i type="logical" name="LHARTREE"> T  </i>
   <i type="int" name="IBSE">     0</i>
   <v type="int" name="KPOINT">    -1     0     0     0</v>
   <i type="logical" name="LTCTC"> F  </i>
   <i type="logical" name="LTCTE"> F  </i>
   <i type="logical" name="LTETE"> F  </i>
   <i type="logical" name="LTRIPLET"> F  </i>
   <i type="logical" name="LFXCEPS"> F  </i>
   <i type="logical" name="LFXHEG"> F  </i>
   <i type="int" name="NATURALO">     2</i>
   <i type="logical" name="LHOLEGF"> F  </i>
   <i type="logical" name="L2ORDER"> F  </i>
   <i type="logical" name="LDMP1"> F  </i>
   <i type="logical" name="LMP2LT"> F  </i>
   <i type="logical" name="LSMP2LT"> F  </i>
   <i type="logical" name="LGWLF"> F  </i>
   <i name="ENCUTGW">     -1.60000002</i>
   <i name="ENCUTGWSOFT">     -1.60000002</i>
   <i name="ENCUTLF">     -1.00000000</i>
   <i type="logical" name="LESF_SPLINES"> F  </i>
   <i type="int" name="LMAXMP2">    -1</i>
   <i name="SCISSOR">      0.00000000</i>
   <i type="int" name="NOMEGA">     0</i>
   <i type="int" name="NOMEGAR">     0</i>
   <i type="int" name="NBANDSGW">    -1</i>
   <i type="int" name="NBANDSO">    -1</i>
   <i type="int" name="NBANDSV">    -1</i>
   <i type="int" name="NELMGW">     1</i>
   <i type="int" name="NELMHF">     1</i>
   <i type="int" name="DIM">     3</i>
   <i type="int" name="IESPILON">     4</i>
   <i type="int" name="ANTIRES">     0</i>
   <i name="OMEGAMAX">    -30.00000000</i>
   <i name="OMEGAMIN">    -30.00000000</i>
   <i name="OMEGATL">   -200.00000000</i>
   <i type="int" name="OMEGAGRID">     0</i>
   <i name="CSHIFT">      0.00001000</i>
   <i type="logical" name="LSELFENERGY"> F  </i>
   <i type="logical" name="LSPECTRAL"> F  </i>
   <i type="logical" name="LSPECTRALGW"> F  </i>
   <i type="logical" name="LSINGLES"> F  </i>
   <i type="logical" name="LFERMIGW"> F  </i>
   <i type="logical" name="ODDONLYGW"> F  </i>
   <i type="logical" name="EVENONLYGW"> F  </i>
   <i type="int" name="NKREDLFX">     1</i>
   <i type="int" name="NKREDLFY">     1</i>
   <i type="int" name="NKREDLFZ">     1</i>
   <i type="int" name="MAXMEM">  2800</i>
   <i type="int" name="TELESCOPE">     0</i>
   <i type="int" name="NTAUPAR">    -1</i>
   <i type="int" name="NOMEGAPAR">    -1</i>
   <i name="DAMP_NEWTON">      0.80000001</i>
   <i name="LAMBDA">      1.00000000</i>
  </separator>
  <separator name="External order field" >
   <i name="OFIELD_KAPPA">      0.00000000</i>
   <v name="OFIELD_K">      0.00000000      0.00000000      0.00000000</v>
   <i name="OFIELD_Q6_NEAR">      0.00000000</i>
   <i name="OFIELD_Q6_FAR">      0.00000000</i>
   <i name="OFIELD_A">      0.00000000</i>
  </separator>
  <separator name="optional k-points parameters" >
   <i type="int" name="KPOINTS_OPT_MODE">     1</i>
   <i type="logical" name="LKPOINTS_OPT"> F  </i>
  </separator>
 </parameters>
 <atominfo>
  <atoms>       8 </atoms>
  <types>       3 </types>
  <array name="atoms" >
   <dimension dim="1">ion</dimension>
   <field type="string">element</field>
   <field type="int">atomtype</field>
   <set>
    <rc><c>Ga</c><c>   1</c></rc>
    <rc><c>Ga</c><c>   1</c></rc>
    <rc><c>Cu</c><c>   2</c></rc>
    <rc><c>Cu</c><c>   2</c></rc>
    <rc><c>Se</c><c>   3</c></rc>
    <rc><c>Se</c><c>   3</c></rc>
    <rc><c>Se</c><c>   3</c></rc>
    <rc><c>Se</c><c>   3</c></rc>
   </set>
  </array>
  <array name="atomtypes" >
   <dimension dim="1">type</dimension>
   <field type="int">atomspertype</field>
   <field type="string">element</field>
   <field>mass</field>
   <field>valence</field>
   <field type="string">pseudopotential</field>
   <set>
    <rc><c>   2</c><c>Ga</c><c>     69.72300000</c><c>     13.00000000</c><c>  PAW_PBE Ga_d 06Jul2010                </c></rc>
    <rc><c>   2</c><c>Cu</c><c>     63.54600000</c><c>     11.00000000</c><c>  PAW_PBE Cu 22Jun2005                  </c></rc>
    <rc><c>   4</c><c>Se</c><c>     78.96000000</c><c>      6.00000000</c><c>  PAW_PBE Se 06Sep2000                  </c></rc>
   </set>
  </array>
 </atominfo>
 <structure name="initialpos" >
  <crystal>
   <varray name="basis" >
    <v>       5.10874036       0.00000000      -2.30030869 </v>
    <v>      -1.03575852       5.00264257      -2.30030916 </v>
    <v>       0.00000000       0.00000000       6.82313837 </v>
   </varray>
   <i name="volume">    174.38032574 </i>
   <varray name="rec_basis" >
    <v>       0.19574297       0.04052707       0.00000000 </v>
    <v>       0.00000000       0.19989435       0.00000000 </v>
    <v>       0.06599152       0.08105414       0.14656012 </v>
   </varray>
  </crystal>
  <varray name="positions" >
   <v>       0.50000000       0.50000000       0.00000000 </v>
   <v>       0.75000000       0.25000000       0.50000000 </v>
   <v>       0.00000000       0.00000000       0.00000000 </v>
   <v>       0.25000000       0.75000000       0.50000000 </v>
   <v>       0.37121578       0.37500000       0.25000000 </v>
   <v>       0.12500000       0.62878422       0.75000000 </v>
   <v>       0.62500000       0.12121578       0.75000000 </v>
   <v>       0.87878422       0.87500000       0.25000000 </v>
  </varray>
 </structure>
 <calculation>
  <scstep>
   <time name="dav">    0.48    0.52</time>
   <time name="total">    0.67    0.78</time>
   <energy>
    <i name="alphaZ">    236.66789905 </i>
    <i name="ewald">  -4863.29910036 </i>
    <i name="hartreedc">  -2637.76833053 </i>
    <i name="XCdc">    176.81049871 </i>
    <i name="pawpsdc">   6503.92661446 </i>
    <i name="pawaedc"> -11078.58983084 </i>
    <i name="eentropy">      0.00000000 </i>
    <i name="bandstr">    355.41805981 </i>
    <i name="atom">   8093.15734121 </i>
    <i name="e_fr_energy">  -3213.67684849 </i>
    <i name="e_wo_entrp">  -3213.67684849 </i>
    <i name="e_0_energy">  -3213.67684849 </i>
   </energy>
  </scstep>
  <scstep>
   <time name="dav">    0.39    0.39</time>
   <time name="total">    0.39    0.39</time>
   <energy>
    <i name="e_fr_energy">  -3861.95185618 </i>
    <i name="e_wo_entrp">  -3861.95185618 </i>
    <i name="e_0_energy">  -3861.95185618 </i>
   </energy>
  </scstep>
  <scstep>
   <time name="dav">    0.42    0.43</time>
   <time name="total">    0.42    0.44</time>
   <energy>
    <i name="e_fr_energy">  -3984.89879393 </i>
    <i name="e_wo_entrp">  -3984.89879393 </i>
    <i name="e_0_energy">  -3984.89879393 </i>
   </energy>
  </scstep>
  <scstep>
   <time name="dav">    0.43    0.45</time>
   <time name="total">    0.44    0.46</time>
   <energy>
    <i name="e_fr_energy">  -3991.53890996 </i>
    <i name="e_wo_entrp">  -3991.53890996 </i>
    <i name="e_0_energy">  -3991.53890996 </i>
   </energy>
  </scstep>
  <scstep>
   <time name="dav">   30.46   30.78</time>
   <time name="total">   30.94   31.30</time>
   <energy>
    <i name="e_fr_energy">    -37.27514114 </i>
    <i name="e_wo_entrp">    -37.27514114 </i>
    <i name="e_0_energy">    -37.27514114 </i>
   </energy>
  </scstep>
  <scstep>
   <time name="dav">   30.50   30.57</time>
   <time name="total">   30.98   31.07</time>
   <energy>
    <i name="e_fr_energy">    -36.94210897 </i>
    <i name="e_wo_entrp">    -36.94210897 </i>
    <i name="e_0_energy">    -36.94210897 </i>
   </energy>
  </scstep>
  <scstep>
   <time name="dav">   29.09   29.16</time>
   <time name="total">   29.58   29.67</time>
   <energy>
    <i name="e_fr_energy">    -36.89083269 </i>
    <i name="e_wo_entrp">    -36.89083269 </i>
    <i name="e_0_energy">    -36.89083269 </i>
   </energy>
  </scstep>
  <scstep>
   <time name="dav">   29.54   29.61</time>
   <time name="total">   30.02   30.11</time>
   <energy>
    <i name="e_fr_energy">    -36.89106274 </i>
    <i name="e_wo_entrp">    -36.89106274 </i>
    <i name="e_0_energy">    -36.89106274 </i>
   </energy>
  </scstep>
  <scstep>
   <time name="dav">   30.60   30.67</time>
   <time name="total">   31.11   31.20</time>
   <energy>
    <i name="e_fr_energy">    -36.87955648 </i>
    <i name="e_wo_entrp">    -36.87955648 </i>
    <i name="e_0_energy">    -36.87955648 </i>
   </energy>
  </scstep>
  <scstep>
   <time name="dav">   30.68   30.75</time>
   <time name="total">   31.16   31.25</time>
   <energy>
    <i name="e_fr_energy">    -36.87590561 </i>
    <i name="e_wo_entrp">    -36.87590561 </i>
    <i name="e_0_energy">    -36.87590561 </i>
   </energy>
  </scstep>
  <scstep>
   <time name="dav">   28.98   29.05</time>
   <time name="total">   29.47   29.55</time>
   <energy>
    <i name="e_fr_energy">    -36.87523819 </i>
    <i name="e_wo_entrp">    -36.87523819 </i>
    <i name="e_0_energy">    -36.87523819 </i>
   </energy>
  </scstep>
  <scstep>
   <time name="dav">   29.33   29.39</time>
   <time name="total">   29.81   29.90</time>
   <energy>
    <i name="e_fr_energy">    -36.87514663 </i>
    <i name="e_wo_entrp">    -36.87514663 </i>
    <i name="e_0_energy">    -36.87514663 </i>
   </energy>
  </scstep>
  <scstep>
   <time name="dav">   30.16   30.23</time>
   <time name="total">   30.65   30.74</time>
   <energy>
    <i name="e_fr_energy">    -36.87518352 </i>
    <i name="e_wo_entrp">    -36.87518352 </i>
    <i name="e_0_energy">    -36.87518352 </i>
   </energy>
  </scstep>
  <scstep>
   <time name="dav">   30.61   30.69</time>
   <time name="total">   31.09   31.18</time>
   <energy>
    <i name="e_fr_energy">    -36.87523188 </i>
    <i name="e_wo_entrp">    -36.87523188 </i>
    <i name="e_0_energy">    -36.87523188 </i>
   </energy>
  </scstep>
  <scstep>
   <time name="dav">   29.32   29.39</time>
   <time name="total">   29.81   29.89</time>
   <energy>
    <i name="e_fr_energy">    -36.87526739 </i>
    <i name="e_wo_entrp">    -36.87526739 </i>
    <i name="e_0_energy">    -36.87526739 </i>
   </energy>
  </scstep>
  <scstep>
   <time name="dav">   29.27   29.34</time>
   <time name="total">   29.76   29.84</time>
   <energy>
    <i name="e_fr_energy">    -36.87528854 </i>
    <i name="e_wo_entrp">    -36.87528854 </i>
    <i name="e_0_energy">    -36.87528854 </i>
   </energy>
  </scstep>
  <scstep>
   <time name="dav">   30.05   30.12</time>
   <time name="total">   30.55   30.64</time>
   <energy>
    <i name="e_fr_energy">    -36.87530018 </i>
    <i name="e_wo_entrp">    -36.87530018 </i>
    <i name="e_0_energy">    -36.87530018 </i>
   </energy>
  </scstep>
  <scstep>
   <time name="dav">   30.66   30.73</time>
   <time name="total">   31.11   31.20</time>
   <energy>
    <i name="alphaZ">    236.66789905 </i>
    <i name="ewald">  -4863.29910036 </i>
    <i name="hartreedc">  -2616.51992653 </i>
    <i name="XCdc">    131.70909734 </i>
    <i name="pawpsdc">   8078.32285658 </i>
    <i name="pawaedc">  -8878.82556587 </i>
    <i name="eentropy">      0.00000000 </i>
    <i name="bandstr">   -385.84783411 </i>
    <i name="atom">   8093.15734121 </i>
    <i name="e_fr_energy">    -36.87530640 </i>
    <i name="e_wo_entrp">    -36.87530640 </i>
    <i name="e_0_energy">    -36.87530640 </i>
   </energy>
  </scstep>
  <structure>
   <crystal>
    <varray name="basis" >
     <v>       5.10874036       0.00000000      -2.30030869 </v>
     <v>      -1.03575852       5.00264257      -2.30030916 </v>
     <v>       0.00000000       0.00000000       6.82313837 </v>
    </varray>
    <i name="volume">    174.38032574 </i>
    <varray name="rec_basis" >
     <v>       0.19574297       0.04052707       0.00000000 </v>
     <v>       0.00000000       0.19989435       0.00000000 </v>
     <v>       0.06599152       0.08105414       0.14656012 </v>
    </varray>
   </crystal>
   <varray name="positions" >
    <v>       0.50000000       0.50000000       0.00000000 </v>
    <v>       0.75000000       0.25000000       0.50000000 </v>
    <v>       0.00000000       0.00000000       0.00000000 </v>
    <v>       0.25000000       0.75000000       0.50000000 </v>
    <v>       0.37121578       0.37500000       0.25000000 </v>
    <v>       0.12500000       0.62878422       0.75000000 </v>
    <v>       0.62500000       0.12121578       0.75000000 </v>
    <v>       0.87878422       0.87500000       0.25000000 </v>
   </varray>
  </structure>
  <varray name="forces" >
   <v>      -0.00000000      -0.00000000       0.00000000 </v>
   <v>      -0.00000000       0.00000000       0.00000000 </v>
   <v>      -0.00000000      -0.00000000      -0.00000000 </v>
   <v>      -0.00000000       0.00000000       0.00000000 </v>
   <v>       0.23316460       0.00000000      -0.10498685 </v>
   <v>       0.04727236      -0.22832226       0.10498687 </v>
   <v>      -0.04727236       0.22832226      -0.10498687 </v>
   <v>      -0.23316460      -0.00000000       0.10498685 </v>
  </varray>
  <energy>
   <i name="e_fr_energy">    -36.87530640 </i>
   <i name="e_wo_entrp">    -36.87530640 </i>
   <i name="e_0_energy">    -36.87530640 </i>
  </energy>
  <time name="totalsc">  451.29  453.06</time>
  <eigenvalues>
   <array>
    <dimension dim="1">band</dimension>
    <dimension dim="2">kpoint</dimension>
    <dimension dim="3">spin</dimension>
    <field>eigene</field>
    <field>occ</field>
    <set>
     <set comment="spin 1">
      <set comment="kpoint 1">
       <r>  -14.6561    1.0000 </r>
       <r>  -14.6541    1.0000 </r>
       <r>  -14.6541    1.0000 </r>
       <r>  -14.5656    1.0000 </r>
       <r>  -14.5513    1.0000 </r>
       <r>  -14.5513    1.0000 </r>
       <r>  -14.5011    1.0000 </r>
       <r>  -14.4954    1.0000 </r>
       <r>  -14.4944    1.0000 </r>
       <r>  -14.4830    1.0000 </r>
       <r>  -12.4008    1.0000 </r>
       <r>  -10.7063    1.0000 </r>
       <r>  -10.7062    1.0000 </r>
       <r>  -10.7029    1.0000 </r>
       <r>   -4.7779    1.0000 </r>
       <r>   -3.2541    1.0000 </r>
       <r>   -1.8367    1.0000 </r>
       <r>   -1.6035    1.0000 </r>
       <r>   -1.5690    1.0000 </r>
       <r>   -1.0595    1.0000 </r>
       <r>   -1.0595    1.0000 </r>
       <r>   -0.5449    1.0000 </r>
       <r>   -0.5448    1.0000 </r>
       <r>   -0.3907    1.0000 </r>
       <r>   -0.3906    1.0000 </r>
       <r>   -0.3791    1.0000 </r>
       <r>    0.4964    1.0000 </r>
       <r>    0.5468    1.0000 </r>
       <r>    0.6207    1.0000 </r>
       <r>    0.9871    1.0000 </r>
       <r>    1.1335    1.0000 </r>
       <r>    1.1336    1.0000 </r>
       <r>    1.2079    1.0000 </r>
       <r>    3.1721    1.0000 </r>
       <r>    3.1724    1.0000 </r>
       <r>    3.2576    1.0000 </r>
       <r>    4.6250    0.0000 </r>
       <r>    6.1643    0.0000 </r>
       <r>    6.5856    0.0000 </r>
       <r>    8.3780    0.0000 </r>
       <r>    8.3781    0.0000 </r>
       <r>    8.7778    0.0000 </r>
       <r>    9.1963    0.0000 </r>
       <r>    9.1963    0.0000 </r>
       <r>    9.4488    0.0000 </r>
       <r>    9.8070    0.0000 </r>
       <r>   11.0978    0.0000 </r>
       <r>   11.0979    0.0000 </r>
       <r>   11.1360    0.0000 </r>
       <r>   11.5435    0.0000 </r>
       <r>   14.2371    0.0000 </r>
       <r>   15.1935    0.0000 </r>
       <r>   15.1994    0.0000 </r>
       <r>   15.2598    0.0000 </r>
       <r>   15.3714    0.0000 </r>
       <r>   15.3714    0.0000 </r>
       <r>   15.7478    0.0000 </r>
       <r>   15.7701    0.0000 </r>
       <r>   16.8263    0.0000 </r>
       <r>   16.8263    0.0000 </r>
      </set>
      <set comment="kpoint 2">
       <r>  -14.6590    1.0000 </r>
       <r>  -14.6555    1.0000 </r>
       <r>  -14.6469    1.0000 </r>
       <r>  -14.5712    1.0000 </r>
       <r>  -14.5592    1.0000 </r>
       <r>  -14.5494    1.0000 </r>
       <r>  -14.5008    1.0000 </r>
       <r>  -14.4958    1.0000 </r>
       <r>  -14.4924    1.0000 </r>
       <r>  -14.4834    1.0000 </r>
       <r>  -12.1697    1.0000 </r>
       <r>  -10.9146    1.0000 </r>
       <r>  -10.7948    1.0000 </r>
       <r>  -10.7510    1.0000 </r>
       <r>   -4.5435    1.0000 </r>
       <r>   -3.3682    1.0000 </r>
       <r>   -1.9827    1.0000 </r>
       <r>   -1.7290    1.0000 </r>
       <r>   -1.3411    1.0000 </r>
       <r>   -0.9517    1.0000 </r>
       <r>   -0.9213    1.0000 </r>
       <r>   -0.7750    1.0000 </r>
       <r>   -0.5893    1.0000 </r>
       <r>   -0.4224    1.0000 </r>
       <r>   -0.3520    1.0000 </r>
       <r>   -0.1006    1.0000 </r>
       <r>    0.5680    1.0000 </r>
       <r>    0.6716    1.0000 </r>
       <r>    0.7312    1.0000 </r>
       <r>    0.8437    1.0000 </r>
       <r>    1.0459    1.0000 </r>
       <r>    1.3340    1.0000 </r>
       <r>    1.4344    1.0000 </r>
       <r>    2.0145    1.0000 </r>
       <r>    2.6015    1.0000 </r>
       <r>    2.9822    1.0000 </r>
       <r>    5.9136    0.0000 </r>
       <r>    6.8682    0.0000 </r>
       <r>    7.1669    0.0000 </r>
       <r>    7.7315    0.0000 </r>
       <r>    7.9024    0.0000 </r>
       <r>    8.7398    0.0000 </r>
       <r>    9.3001    0.0000 </r>
       <r>    9.4680    0.0000 </r>
       <r>    9.6964    0.0000 </r>
       <r>   10.3165    0.0000 </r>
       <r>   10.7208    0.0000 </r>
       <r>   11.5729    0.0000 </r>
       <r>   12.0912    0.0000 </r>
       <r>   12.7793    0.0000 </r>
       <r>   13.2058    0.0000 </r>
       <r>   13.5412    0.0000 </r>
       <r>   13.6716    0.0000 </r>
       <r>   14.0556    0.0000 </r>
       <r>   14.2819    0.0000 </r>
       <r>   14.8428    0.0000 </r>
       <r>   15.1604    0.0000 </r>
       <r>   15.4304    0.0000 </r>
       <r>   15.8505    0.0000 </r>
       <r>   16.5521    0.0000 </r>
      </set>
      <set comment="kpoint 3">
       <r>  -14.6615    1.0000 </r>
       <r>  -14.6576    1.0000 </r>
       <r>  -14.6365    1.0000 </r>
       <r>  -14.5833    1.0000 </r>
       <r>  -14.5625    1.0000 </r>
       <r>  -14.5478    1.0000 </r>
       <r>  -14.4996    1.0000 </r>
       <r>  -14.4977    1.0000 </r>
       <r>  -14.4891    1.0000 </r>
       <r>  -14.4846    1.0000 </r>
       <r>  -11.7289    1.0000 </r>
       <r>  -11.3594    1.0000 </r>
       <r>  -10.8653    1.0000 </r>
       <r>  -10.7973    1.0000 </r>
       <r>   -4.2611    1.0000 </r>
       <r>   -3.3706    1.0000 </r>
       <r>   -2.0159    1.0000 </r>
       <r>   -1.6067    1.0000 </r>
       <r>   -1.5380    1.0000 </r>
       <r>   -1.2382    1.0000 </r>
       <r>   -0.8575    1.0000 </r>
       <r>   -0.6288    1.0000 </r>
       <r>   -0.5899    1.0000 </r>
       <r>   -0.5452    1.0000 </r>
       <r>   -0.1746    1.0000 </r>
       <r>   -0.1012    1.0000 </r>
       <r>    0.6122    1.0000 </r>
       <r>    0.7024    1.0000 </r>
       <r>    0.7566    1.0000 </r>
       <r>    0.9346    1.0000 </r>
       <r>    1.1068    1.0000 </r>
       <r>    1.4872    1.0000 </r>
       <r>    1.6373    1.0000 </r>
       <r>    1.8033    1.0000 </r>
       <r>    1.8660    1.0000 </r>
       <r>    2.5850    1.0000 </r>
       <r>    6.5581    0.0000 </r>
       <r>    6.9639    0.0000 </r>
       <r>    7.5561    0.0000 </r>
       <r>    8.5929    0.0000 </r>
       <r>    8.6335    0.0000 </r>
       <r>    8.8700    0.0000 </r>
       <r>    9.2972    0.0000 </r>
       <r>    9.9261    0.0000 </r>
       <r>   10.0245    0.0000 </r>
       <r>   10.0488    0.0000 </r>
       <r>   10.7596    0.0000 </r>
       <r>   10.9704    0.0000 </r>
       <r>   11.0609    0.0000 </r>
       <r>   12.0219    0.0000 </r>
       <r>   12.7671    0.0000 </r>
       <r>   12.9115    0.0000 </r>
       <r>   13.1433    0.0000 </r>
       <r>   13.5288    0.0000 </r>
       <r>   13.5882    0.0000 </r>
       <r>   14.4188    0.0000 </r>
       <r>   15.6264    0.0000 </r>
       <r>   15.6588    0.0000 </r>
       <r>   15.9977    0.0000 </r>
       <r>   16.5316    0.0000 </r>
      </set>
      <set comment="kpoint 4">
       <r>  -14.6605    1.0000 </r>
       <r>  -14.6586    1.0000 </r>
       <r>  -14.6358    1.0000 </r>
       <r>  -14.5849    1.0000 </r>
       <r>  -14.5574    1.0000 </r>
       <r>  -14.5519    1.0000 </r>
       <r>  -14.5000    1.0000 </r>
       <r>  -14.4965    1.0000 </r>
       <r>  -14.4901    1.0000 </r>
       <r>  -14.4842    1.0000 </r>
       <r>  -11.8849    1.0000 </r>
       <r>  -11.0550    1.0000 </r>
       <r>  -10.9188    1.0000 </r>
       <r>  -10.8572    1.0000 </r>
       <r>   -4.3479    1.0000 </r>
       <r>   -3.6193    1.0000 </r>
       <r>   -2.2741    1.0000 </r>
       <r>   -1.6854    1.0000 </r>
       <r>   -1.1169    1.0000 </r>
       <r>   -1.1023    1.0000 </r>
       <r>   -0.9155    1.0000 </r>
       <r>   -0.5819    1.0000 </r>
       <r>   -0.5269    1.0000 </r>
       <r>   -0.3883    1.0000 </r>
       <r>   -0.2644    1.0000 </r>
       <r>   -0.1273    1.0000 </r>
       <r>    0.5760    1.0000 </r>
       <r>    0.7027    1.0000 </r>
       <r>    0.8656    1.0000 </r>
       <r>    0.8803    1.0000 </r>
       <r>    1.1383    1.0000 </r>
       <r>    1.3613    1.0000 </r>
       <r>    1.5802    1.0000 </r>
       <r>    1.8815    1.0000 </r>
       <r>    2.7469    1.0000 </r>
       <r>    2.7569    1.0000 </r>
       <r>    5.6840    0.0000 </r>
       <r>    6.4118    0.0000 </r>
       <r>    7.2152    0.0000 </r>
       <r>    7.4293    0.0000 </r>
       <r>    8.5112    0.0000 </r>
       <r>    9.0603    0.0000 </r>
       <r>    9.6192    0.0000 </r>
       <r>    9.8332    0.0000 </r>
       <r>   10.1178    0.0000 </r>
       <r>   10.4062    0.0000 </r>
       <r>   11.1466    0.0000 </r>
       <r>   11.3621    0.0000 </r>
       <r>   11.3987    0.0000 </r>
       <r>   11.8222    0.0000 </r>
       <r>   12.3773    0.0000 </r>
       <r>   12.4128    0.0000 </r>
       <r>   13.9914    0.0000 </r>
       <r>   14.1730    0.0000 </r>
       <r>   14.5802    0.0000 </r>
       <r>   15.0129    0.0000 </r>
       <r>   15.2801    0.0000 </r>
       <r>   15.4965    0.0000 </r>
       <r>   16.7545    0.0000 </r>
       <r>   17.1296    0.0000 </r>
      </set>
      <set comment="kpoint 5">
       <r>  -14.6628    1.0000 </r>
       <r>  -14.6594    1.0000 </r>
       <r>  -14.6277    1.0000 </r>
       <r>  -14.5911    1.0000 </r>
       <r>  -14.5611    1.0000 </r>
       <r>  -14.5532    1.0000 </r>
       <r>  -14.4978    1.0000 </r>
       <r>  -14.4963    1.0000 </r>
       <r>  -14.4894    1.0000 </r>
       <r>  -14.4857    1.0000 </r>
       <r>  -11.6258    1.0000 </r>
       <r>  -11.2582    1.0000 </r>
       <r>  -11.0107    1.0000 </r>
       <r>  -10.8327    1.0000 </r>
       <r>   -4.3000    1.0000 </r>
       <r>   -3.7591    1.0000 </r>
       <r>   -2.3408    1.0000 </r>
       <r>   -2.0400    1.0000 </r>
       <r>   -1.4194    1.0000 </r>
       <r>   -0.8831    1.0000 </r>
       <r>   -0.6636    1.0000 </r>
       <r>   -0.6341    1.0000 </r>
       <r>   -0.4684    1.0000 </r>
       <r>   -0.3653    1.0000 </r>
       <r>   -0.1756    1.0000 </r>
       <r>   -0.0997    1.0000 </r>
       <r>    0.6028    1.0000 </r>
       <r>    0.6667    1.0000 </r>
       <r>    0.7607    1.0000 </r>
       <r>    0.9625    1.0000 </r>
       <r>    1.4322    1.0000 </r>
       <r>    1.5449    1.0000 </r>
       <r>    1.7929    1.0000 </r>
       <r>    2.0196    1.0000 </r>
       <r>    2.3485    1.0000 </r>
       <r>    2.5059    1.0000 </r>
       <r>    6.0468    0.0000 </r>
       <r>    6.4036    0.0000 </r>
       <r>    7.7255    0.0000 </r>
       <r>    8.3020    0.0000 </r>
       <r>    8.6886    0.0000 </r>
       <r>    8.8841    0.0000 </r>
       <r>    9.1711    0.0000 </r>
       <r>    9.5598    0.0000 </r>
       <r>   10.0544    0.0000 </r>
       <r>   10.5650    0.0000 </r>
       <r>   10.8943    0.0000 </r>
       <r>   11.0556    0.0000 </r>
       <r>   11.2224    0.0000 </r>
       <r>   11.8136    0.0000 </r>
       <r>   12.4515    0.0000 </r>
       <r>   12.9027    0.0000 </r>
       <r>   13.4697    0.0000 </r>
       <r>   13.7453    0.0000 </r>
       <r>   14.4486    0.0000 </r>
       <r>   14.8249    0.0000 </r>
       <r>   15.2760    0.0000 </r>
       <r>   15.7713    0.0000 </r>
       <r>   16.0950    0.0000 </r>
       <r>   16.2374    0.0000 </r>
      </set>
      <set comment="kpoint 6">
       <r>  -14.6591    1.0000 </r>
       <r>  -14.6589    1.0000 </r>
       <r>  -14.6416    1.0000 </r>
       <r>  -14.5714    1.0000 </r>
       <r>  -14.5624    1.0000 </r>
       <r>  -14.5541    1.0000 </r>
       <r>  -14.4988    1.0000 </r>
       <r>  -14.4943    1.0000 </r>
       <r>  -14.4932    1.0000 </r>
       <r>  -14.4844    1.0000 </r>
       <r>  -12.0475    1.0000 </r>
       <r>  -10.9538    1.0000 </r>
       <r>  -10.9037    1.0000 </r>
       <r>  -10.7294    1.0000 </r>
       <r>   -4.5381    1.0000 </r>
       <r>   -3.5895    1.0000 </r>
       <r>   -2.1813    1.0000 </r>
       <r>   -1.6668    1.0000 </r>
       <r>   -1.6182    1.0000 </r>
       <r>   -1.0096    1.0000 </r>
       <r>   -0.7625    1.0000 </r>
       <r>   -0.6084    1.0000 </r>
       <r>   -0.5549    1.0000 </r>
       <r>   -0.3885    1.0000 </r>
       <r>   -0.2653    1.0000 </r>
       <r>   -0.0104    1.0000 </r>
       <r>    0.5785    1.0000 </r>
       <r>    0.7204    1.0000 </r>
       <r>    0.7791    1.0000 </r>
       <r>    0.8731    1.0000 </r>
       <r>    1.1366    1.0000 </r>
       <r>    1.5653    1.0000 </r>
       <r>    1.6164    1.0000 </r>
       <r>    1.6900    1.0000 </r>
       <r>    2.4839    1.0000 </r>
       <r>    2.9888    1.0000 </r>
       <r>    6.0167    0.0000 </r>
       <r>    6.5235    0.0000 </r>
       <r>    7.6317    0.0000 </r>
       <r>    8.0222    0.0000 </r>
       <r>    8.6585    0.0000 </r>
       <r>    8.8073    0.0000 </r>
       <r>    8.8720    0.0000 </r>
       <r>    9.5485    0.0000 </r>
       <r>    9.9984    0.0000 </r>
       <r>   10.0147    0.0000 </r>
       <r>   11.2572    0.0000 </r>
       <r>   11.5567    0.0000 </r>
       <r>   12.3739    0.0000 </r>
       <r>   12.3938    0.0000 </r>
       <r>   12.9406    0.0000 </r>
       <r>   13.1347    0.0000 </r>
       <r>   13.2342    0.0000 </r>
       <r>   13.7572    0.0000 </r>
       <r>   13.8041    0.0000 </r>
       <r>   14.1206    0.0000 </r>
       <r>   14.8851    0.0000 </r>
       <r>   15.6313    0.0000 </r>
       <r>   16.1476    0.0000 </r>
       <r>   16.3952    0.0000 </r>
      </set>
      <set comment="kpoint 7">
       <r>  -14.6625    1.0000 </r>
       <r>  -14.6624    1.0000 </r>
       <r>  -14.6088    1.0000 </r>
       <r>  -14.6088    1.0000 </r>
       <r>  -14.5592    1.0000 </r>
       <r>  -14.5592    1.0000 </r>
       <r>  -14.4954    1.0000 </r>
       <r>  -14.4954    1.0000 </r>
       <r>  -14.4884    1.0000 </r>
       <r>  -14.4884    1.0000 </r>
       <r>  -11.3567    1.0000 </r>
       <r>  -11.3563    1.0000 </r>
       <r>  -10.9954    1.0000 </r>
       <r>  -10.9950    1.0000 </r>
       <r>   -4.2209    1.0000 </r>
       <r>   -4.2208    1.0000 </r>
       <r>   -2.3655    1.0000 </r>
       <r>   -2.3655    1.0000 </r>
       <r>   -1.1430    1.0000 </r>
       <r>   -1.1430    1.0000 </r>
       <r>   -0.5441    1.0000 </r>
       <r>   -0.5441    1.0000 </r>
       <r>   -0.3498    1.0000 </r>
       <r>   -0.3498    1.0000 </r>
       <r>   -0.1943    1.0000 </r>
       <r>   -0.1941    1.0000 </r>
       <r>    0.6388    1.0000 </r>
       <r>    0.6390    1.0000 </r>
       <r>    0.9197    1.0000 </r>
       <r>    0.9197    1.0000 </r>
       <r>    1.6756    1.0000 </r>
       <r>    1.6759    1.0000 </r>
       <r>    2.2819    1.0000 </r>
       <r>    2.2824    1.0000 </r>
       <r>    2.6637    1.0000 </r>
       <r>    2.6642    1.0000 </r>
       <r>    5.4986    0.0000 </r>
       <r>    5.4993    0.0000 </r>
       <r>    7.8996    0.0000 </r>
       <r>    7.8997    0.0000 </r>
       <r>    9.1453    0.0000 </r>
       <r>    9.1455    0.0000 </r>
       <r>    9.4604    0.0000 </r>
       <r>    9.4606    0.0000 </r>
       <r>   10.3317    0.0000 </r>
       <r>   10.3318    0.0000 </r>
       <r>   10.9090    0.0000 </r>
       <r>   10.9090    0.0000 </r>
       <r>   11.0891    0.0000 </r>
       <r>   11.0892    0.0000 </r>
       <r>   12.5707    0.0000 </r>
       <r>   12.5707    0.0000 </r>
       <r>   13.4726    0.0000 </r>
       <r>   13.4726    0.0000 </r>
       <r>   15.0941    0.0000 </r>
       <r>   15.0941    0.0000 </r>
       <r>   15.7682    0.0000 </r>
       <r>   15.7682    0.0000 </r>
       <r>   16.7508    0.0000 </r>
       <r>   16.7508    0.0000 </r>
      </set>
      <set comment="kpoint 8">
       <r>  -14.6576    1.0000 </r>
       <r>  -14.6576    1.0000 </r>
       <r>  -14.6375    1.0000 </r>
       <r>  -14.5930    1.0000 </r>
       <r>  -14.5460    1.0000 </r>
       <r>  -14.5460    1.0000 </r>
       <r>  -14.5037    1.0000 </r>
       <r>  -14.4999    1.0000 </r>
       <r>  -14.4884    1.0000 </r>
       <r>  -14.4827    1.0000 </r>
       <r>  -12.0499    1.0000 </r>
       <r>  -11.2237    1.0000 </r>
       <r>  -10.7227    1.0000 </r>
       <r>  -10.7227    1.0000 </r>
       <r>   -4.3488    1.0000 </r>
       <r>   -3.7448    1.0000 </r>
       <r>   -1.8506    1.0000 </r>
       <r>   -1.1602    1.0000 </r>
       <r>   -0.8973    1.0000 </r>
       <r>   -0.8553    1.0000 </r>
       <r>   -0.8553    1.0000 </r>
       <r>   -0.5725    1.0000 </r>
       <r>   -0.5725    1.0000 </r>
       <r>   -0.4859    1.0000 </r>
       <r>   -0.3358    1.0000 </r>
       <r>   -0.3358    1.0000 </r>
       <r>    0.4359    1.0000 </r>
       <r>    0.5822    1.0000 </r>
       <r>    0.6809    1.0000 </r>
       <r>    0.7903    1.0000 </r>
       <r>    1.3364    1.0000 </r>
       <r>    1.5778    1.0000 </r>
       <r>    1.5779    1.0000 </r>
       <r>    1.9712    1.0000 </r>
       <r>    2.4739    1.0000 </r>
       <r>    2.4739    1.0000 </r>
       <r>    6.1176    0.0000 </r>
       <r>    6.2445    0.0000 </r>
       <r>    6.6001    0.0000 </r>
       <r>    6.6002    0.0000 </r>
       <r>    6.8324    0.0000 </r>
       <r>    7.4665    0.0000 </r>
       <r>    8.3347    0.0000 </r>
       <r>    8.7206    0.0000 </r>
       <r>   10.3156    0.0000 </r>
       <r>   10.3158    0.0000 </r>
       <r>   12.4106    0.0000 </r>
       <r>   12.7656    0.0000 </r>
       <r>   12.7657    0.0000 </r>
       <r>   12.9038    0.0000 </r>
       <r>   13.6571    0.0000 </r>
       <r>   14.1579    0.0000 </r>
       <r>   14.7015    0.0000 </r>
       <r>   14.7015    0.0000 </r>
       <r>   15.4811    0.0000 </r>
       <r>   15.6434    0.0000 </r>
       <r>   15.6732    0.0000 </r>
       <r>   16.7023    0.0000 </r>
       <r>   16.8243    0.0000 </r>
       <r>   17.7049    0.0000 </r>
      </set>
      <set comment="kpoint 9">
       <r>  -14.6620    1.0000 </r>
       <r>  -14.6574    1.0000 </r>
       <r>  -14.6232    1.0000 </r>
       <r>  -14.6062    1.0000 </r>
       <r>  -14.5509    1.0000 </r>
       <r>  -14.5452    1.0000 </r>
       <r>  -14.5015    1.0000 </r>
       <r>  -14.5005    1.0000 </r>
       <r>  -14.4862    1.0000 </r>
       <r>  -14.4846    1.0000 </r>
       <r>  -11.6520    1.0000 </r>
       <r>  -11.4584    1.0000 </r>
       <r>  -10.9750    1.0000 </r>
       <r>  -10.7160    1.0000 </r>
       <r>   -4.0581    1.0000 </r>
       <r>   -3.7434    1.0000 </r>
       <r>   -1.7536    1.0000 </r>
       <r>   -1.5721    1.0000 </r>
       <r>   -1.3181    1.0000 </r>
       <r>   -0.8202    1.0000 </r>
       <r>   -0.7462    1.0000 </r>
       <r>   -0.6725    1.0000 </r>
       <r>   -0.4846    1.0000 </r>
       <r>   -0.4592    1.0000 </r>
       <r>   -0.3432    1.0000 </r>
       <r>   -0.1270    1.0000 </r>
       <r>    0.5804    1.0000 </r>
       <r>    0.6528    1.0000 </r>
       <r>    0.7090    1.0000 </r>
       <r>    0.8386    1.0000 </r>
       <r>    1.1544    1.0000 </r>
       <r>    1.4618    1.0000 </r>
       <r>    1.5284    1.0000 </r>
       <r>    1.8501    1.0000 </r>
       <r>    2.1692    1.0000 </r>
       <r>    2.4997    1.0000 </r>
       <r>    6.1381    0.0000 </r>
       <r>    6.5374    0.0000 </r>
       <r>    6.6087    0.0000 </r>
       <r>    7.0993    0.0000 </r>
       <r>    7.9939    0.0000 </r>
       <r>    8.1457    0.0000 </r>
       <r>    8.8714    0.0000 </r>
       <r>    9.1872    0.0000 </r>
       <r>   10.0563    0.0000 </r>
       <r>   10.2883    0.0000 </r>
       <r>   10.8529    0.0000 </r>
       <r>   11.6992    0.0000 </r>
       <r>   12.9549    0.0000 </r>
       <r>   13.2256    0.0000 </r>
       <r>   13.2709    0.0000 </r>
       <r>   13.4284    0.0000 </r>
       <r>   13.5705    0.0000 </r>
       <r>   13.9186    0.0000 </r>
       <r>   14.1967    0.0000 </r>
       <r>   15.6536    0.0000 </r>
       <r>   16.0515    0.0000 </r>
       <r>   16.5318    0.0000 </r>
       <r>   16.9023    0.0000 </r>
       <r>   17.1522    0.0000 </r>
      </set>
      <set comment="kpoint 10">
       <r>  -14.6636    1.0000 </r>
       <r>  -14.6559    1.0000 </r>
       <r>  -14.6350    1.0000 </r>
       <r>  -14.5862    1.0000 </r>
       <r>  -14.5611    1.0000 </r>
       <r>  -14.5474    1.0000 </r>
       <r>  -14.4997    1.0000 </r>
       <r>  -14.4976    1.0000 </r>
       <r>  -14.4891    1.0000 </r>
       <r>  -14.4847    1.0000 </r>
       <r>  -11.7525    1.0000 </r>
       <r>  -11.2610    1.0000 </r>
       <r>  -11.0266    1.0000 </r>
       <r>  -10.7116    1.0000 </r>
       <r>   -4.2378    1.0000 </r>
       <r>   -3.4124    1.0000 </r>
       <r>   -1.9757    1.0000 </r>
       <r>   -1.6142    1.0000 </r>
       <r>   -1.5060    1.0000 </r>
       <r>   -1.1439    1.0000 </r>
       <r>   -1.0451    1.0000 </r>
       <r>   -0.7176    1.0000 </r>
       <r>   -0.6088    1.0000 </r>
       <r>   -0.3991    1.0000 </r>
       <r>   -0.1920    1.0000 </r>
       <r>   -0.0571    1.0000 </r>
       <r>    0.6246    1.0000 </r>
       <r>    0.6840    1.0000 </r>
       <r>    0.7811    1.0000 </r>
       <r>    0.9796    1.0000 </r>
       <r>    1.0760    1.0000 </r>
       <r>    1.2008    1.0000 </r>
       <r>    1.5251    1.0000 </r>
       <r>    1.9040    1.0000 </r>
       <r>    2.1877    1.0000 </r>
       <r>    2.5954    1.0000 </r>
       <r>    6.4265    0.0000 </r>
       <r>    6.9495    0.0000 </r>
       <r>    7.1703    0.0000 </r>
       <r>    8.3530    0.0000 </r>
       <r>    8.9327    0.0000 </r>
       <r>    9.2199    0.0000 </r>
       <r>    9.6315    0.0000 </r>
       <r>    9.9208    0.0000 </r>
       <r>   10.0773    0.0000 </r>
       <r>   10.5133    0.0000 </r>
       <r>   10.8612    0.0000 </r>
       <r>   10.9190    0.0000 </r>
       <r>   11.4166    0.0000 </r>
       <r>   11.5727    0.0000 </r>
       <r>   11.8873    0.0000 </r>
       <r>   12.3511    0.0000 </r>
       <r>   12.5343    0.0000 </r>
       <r>   13.3926    0.0000 </r>
       <r>   13.7526    0.0000 </r>
       <r>   15.2858    0.0000 </r>
       <r>   15.4698    0.0000 </r>
       <r>   16.1315    0.0000 </r>
       <r>   16.8084    0.0000 </r>
       <r>   17.1925    0.0000 </r>
      </set>
      <set comment="kpoint 11">
       <r>  -14.6586    1.0000 </r>
       <r>  -14.6567    1.0000 </r>
       <r>  -14.6438    1.0000 </r>
       <r>  -14.5782    1.0000 </r>
       <r>  -14.5564    1.0000 </r>
       <r>  -14.5484    1.0000 </r>
       <r>  -14.5015    1.0000 </r>
       <r>  -14.4968    1.0000 </r>
       <r>  -14.4910    1.0000 </r>
       <r>  -14.4833    1.0000 </r>
       <r>  -12.0883    1.0000 </r>
       <r>  -10.9836    1.0000 </r>
       <r>  -10.8525    1.0000 </r>
       <r>  -10.7527    1.0000 </r>
       <r>   -4.4431    1.0000 </r>
       <r>   -3.4415    1.0000 </r>
       <r>   -1.9343    1.0000 </r>
       <r>   -1.7209    1.0000 </r>
       <r>   -1.2365    1.0000 </r>
       <r>   -0.9561    1.0000 </r>
       <r>   -0.8676    1.0000 </r>
       <r>   -0.7647    1.0000 </r>
       <r>   -0.5540    1.0000 </r>
       <r>   -0.4516    1.0000 </r>
       <r>   -0.3016    1.0000 </r>
       <r>   -0.1497    1.0000 </r>
       <r>    0.5861    1.0000 </r>
       <r>    0.6604    1.0000 </r>
       <r>    0.7716    1.0000 </r>
       <r>    0.8082    1.0000 </r>
       <r>    1.1314    1.0000 </r>
       <r>    1.2739    1.0000 </r>
       <r>    1.4708    1.0000 </r>
       <r>    1.8913    1.0000 </r>
       <r>    2.4213    1.0000 </r>
       <r>    3.0378    1.0000 </r>
       <r>    5.9773    0.0000 </r>
       <r>    6.6456    0.0000 </r>
       <r>    7.2961    0.0000 </r>
       <r>    7.5035    0.0000 </r>
       <r>    7.6458    0.0000 </r>
       <r>    8.5320    0.0000 </r>
       <r>    9.2741    0.0000 </r>
       <r>    9.4523    0.0000 </r>
       <r>    9.8252    0.0000 </r>
       <r>   10.0972    0.0000 </r>
       <r>   11.0889    0.0000 </r>
       <r>   11.4369    0.0000 </r>
       <r>   12.4968    0.0000 </r>
       <r>   12.8659    0.0000 </r>
       <r>   13.3134    0.0000 </r>
       <r>   13.5120    0.0000 </r>
       <r>   14.0201    0.0000 </r>
       <r>   14.0478    0.0000 </r>
       <r>   14.4556    0.0000 </r>
       <r>   14.6363    0.0000 </r>
       <r>   14.7439    0.0000 </r>
       <r>   15.5041    0.0000 </r>
       <r>   16.0512    0.0000 </r>
       <r>   16.8803    0.0000 </r>
      </set>
      <set comment="kpoint 12">
       <r>  -14.6612    1.0000 </r>
       <r>  -14.6602    1.0000 </r>
       <r>  -14.6221    1.0000 </r>
       <r>  -14.6033    1.0000 </r>
       <r>  -14.5528    1.0000 </r>
       <r>  -14.5509    1.0000 </r>
       <r>  -14.4999    1.0000 </r>
       <r>  -14.4986    1.0000 </r>
       <r>  -14.4872    1.0000 </r>
       <r>  -14.4851    1.0000 </r>
       <r>  -11.6263    1.0000 </r>
       <r>  -11.3141    1.0000 </r>
       <r>  -10.9289    1.0000 </r>
       <r>  -10.9162    1.0000 </r>
       <r>   -4.0682    1.0000 </r>
       <r>   -3.7831    1.0000 </r>
       <r>   -2.1563    1.0000 </r>
       <r>   -1.9074    1.0000 </r>
       <r>   -1.0252    1.0000 </r>
       <r>   -0.8909    1.0000 </r>
       <r>   -0.7155    1.0000 </r>
       <r>   -0.6297    1.0000 </r>
       <r>   -0.5876    1.0000 </r>
       <r>   -0.4497    1.0000 </r>
       <r>   -0.2501    1.0000 </r>
       <r>   -0.2114    1.0000 </r>
       <r>    0.6416    1.0000 </r>
       <r>    0.6452    1.0000 </r>
       <r>    0.8185    1.0000 </r>
       <r>    0.8444    1.0000 </r>
       <r>    1.1823    1.0000 </r>
       <r>    1.3625    1.0000 </r>
       <r>    1.8879    1.0000 </r>
       <r>    1.9726    1.0000 </r>
       <r>    2.3699    1.0000 </r>
       <r>    2.4650    1.0000 </r>
       <r>    5.9958    0.0000 </r>
       <r>    6.3561    0.0000 </r>
       <r>    7.1990    0.0000 </r>
       <r>    7.4302    0.0000 </r>
       <r>    8.2289    0.0000 </r>
       <r>    8.4356    0.0000 </r>
       <r>    9.4887    0.0000 </r>
       <r>    9.5575    0.0000 </r>
       <r>   10.2336    0.0000 </r>
       <r>   10.6605    0.0000 </r>
       <r>   10.7853    0.0000 </r>
       <r>   11.0834    0.0000 </r>
       <r>   11.4219    0.0000 </r>
       <r>   11.5712    0.0000 </r>
       <r>   13.2699    0.0000 </r>
       <r>   13.3911    0.0000 </r>
       <r>   13.8704    0.0000 </r>
       <r>   14.5165    0.0000 </r>
       <r>   14.9099    0.0000 </r>
       <r>   14.9425    0.0000 </r>
       <r>   15.1897    0.0000 </r>
       <r>   15.4556    0.0000 </r>
       <r>   16.3633    0.0000 </r>
       <r>   16.6524    0.0000 </r>
      </set>
      <set comment="kpoint 13">
       <r>  -14.6624    1.0000 </r>
       <r>  -14.6596    1.0000 </r>
       <r>  -14.6285    1.0000 </r>
       <r>  -14.5898    1.0000 </r>
       <r>  -14.5617    1.0000 </r>
       <r>  -14.5531    1.0000 </r>
       <r>  -14.4977    1.0000 </r>
       <r>  -14.4963    1.0000 </r>
       <r>  -14.4894    1.0000 </r>
       <r>  -14.4857    1.0000 </r>
       <r>  -11.6162    1.0000 </r>
       <r>  -11.2914    1.0000 </r>
       <r>  -10.9686    1.0000 </r>
       <r>  -10.8510    1.0000 </r>
       <r>   -4.3123    1.0000 </r>
       <r>   -3.7256    1.0000 </r>
       <r>   -2.4097    1.0000 </r>
       <r>   -2.0734    1.0000 </r>
       <r>   -1.2289    1.0000 </r>
       <r>   -0.9842    1.0000 </r>
       <r>   -0.6684    1.0000 </r>
       <r>   -0.6492    1.0000 </r>
       <r>   -0.4364    1.0000 </r>
       <r>   -0.3941    1.0000 </r>
       <r>   -0.1672    1.0000 </r>
       <r>   -0.1049    1.0000 </r>
       <r>    0.5831    1.0000 </r>
       <r>    0.6690    1.0000 </r>
       <r>    0.7808    1.0000 </r>
       <r>    0.9575    1.0000 </r>
       <r>    1.4890    1.0000 </r>
       <r>    1.5399    1.0000 </r>
       <r>    1.8745    1.0000 </r>
       <r>    1.9830    1.0000 </r>
       <r>    2.3346    1.0000 </r>
       <r>    2.4096    1.0000 </r>
       <r>    6.0287    0.0000 </r>
       <r>    6.4878    0.0000 </r>
       <r>    7.6437    0.0000 </r>
       <r>    8.3461    0.0000 </r>
       <r>    8.6620    0.0000 </r>
       <r>    8.9283    0.0000 </r>
       <r>    9.0582    0.0000 </r>
       <r>    9.4184    0.0000 </r>
       <r>   10.3031    0.0000 </r>
       <r>   10.7004    0.0000 </r>
       <r>   10.9152    0.0000 </r>
       <r>   11.1950    0.0000 </r>
       <r>   11.2321    0.0000 </r>
       <r>   11.5059    0.0000 </r>
       <r>   12.5088    0.0000 </r>
       <r>   12.6884    0.0000 </r>
       <r>   13.5763    0.0000 </r>
       <r>   14.0092    0.0000 </r>
       <r>   14.3899    0.0000 </r>
       <r>   14.5369    0.0000 </r>
       <r>   15.4066    0.0000 </r>
       <r>   15.8652    0.0000 </r>
       <r>   16.0470    0.0000 </r>
       <r>   16.3911    0.0000 </r>
      </set>
      <set comment="kpoint 14">
       <r>  -14.6610    1.0000 </r>
       <r>  -14.6592    1.0000 </r>
       <r>  -14.6299    1.0000 </r>
       <r>  -14.5937    1.0000 </r>
       <r>  -14.5549    1.0000 </r>
       <r>  -14.5511    1.0000 </r>
       <r>  -14.5001    1.0000 </r>
       <r>  -14.4976    1.0000 </r>
       <r>  -14.4886    1.0000 </r>
       <r>  -14.4845    1.0000 </r>
       <r>  -11.7670    1.0000 </r>
       <r>  -11.1683    1.0000 </r>
       <r>  -10.9255    1.0000 </r>
       <r>  -10.8954    1.0000 </r>
       <r>   -4.2166    1.0000 </r>
       <r>   -3.6807    1.0000 </r>
       <r>   -2.2366    1.0000 </r>
       <r>   -1.7734    1.0000 </r>
       <r>   -1.1183    1.0000 </r>
       <r>   -0.9592    1.0000 </r>
       <r>   -0.7958    1.0000 </r>
       <r>   -0.6045    1.0000 </r>
       <r>   -0.5702    1.0000 </r>
       <r>   -0.4054    1.0000 </r>
       <r>   -0.2599    1.0000 </r>
       <r>   -0.1772    1.0000 </r>
       <r>    0.6071    1.0000 </r>
       <r>    0.6592    1.0000 </r>
       <r>    0.8700    1.0000 </r>
       <r>    0.8799    1.0000 </r>
       <r>    1.1225    1.0000 </r>
       <r>    1.3928    1.0000 </r>
       <r>    1.6848    1.0000 </r>
       <r>    1.8808    1.0000 </r>
       <r>    2.5729    1.0000 </r>
       <r>    2.6878    1.0000 </r>
       <r>    5.7700    0.0000 </r>
       <r>    6.3835    0.0000 </r>
       <r>    7.1389    0.0000 </r>
       <r>    7.4656    0.0000 </r>
       <r>    8.3393    0.0000 </r>
       <r>    8.7533    0.0000 </r>
       <r>    9.7017    0.0000 </r>
       <r>    9.7378    0.0000 </r>
       <r>   10.0032    0.0000 </r>
       <r>   10.5885    0.0000 </r>
       <r>   10.8698    0.0000 </r>
       <r>   11.3765    0.0000 </r>
       <r>   11.3911    0.0000 </r>
       <r>   11.6643    0.0000 </r>
       <r>   12.6771    0.0000 </r>
       <r>   12.8253    0.0000 </r>
       <r>   13.8853    0.0000 </r>
       <r>   14.4551    0.0000 </r>
       <r>   14.6920    0.0000 </r>
       <r>   15.0261    0.0000 </r>
       <r>   15.2843    0.0000 </r>
       <r>   15.5136    0.0000 </r>
       <r>   17.0231    0.0000 </r>
       <r>   17.0294    0.0000 </r>
      </set>
      <set comment="kpoint 15">
       <r>  -14.6625    1.0000 </r>
       <r>  -14.6625    1.0000 </r>
       <r>  -14.6088    1.0000 </r>
       <r>  -14.6088    1.0000 </r>
       <r>  -14.5593    1.0000 </r>
       <r>  -14.5593    1.0000 </r>
       <r>  -14.4953    1.0000 </r>
       <r>  -14.4953    1.0000 </r>
       <r>  -14.4884    1.0000 </r>
       <r>  -14.4884    1.0000 </r>
       <r>  -11.3557    1.0000 </r>
       <r>  -11.3555    1.0000 </r>
       <r>  -10.9965    1.0000 </r>
       <r>  -10.9963    1.0000 </r>
       <r>   -4.1895    1.0000 </r>
       <r>   -4.1895    1.0000 </r>
       <r>   -2.5171    1.0000 </r>
       <r>   -2.5170    1.0000 </r>
       <r>   -0.9309    1.0000 </r>
       <r>   -0.9309    1.0000 </r>
       <r>   -0.5593    1.0000 </r>
       <r>   -0.5592    1.0000 </r>
       <r>   -0.4251    1.0000 </r>
       <r>   -0.4251    1.0000 </r>
       <r>   -0.1178    1.0000 </r>
       <r>   -0.1177    1.0000 </r>
       <r>    0.6003    1.0000 </r>
       <r>    0.6004    1.0000 </r>
       <r>    0.9868    1.0000 </r>
       <r>    0.9869    1.0000 </r>
       <r>    1.6263    1.0000 </r>
       <r>    1.6264    1.0000 </r>
       <r>    2.2730    1.0000 </r>
       <r>    2.2730    1.0000 </r>
       <r>    2.5056    1.0000 </r>
       <r>    2.5057    1.0000 </r>
       <r>    5.7902    0.0000 </r>
       <r>    5.7903    0.0000 </r>
       <r>    7.7299    0.0000 </r>
       <r>    7.7300    0.0000 </r>
       <r>    8.9437    0.0000 </r>
       <r>    8.9438    0.0000 </r>
       <r>    9.3775    0.0000 </r>
       <r>    9.3775    0.0000 </r>
       <r>   10.2651    0.0000 </r>
       <r>   10.2653    0.0000 </r>
       <r>   10.7969    0.0000 </r>
       <r>   10.7969    0.0000 </r>
       <r>   11.7318    0.0000 </r>
       <r>   11.7318    0.0000 </r>
       <r>   12.5402    0.0000 </r>
       <r>   12.5402    0.0000 </r>
       <r>   14.0967    0.0000 </r>
       <r>   14.0968    0.0000 </r>
       <r>   14.9342    0.0000 </r>
       <r>   14.9342    0.0000 </r>
       <r>   15.2607    0.0000 </r>
       <r>   15.2608    0.0000 </r>
       <r>   16.1204    0.0000 </r>
       <r>   16.1204    0.0000 </r>
      </set>
      <set comment="kpoint 16">
       <r>  -14.6632    1.0000 </r>
       <r>  -14.6593    1.0000 </r>
       <r>  -14.6269    1.0000 </r>
       <r>  -14.5923    1.0000 </r>
       <r>  -14.5605    1.0000 </r>
       <r>  -14.5532    1.0000 </r>
       <r>  -14.4978    1.0000 </r>
       <r>  -14.4962    1.0000 </r>
       <r>  -14.4894    1.0000 </r>
       <r>  -14.4858    1.0000 </r>
       <r>  -11.6344    1.0000 </r>
       <r>  -11.2163    1.0000 </r>
       <r>  -11.0573    1.0000 </r>
       <r>  -10.8196    1.0000 </r>
       <r>   -4.2861    1.0000 </r>
       <r>   -3.7934    1.0000 </r>
       <r>   -2.2428    1.0000 </r>
       <r>   -2.0262    1.0000 </r>
       <r>   -1.5667    1.0000 </r>
       <r>   -0.8374    1.0000 </r>
       <r>   -0.6625    1.0000 </r>
       <r>   -0.6113    1.0000 </r>
       <r>   -0.4903    1.0000 </r>
       <r>   -0.3498    1.0000 </r>
       <r>   -0.1767    1.0000 </r>
       <r>   -0.1018    1.0000 </r>
       <r>    0.6251    1.0000 </r>
       <r>    0.6599    1.0000 </r>
       <r>    0.7411    1.0000 </r>
       <r>    0.9867    1.0000 </r>
       <r>    1.3581    1.0000 </r>
       <r>    1.5463    1.0000 </r>
       <r>    1.7221    1.0000 </r>
       <r>    2.0689    1.0000 </r>
       <r>    2.3863    1.0000 </r>
       <r>    2.5602    1.0000 </r>
       <r>    6.0956    0.0000 </r>
       <r>    6.2847    0.0000 </r>
       <r>    7.8654    0.0000 </r>
       <r>    8.2538    0.0000 </r>
       <r>    8.5566    0.0000 </r>
       <r>    8.9899    0.0000 </r>
       <r>    9.2102    0.0000 </r>
       <r>    9.7815    0.0000 </r>
       <r>    9.9762    0.0000 </r>
       <r>   10.3977    0.0000 </r>
       <r>   10.5556    0.0000 </r>
       <r>   10.9668    0.0000 </r>
       <r>   11.4129    0.0000 </r>
       <r>   12.0828    0.0000 </r>
       <r>   12.4009    0.0000 </r>
       <r>   12.9607    0.0000 </r>
       <r>   13.2769    0.0000 </r>
       <r>   13.8025    0.0000 </r>
       <r>   14.6558    0.0000 </r>
       <r>   15.0436    0.0000 </r>
       <r>   15.1806    0.0000 </r>
       <r>   15.2521    0.0000 </r>
       <r>   15.8378    0.0000 </r>
       <r>   16.1983    0.0000 </r>
      </set>
      <set comment="kpoint 17">
       <r>  -14.6592    1.0000 </r>
       <r>  -14.6589    1.0000 </r>
       <r>  -14.6412    1.0000 </r>
       <r>  -14.5731    1.0000 </r>
       <r>  -14.5616    1.0000 </r>
       <r>  -14.5537    1.0000 </r>
       <r>  -14.4990    1.0000 </r>
       <r>  -14.4946    1.0000 </r>
       <r>  -14.4927    1.0000 </r>
       <r>  -14.4843    1.0000 </r>
       <r>  -12.0288    1.0000 </r>
       <r>  -10.9618    1.0000 </r>
       <r>  -10.9058    1.0000 </r>
       <r>  -10.7490    1.0000 </r>
       <r>   -4.5157    1.0000 </r>
       <r>   -3.5891    1.0000 </r>
       <r>   -2.2153    1.0000 </r>
       <r>   -1.6643    1.0000 </r>
       <r>   -1.5273    1.0000 </r>
       <r>   -1.0018    1.0000 </r>
       <r>   -0.8558    1.0000 </r>
       <r>   -0.5575    1.0000 </r>
       <r>   -0.5544    1.0000 </r>
       <r>   -0.3922    1.0000 </r>
       <r>   -0.2654    1.0000 </r>
       <r>   -0.0268    1.0000 </r>
       <r>    0.5727    1.0000 </r>
       <r>    0.7370    1.0000 </r>
       <r>    0.7952    1.0000 </r>
       <r>    0.8590    1.0000 </r>
       <r>    1.1446    1.0000 </r>
       <r>    1.4444    1.0000 </r>
       <r>    1.6017    1.0000 </r>
       <r>    1.8074    1.0000 </r>
       <r>    2.5385    1.0000 </r>
       <r>    2.9604    1.0000 </r>
       <r>    5.9335    0.0000 </r>
       <r>    6.5108    0.0000 </r>
       <r>    7.5478    0.0000 </r>
       <r>    7.7977    0.0000 </r>
       <r>    8.7255    0.0000 </r>
       <r>    8.8450    0.0000 </r>
       <r>    9.0768    0.0000 </r>
       <r>    9.7011    0.0000 </r>
       <r>   10.0250    0.0000 </r>
       <r>   10.0738    0.0000 </r>
       <r>   11.2095    0.0000 </r>
       <r>   11.5237    0.0000 </r>
       <r>   12.1243    0.0000 </r>
       <r>   12.2017    0.0000 </r>
       <r>   12.5896    0.0000 </r>
       <r>   13.0193    0.0000 </r>
       <r>   13.3392    0.0000 </r>
       <r>   13.9907    0.0000 </r>
       <r>   14.1286    0.0000 </r>
       <r>   14.4500    0.0000 </r>
       <r>   14.8326    0.0000 </r>
       <r>   15.8029    0.0000 </r>
       <r>   15.8963    0.0000 </r>
       <r>   16.4441    0.0000 </r>
      </set>
     </set>
    </set>
   </array>
  </eigenvalues>
  <separator name="orbital magnetization" >
   <v name="MAGDIPOLOUT">      0.00000000      0.00000000      0.00000000</v>
  </separator>
  <dielectricfunction comment="density-density">
   <imag>
    <array>
     <dimension dim="1">gridpoints</dimension>
     <field>energy</field>
     <field>xx</field>
     <field>yy</field>
     <field>zz</field>
     <field>xy</field>
     <field>yz</field>
     <field>zx</field>
     <set>
      <r>     0.0000     0.0000     0.0000     0.0000     0.0000     0.0000     0.0000 </r>
      <r>     0.0283     0.0000     0.0000     0.0000     0.0000     0.0000     0.0000 </r>
      <r>     0.0567     0.0000     0.0000     0.0000     0.0000     0.0000     0.0000 </r>
      <r>     0.0850     0.0000     0.0000     0.0000     0.0000     0.0000     0.0000 </r>
      <r>     0.1133     0.0000     0.0000     0.0000     0.0000     0.0000     0.0000 </r>
      <r>     0.1417     0.0000     0.0000     0.0000     0.0000     0.0000     0.0000 </r>
      <r>     0.1700     0.0000     0.0000     0.0000     0.0000     0.0000     0.0000 </r>
      <r>     0.1983     0.0000     0.0000     0.0000     0.0000     0.0000     0.0000 </r>
      <r>     0.2267     0.0000     0.0000     0.0000     0.0000     0.0000     0.0000 </r>
      <r>     0.2550     0.0000     0.0000     0.0000     0.0000     0.0000     0.0000 </r>
      <r>     0.2833     0.0000     0.0000     0.0000     0.0000     0.0000     0.0000 </r>
      <r>     0.3116     0.0000     0.0000     0.0000     0.0000     0.0000     0.0000 </r>
      <r>     0.3400     0.0000     0.0000     0.0000     0.0000     0.0000     0.0000 </r>
      <r>     0.3683     0.0000     0.0000     0.0000     0.0000     0.0000     0.0000 </r>
      <r>     0.3966     0.0000     0.0000     0.0000     0.0000     0.0000     0.0000 </r>
      <r>     0.4250     0.0000     0.0000     0.0000     0.0000     0.0000     0.0000 </r>
      <r>     0.4533     0.0000     0.0000     0.0000     0.0000     0.0000     0.0000 </r>
      <r>     0.4816     0.0000     0.0000     0.0000     0.0000     0.0000     0.0000 </r>
      <r>     0.5100     0.0000     0.0000     0.0000     0.0000     0.0000     0.0000 </r>
      <r>     0.5383     0.0000     0.0000     0.0000     0.0000     0.0000     0.0000 </r>
      <r>     0.5666     0.0000     0.0000     0.0000     0.0000     0.0000     0.0000 </r>
      <r>     0.5950     0.0000     0.0000     0.0000     0.0000     0.0000     0.0000 </r>
      <r>     0.6233     0.0000     0.0000     0.0000     0.0000     0.0000     0.0000 </r>
      <r>     0.6516     0.0000     0.0000     0.0000     0.0000     0.0000     0.0000 </r>
      <r>     0.6800     0.0000     0.0000     0.0000     0.0000     0.0000     0.0000 </r>
      <r>     0.7083     0.0000     0.0000     0.0000     0.0000     0.0000     0.0000 </r>
      <r>     0.7366     0.0000     0.0000     0.0000     0.0000     0.0000     0.0000 </r>
      <r>     0.7649     0.0000     0.0000     0.0000     0.0000     0.0000     0.0000 </r>
      <r>     0.7933     0.0000     0.0000     0.0000     0.0000     0.0000     0.0000 </r>
      <r>     0.8216     0.0000     0.0000     0.0000     0.0000     0.0000     0.0000 </r>
      <r>     0.8499     0.0000     0.0000     0.0000     0.0000     0.0000     0.0000 </r>
      <r>     0.8783     0.0000     0.0000     0.0000     0.0000     0.0000     0.0000 </r>
      <r>     0.9066     0.0000     0.0000     0.0000     0.0000     0.0000     0.0000 </r>
      <r>     0.9349     0.0000     0.0000     0.0000     0.0000     0.0000     0.0000 </r>
      <r>     0.9633     0.0000     0.0000     0.0000     0.0000     0.0000     0.0000 </r>
      <r>     0.9916     0.0000     0.0000     0.0000     0.0000     0.0000     0.0000 </r>
      <r>     1.0199     0.0000     0.0000     0.0000     0.0000     0.0000     0.0000 </r>
      <r>     1.0483     0.0000     0.0000     0.0000     0.0000     0.0000     0.0000 </r>
      <r>     1.0766     0.0000     0.0000     0.0000     0.0000     0.0000     0.0000 </r>
      <r>     1.1049     0.0000     0.0000     0.0000     0.0000     0.0000     0.0000 </r>
      <r>     1.1333     0.0000     0.0000     0.0000     0.0000     0.0000     0.0000 </r>
      <r>     1.1616     0.0000     0.0000     0.0000     0.0000     0.0000     0.0000 </r>
      <r>     1.1899     0.0000     0.0000     0.0000     0.0000     0.0000     0.0000 </r>
      <r>     1.2182     0.0000     0.0000     0.0000     0.0000     0.0000     0.0000 </r>
      <r>     1.2466     0.0000     0.0000     0.0000     0.0000     0.0000     0.0000 </r>
      <r>     1.2749     0.0000     0.0000     0.0000     0.0000     0.0000     0.0000 </r>
      <r>     1.3032     0.0000     0.0000     0.0000     0.0000     0.0000     0.0000 </r>
      <r>     1.3316     0.0000     0.0000     0.0000     0.0000     0.0000     0.0000 </r>
      <r>     1.3599     0.0000     0.0000     0.0000     0.0000     0.0000     0.0000 </r>
      <r>     1.3882     0.0002     0.0003     0.0006     0.0001     0.0003     0.0002 </r>
      <r>     1.4166     0.0012     0.0015     0.0036     0.0008     0.0017     0.0014 </r>
      <r>     1.4449     0.0029     0.0037     0.0090     0.0019     0.0042     0.0035 </r>
      <r>     1.4732     0.0057     0.0071     0.0169     0.0035     0.0078     0.0063 </r>
      <r>     1.5016     0.0105     0.0127     0.0277     0.0054     0.0120     0.0098 </r>
      <r>     1.5299     0.0172     0.0204     0.0415     0.0076     0.0168     0.0137 </r>
      <r>     1.5582     0.0260     0.0302     0.0581     0.0100     0.0222     0.0181 </r>
      <r>     1.5866     0.0368     0.0421     0.0777     0.0128     0.0283     0.0231 </r>
      <r>     1.6149     0.0496     0.0562     0.1001     0.0158     0.0350     0.0285 </r>
      <r>     1.6432     0.0645     0.0724     0.1255     0.0191     0.0424     0.0345 </r>
      <r>     1.6715     0.0813     0.0907     0.1538     0.0227     0.0503     0.0410 </r>
      <r>     1.6999     0.1001     0.1111     0.1850     0.0265     0.0589     0.0480 </r>
      <r>     1.7282     0.1210     0.1337     0.2192     0.0307     0.0681     0.0555 </r>
      <r>     1.7565     0.1438     0.1584     0.2562     0.0351     0.0780     0.0635 </r>
      <r>     1.7849     0.1687     0.1852     0.2962     0.0398     0.0884     0.0720 </r>
      <r>     1.8132     0.1955     0.2141     0.3390     0.0448     0.0995     0.0810 </r>
      <r>     1.8415     0.2244     0.2452     0.3848     0.0501     0.1113     0.0906 </r>
      <r>     1.8699     0.2553     0.2784     0.4335     0.0557     0.1236     0.1007 </r>
      <r>     1.8982     0.2882     0.3137     0.4852     0.0615     0.1366     0.1112 </r>
      <r>     1.9265     0.3231     0.3511     0.5397     0.0677     0.1502     0.1223 </r>
      <r>     1.9549     0.3600     0.3907     0.5971     0.0741     0.1645     0.1339 </r>
      <r>     1.9832     0.3989     0.4324     0.6575     0.0808     0.1794     0.1460 </r>
      <r>     2.0115     0.4399     0.4762     0.7208     0.0877     0.1949     0.1587 </r>
      <r>     2.0399     0.4828     0.5221     0.7870     0.0950     0.2110     0.1718 </r>
      <r>     2.0682     0.5277     0.5702     0.8561     0.1026     0.2278     0.1854 </r>
      <r>     2.0965     0.5747     0.6204     0.9281     0.1104     0.2451     0.1996 </r>
      <r>     2.1248     0.6237     0.6727     1.0030     0.1185     0.2632     0.2143 </r>
      <r>     2.1532     0.6746     0.7272     1.0809     0.1269     0.2818     0.2294 </r>
      <r>     2.1815     0.7276     0.7837     1.1616     0.1356     0.3011     0.2451 </r>
      <r>     2.2098     0.7826     0.8424     1.2453     0.1445     0.3210     0.2613 </r>
      <r>     2.2382     0.8396     0.9033     1.3319     0.1538     0.3415     0.2780 </r>
      <r>     2.2665     0.8986     0.9662     1.4214     0.1633     0.3627     0.2953 </r>
[...]
        <r>  0.0001  0.0066  0.0004  0.0067  0.0028  0.0394  0.0007  0.0584  0.0682 </r>
        <r>  0.0001  0.0041  0.0004  0.0092  0.0055  0.0390  0.0007  0.0588  0.0655 </r>
        <r>  0.0008  0.0434  0.0024  0.0484  0.0001  0.0001  0.0001  0.0000  0.0008 </r>
        <r>  0.0006  0.0398  0.0028  0.0459  0.0003  0.0002  0.0001  0.0002  0.0000 </r>
        <r>  0.0008  0.0300  0.0024  0.0618  0.0004  0.0000  0.0001  0.0001  0.0005 </r>
        <r>  0.0006  0.0288  0.0028  0.0569  0.0002  0.0001  0.0001  0.0003  0.0001 </r>
       </set>
       <set comment="band 37">
        <r>  0.1173  0.0011  0.0102  0.0027  0.0001  0.0008  0.0002  0.0011  0.0000 </r>
        <r>  0.1173  0.0023  0.0102  0.0015  0.0001  0.0012  0.0002  0.0007  0.0000 </r>
        <r>  0.0087  0.0027  0.0056  0.0000  0.0033  0.0019  0.0054  0.0005  0.0002 </r>
        <r>  0.0087  0.0001  0.0056  0.0026  0.0034  0.0002  0.0054  0.0022  0.0001 </r>
        <r>  0.0207  0.0125  0.0142  0.0373  0.0007  0.0000  0.0016  0.0019  0.0003 </r>
        <r>  0.0269  0.0287  0.0211  0.0053  0.0001  0.0002  0.0016  0.0021  0.0005 </r>
        <r>  0.0207  0.0424  0.0142  0.0073  0.0010  0.0018  0.0016  0.0001  0.0000 </r>
        <r>  0.0269  0.0061  0.0211  0.0279  0.0003  0.0022  0.0016  0.0001  0.0003 </r>
       </set>
       <set comment="band 38">
        <r>  0.0908  0.0088  0.0085  0.0106  0.0036  0.0004  0.0011  0.0010  0.0002 </r>
        <r>  0.0908  0.0110  0.0085  0.0085  0.0036  0.0008  0.0011  0.0007  0.0002 </r>
        <r>  0.0009  0.0006  0.0060  0.0009  0.0136  0.0038  0.0087  0.0034  0.0008 </r>
        <r>  0.0009  0.0011  0.0060  0.0005  0.0138  0.0037  0.0087  0.0035  0.0005 </r>
        <r>  0.0087  0.0058  0.0259  0.0064  0.0043  0.0015  0.0039  0.0010  0.0005 </r>
        <r>  0.0092  0.0014  0.0046  0.0336  0.0058  0.0010  0.0011  0.0003  0.0012 </r>
        <r>  0.0087  0.0045  0.0259  0.0077  0.0048  0.0005  0.0039  0.0019  0.0000 </r>
        <r>  0.0092  0.0350  0.0046  0.0000  0.0068  0.0001  0.0011  0.0012  0.0002 </r>
       </set>
       <set comment="band 39">
        <r>  0.0173  0.0061  0.0296  0.0169  0.0052  0.0010  0.0048  0.0018  0.0006 </r>
        <r>  0.0173  0.0126  0.0296  0.0104  0.0057  0.0012  0.0048  0.0016  0.0001 </r>
        <r>  0.0288  0.0027  0.0028  0.0034  0.0056  0.0012  0.0016  0.0030  0.0001 </r>
        <r>  0.0288  0.0046  0.0028  0.0015  0.0047  0.0025  0.0016  0.0018  0.0010 </r>
        <r>  0.0144  0.0068  0.0136  0.0092  0.0028  0.0012  0.0031  0.0070  0.0001 </r>
        <r>  0.0067  0.0040  0.0060  0.0080  0.0027  0.0000  0.0047  0.0051  0.0004 </r>
        <r>  0.0144  0.0121  0.0136  0.0039  0.0026  0.0060  0.0031  0.0021  0.0003 </r>
        <r>  0.0067  0.0099  0.0060  0.0020  0.0018  0.0049  0.0047  0.0002  0.0012 </r>
       </set>
       <set comment="band 40">
        <r>  0.0065  0.0403  0.0291  0.0084  0.0007  0.0011  0.0025  0.0028  0.0002 </r>
        <r>  0.0065  0.0132  0.0291  0.0355  0.0008  0.0020  0.0025  0.0018  0.0001 </r>
        <r>  0.0289  0.0009  0.0033  0.0033  0.0015  0.0049  0.0044  0.0004  0.0003 </r>
        <r>  0.0289  0.0030  0.0033  0.0012  0.0014  0.0000  0.0044  0.0052  0.0004 </r>
        <r>  0.0215  0.0024  0.0023  0.0004  0.0001  0.0050  0.0085  0.0024  0.0001 </r>
        <r>  0.0171  0.0016  0.0239  0.0047  0.0007  0.0040  0.0016  0.0011  0.0000 </r>
        <r>  0.0215  0.0006  0.0023  0.0022  0.0001  0.0011  0.0085  0.0063  0.0001 </r>
        <r>  0.0171  0.0055  0.0239  0.0009  0.0006  0.0004  0.0016  0.0047  0.0001 </r>
       </set>
       <set comment="band 41">
        <r>  0.0292  0.0332  0.0034  0.0289  0.0039  0.0032  0.0021  0.0016  0.0000 </r>
        <r>  0.0292  0.0291  0.0034  0.0331  0.0034  0.0015  0.0021  0.0034  0.0005 </r>
        <r>  0.0034  0.0008  0.0022  0.0040  0.0007  0.0007  0.0032  0.0051  0.0008 </r>
        <r>  0.0034  0.0044  0.0022  0.0004  0.0002  0.0051  0.0032  0.0006  0.0014 </r>
        <r>  0.0008  0.0127  0.0126  0.0007  0.0002  0.0076  0.0010  0.0048  0.0042 </r>
        <r>  0.0041  0.0271  0.0038  0.0307  0.0031  0.0026  0.0026  0.0005  0.0037 </r>
        <r>  0.0008  0.0007  0.0126  0.0127  0.0009  0.0047  0.0010  0.0076  0.0036 </r>
        <r>  0.0041  0.0420  0.0038  0.0158  0.0056  0.0010  0.0026  0.0021  0.0012 </r>
       </set>
       <set comment="band 42">
        <r>  0.0116  0.0315  0.0019  0.0376  0.0027  0.0045  0.0023  0.0007  0.0014 </r>
        <r>  0.0116  0.0502  0.0019  0.0189  0.0022  0.0002  0.0023  0.0049  0.0020 </r>
        <r>  0.0266  0.0017  0.0035  0.0020  0.0043  0.0007  0.0028  0.0027  0.0027 </r>
        <r>  0.0266  0.0025  0.0035  0.0012  0.0062  0.0021  0.0028  0.0013  0.0008 </r>
        <r>  0.0090  0.0083  0.0110  0.0140  0.0018  0.0000  0.0005  0.0019  0.0026 </r>
        <r>  0.0043  0.0148  0.0022  0.0093  0.0168  0.0004  0.0043  0.0007  0.0029 </r>
        <r>  0.0090  0.0180  0.0110  0.0043  0.0008  0.0018  0.0005  0.0002  0.0036 </r>
        <r>  0.0043  0.0141  0.0022  0.0099  0.0126  0.0006  0.0043  0.0005  0.0071 </r>
       </set>
       <set comment="band 43">
        <r>  0.0014  0.0202  0.0181  0.0759  0.0019  0.0004  0.0014  0.0026  0.0059 </r>
        <r>  0.0014  0.0647  0.0181  0.0314  0.0004  0.0028  0.0014  0.0001  0.0074 </r>
        <r>  0.0049  0.0075  0.0017  0.0069  0.0012  0.0001  0.0013  0.0017  0.0011 </r>
        <r>  0.0049  0.0051  0.0017  0.0093  0.0004  0.0017  0.0013  0.0002  0.0019 </r>
        <r>  0.0018  0.0018  0.0209  0.0047  0.0020  0.0001  0.0023  0.0045  0.0014 </r>
        <r>  0.0048  0.0014  0.0023  0.0047  0.0033  0.0011  0.0013  0.0087  0.0164 </r>
        <r>  0.0018  0.0048  0.0209  0.0017  0.0009  0.0045  0.0023  0.0000  0.0025 </r>
        <r>  0.0048  0.0052  0.0023  0.0009  0.0003  0.0073  0.0013  0.0025  0.0194 </r>
       </set>
       <set comment="band 44">
        <r>  0.0064  0.0218  0.0717  0.0032  0.0006  0.0007  0.0027  0.0003  0.0020 </r>
        <r>  0.0064  0.0023  0.0717  0.0227  0.0002  0.0002  0.0027  0.0009  0.0025 </r>
        <r>  0.0224  0.0028  0.0073  0.0003  0.0003  0.0016  0.0033  0.0019  0.0018 </r>
        <r>  0.0224  0.0003  0.0073  0.0028  0.0009  0.0025  0.0033  0.0009  0.0012 </r>
        <r>  0.0004  0.0062  0.0374  0.0036  0.0004  0.0040  0.0116  0.0052  0.0015 </r>
        <r>  0.0070  0.0009  0.0133  0.0058  0.0037  0.0000  0.0071  0.0027  0.0037 </r>
        <r>  0.0004  0.0053  0.0374  0.0044  0.0012  0.0060  0.0116  0.0032  0.0008 </r>
        <r>  0.0070  0.0062  0.0133  0.0005  0.0062  0.0025  0.0071  0.0002  0.0012 </r>
       </set>
       <set comment="band 45">
        <r>  0.0013  0.0175  0.0070  0.0071  0.0043  0.0005  0.0007  0.0005  0.0040 </r>
        <r>  0.0013  0.0114  0.0070  0.0132  0.0067  0.0004  0.0007  0.0006  0.0017 </r>
        <r>  0.0228  0.0189  0.0063  0.0151  0.0013  0.0012  0.0008  0.0002  0.0022 </r>
        <r>  0.0228  0.0219  0.0063  0.0121  0.0018  0.0003  0.0008  0.0011  0.0017 </r>
        <r>  0.0035  0.0001  0.0110  0.0048  0.0142  0.0002  0.0018  0.0010  0.0079 </r>
        <r>  0.0008  0.0232  0.0016  0.0101  0.0057  0.0008  0.0049  0.0016  0.0078 </r>
        <r>  0.0035  0.0046  0.0110  0.0003  0.0168  0.0008  0.0018  0.0004  0.0054 </r>
        <r>  0.0008  0.0167  0.0016  0.0166  0.0074  0.0015  0.0049  0.0009  0.0061 </r>
       </set>
       <set comment="band 46">
        <r>  0.0000  0.0126  0.0029  0.0111  0.0012  0.0036  0.0025  0.0037  0.0001 </r>
        <r>  0.0000  0.0067  0.0029  0.0171  0.0012  0.0051  0.0025  0.0022  0.0002 </r>
        <r>  0.0641  0.0161  0.0009  0.0097  0.0025  0.0040  0.0001  0.0007  0.0026 </r>
        <r>  0.0641  0.0052  0.0009  0.0206  0.0024  0.0008  0.0001  0.0039  0.0026 </r>
        <r>  0.0014  0.0159  0.0053  0.0087  0.0109  0.0058  0.0004  0.0019  0.0119 </r>
        <r>  0.0029  0.0102  0.0077  0.0038  0.0029  0.0086  0.0007  0.0053  0.0016 </r>
        <r>  0.0014  0.0112  0.0053  0.0134  0.0063  0.0017  0.0004  0.0060  0.0165 </r>
        <r>  0.0029  0.0061  0.0077  0.0079  0.0028  0.0052  0.0007  0.0087  0.0017 </r>
       </set>
       <set comment="band 47">
        <r>  0.0114  0.0288  0.0058  0.0224  0.0000  0.0002  0.0013  0.0037  0.0042 </r>
        <r>  0.0114  0.0137  0.0058  0.0375  0.0009  0.0038  0.0013  0.0001  0.0033 </r>
        <r>  0.0176  0.0096  0.0153  0.0017  0.0007  0.0012  0.0000  0.0003  0.0014 </r>
        <r>  0.0176  0.0035  0.0153  0.0077  0.0008  0.0005  0.0000  0.0009  0.0013 </r>
        <r>  0.0036  0.0057  0.0102  0.0265  0.0062  0.0027  0.0008  0.0062  0.0015 </r>
        <r>  0.0012  0.0190  0.0131  0.0127  0.0013  0.0056  0.0065  0.0097  0.0002 </r>
        <r>  0.0036  0.0285  0.0102  0.0037  0.0068  0.0077  0.0008  0.0012  0.0009 </r>
        <r>  0.0012  0.0071  0.0131  0.0247  0.0008  0.0122  0.0065  0.0031  0.0007 </r>
       </set>
       <set comment="band 48">
        <r>  0.0033  0.0070  0.0225  0.0029  0.0014  0.0012  0.0012  0.0010  0.0043 </r>
        <r>  0.0033  0.0049  0.0225  0.0051  0.0004  0.0007  0.0012  0.0016  0.0053 </r>
        <r>  0.0145  0.0094  0.0027  0.0263  0.0023  0.0014  0.0020  0.0024  0.0035 </r>
        <r>  0.0145  0.0209  0.0027  0.0148  0.0010  0.0028  0.0020  0.0010  0.0048 </r>
        <r>  0.0001  0.0118  0.0095  0.0035  0.0047  0.0110  0.0038  0.0019  0.0096 </r>
        <r>  0.0030  0.0008  0.0225  0.0134  0.0001  0.0169  0.0011  0.0016  0.0002 </r>
        <r>  0.0001  0.0053  0.0095  0.0100  0.0063  0.0030  0.0038  0.0099  0.0079 </r>
        <r>  0.0030  0.0119  0.0225  0.0023  0.0000  0.0030  0.0011  0.0155  0.0002 </r>
       </set>
       <set comment="band 49">
        <r>  0.0031  0.0064  0.0316  0.0019  0.0052  0.0034  0.0054  0.0059  0.0025 </r>
        <r>  0.0031  0.0033  0.0316  0.0049  0.0022  0.0076  0.0054  0.0017  0.0055 </r>
        <r>  0.0045  0.0151  0.0026  0.0031  0.0029  0.0067  0.0009  0.0026  0.0003 </r>
        <r>  0.0045  0.0055  0.0026  0.0127  0.0022  0.0044  0.0009  0.0049  0.0010 </r>
        <r>  0.0046  0.0036  0.0081  0.0231  0.0060  0.0038  0.0000  0.0113  0.0011 </r>
        <r>  0.0008  0.0126  0.0042  0.0124  0.0054  0.0064  0.0110  0.0010  0.0017 </r>
        <r>  0.0046  0.0209  0.0081  0.0057  0.0063  0.0132  0.0000  0.0019  0.0008 </r>
        <r>  0.0008  0.0081  0.0042  0.0169  0.0036  0.0021  0.0110  0.0052  0.0034 </r>
       </set>
       <set comment="band 50">
        <r>  0.0027  0.0044  0.0135  0.0140  0.0011  0.0104  0.0014  0.0074  0.0032 </r>
        <r>  0.0027  0.0167  0.0135  0.0017  0.0025  0.0110  0.0014  0.0068  0.0019 </r>
        <r>  0.0031  0.0069  0.0147  0.0063  0.0026  0.0034  0.0034  0.0011  0.0020 </r>
        <r>  0.0031  0.0090  0.0147  0.0042  0.0036  0.0019  0.0034  0.0025  0.0009 </r>
        <r>  0.0026  0.0142  0.0048  0.0056  0.0113  0.0040  0.0090  0.0027  0.0008 </r>
        <r>  0.0030  0.0030  0.0100  0.0168  0.0064  0.0038  0.0018  0.0078  0.0028 </r>
        <r>  0.0026  0.0028  0.0048  0.0170  0.0089  0.0039  0.0090  0.0027  0.0033 </r>
        <r>  0.0030  0.0135  0.0100  0.0063  0.0062  0.0098  0.0018  0.0018  0.0030 </r>
       </set>
       <set comment="band 51">
        <r>  0.0059  0.0224  0.0051  0.0103  0.0003  0.0045  0.0017  0.0018  0.0014 </r>
        <r>  0.0059  0.0169  0.0051  0.0158  0.0007  0.0030  0.0017  0.0034  0.0010 </r>
        <r>  0.0195  0.0000  0.0288  0.0014  0.0010  0.0023  0.0062  0.0005  0.0002 </r>
        <r>  0.0195  0.0013  0.0288  0.0001  0.0010  0.0010  0.0062  0.0019  0.0002 </r>
        <r>  0.0027  0.0031  0.0196  0.0067  0.0022  0.0024  0.0103  0.0015  0.0003 </r>
        <r>  0.0095  0.0016  0.0366  0.0005  0.0066  0.0047  0.0088  0.0060  0.0010 </r>
        <r>  0.0027  0.0077  0.0196  0.0020  0.0014  0.0017  0.0103  0.0022  0.0011 </r>
        <r>  0.0095  0.0003  0.0366  0.0018  0.0051  0.0081  0.0088  0.0027  0.0024 </r>
       </set>
       <set comment="band 52">
        <r>  0.0001  0.0234  0.0058  0.0264  0.0013  0.0052  0.0026  0.0029  0.0010 </r>
        <r>  0.0001  0.0169  0.0058  0.0329  0.0019  0.0020  0.0026  0.0062  0.0004 </r>
        <r>  0.0004  0.0133  0.0031  0.0180  0.0003  0.0023  0.0002  0.0062  0.0020 </r>
        <r>  0.0004  0.0123  0.0031  0.0189  0.0008  0.0047  0.0002  0.0038  0.0015 </r>
        <r>  0.0000  0.0237  0.0003  0.0211  0.0029  0.0151  0.0000  0.0013  0.0069 </r>
        <r>  0.0001  0.0070  0.0009  0.0042  0.0004  0.0144  0.0012  0.0110  0.0049 </r>
        <r>  0.0000  0.0125  0.0003  0.0324  0.0003  0.0001  0.0000  0.0163  0.0095 </r>
        <r>  0.0001  0.0023  0.0009  0.0089  0.0016  0.0069  0.0012  0.0185  0.0037 </r>
       </set>
       <set comment="band 53">
        <r>  0.0006  0.0023  0.0033  0.0089  0.0011  0.0074  0.0008  0.0115  0.0160 </r>
        <r>  0.0006  0.0100  0.0033  0.0012  0.0004  0.0076  0.0008  0.0113  0.0167 </r>
        <r>  0.0021  0.0001  0.0013  0.0045  0.0001  0.0025  0.0001  0.0052  0.0141 </r>
        <r>  0.0021  0.0044  0.0013  0.0002  0.0016  0.0039  0.0001  0.0038  0.0126 </r>
        <r>  0.0016  0.0049  0.0018  0.0003  0.0003  0.0071  0.0008  0.0076  0.0157 </r>
        <r>  0.0016  0.0026  0.0003  0.0006  0.0003  0.0039  0.0008  0.0119  0.0228 </r>
        <r>  0.0016  0.0001  0.0018  0.0051  0.0011  0.0048  0.0008  0.0099  0.0149 </r>
        <r>  0.0016  0.0008  0.0003  0.0024  0.0019  0.0089  0.0008  0.0069  0.0213 </r>
       </set>
       <set comment="band 54">
        <r>  0.0010  0.0130  0.0226  0.0034  0.0063  0.0002  0.0093  0.0046  0.0016 </r>
        <r>  0.0010  0.0058  0.0226  0.0105  0.0065  0.0041  0.0093  0.0006  0.0013 </r>
        <r>  0.0032  0.0111  0.0003  0.0061  0.0003  0.0087  0.0004  0.0018  0.0004 </r>
        <r>  0.0032  0.0031  0.0003  0.0141  0.0001  0.0021  0.0004  0.0084  0.0006 </r>
        <r>  0.0021  0.0002  0.0037  0.0018  0.0010  0.0042  0.0013  0.0225  0.0003 </r>
        <r>  0.0038  0.0033  0.0078  0.0128  0.0015  0.0039  0.0100  0.0011  0.0020 </r>
        <r>  0.0021  0.0016  0.0037  0.0004  0.0013  0.0230  0.0013  0.0037  0.0000 </r>
        <r>  0.0038  0.0098  0.0078  0.0063  0.0016  0.0021  0.0100  0.0030  0.0019 </r>
       </set>
       <set comment="band 55">
        <r>  0.0015  0.0242  0.0032  0.0189  0.0015  0.0023  0.0057  0.0005  0.0016 </r>
        <r>  0.0015  0.0276  0.0032  0.0155  0.0026  0.0009  0.0057  0.0019  0.0005 </r>
        <r>  0.0163  0.0066  0.0207  0.0013  0.0026  0.0046  0.0016  0.0020  0.0014 </r>
        <r>  0.0163  0.0026  0.0207  0.0052  0.0012  0.0020  0.0016  0.0047  0.0029 </r>
        <r>  0.0039  0.0326  0.0070  0.0022  0.0019  0.0006  0.0099  0.0039  0.0055 </r>
        <r>  0.0062  0.0325  0.0079  0.0018  0.0008  0.0012  0.0026  0.0020  0.0007 </r>
        <r>  0.0039  0.0057  0.0070  0.0291  0.0048  0.0036  0.0099  0.0010  0.0026 </r>
        <r>  0.0062  0.0060  0.0079  0.0283  0.0011  0.0014  0.0026  0.0017  0.0003 </r>
       </set>
       <set comment="band 56">
        <r>  0.0018  0.0056  0.0425  0.0064  0.0038  0.0002  0.0005  0.0011  0.0020 </r>
        <r>  0.0018  0.0074  0.0425  0.0045  0.0042  0.0010  0.0005  0.0003  0.0017 </r>
        <r>  0.0000  0.0049  0.0037  0.0299  0.0035  0.0006  0.0038  0.0064  0.0017 </r>
        <r>  0.0000  0.0336  0.0037  0.0013  0.0036  0.0060  0.0038  0.0009  0.0016 </r>
        <r>  0.0122  0.0010  0.0079  0.0169  0.0014  0.0094  0.0025  0.0009  0.0023 </r>
        <r>  0.0048  0.0003  0.0036  0.0110  0.0036  0.0045  0.0054  0.0055  0.0012 </r>
        <r>  0.0122  0.0178  0.0079  0.0001  0.0003  0.0004  0.0025  0.0098  0.0034 </r>
        <r>  0.0048  0.0109  0.0036  0.0004  0.0036  0.0048  0.0054  0.0052  0.0012 </r>
       </set>
       <set comment="band 57">
        <r>  0.0092  0.0035  0.0063  0.0034  0.0034  0.0077  0.0057  0.0002  0.0018 </r>
        <r>  0.0092  0.0043  0.0063  0.0026  0.0015  0.0008  0.0057  0.0071  0.0038 </r>
        <r>  0.0099  0.0179  0.0139  0.0085  0.0051  0.0007  0.0079  0.0026  0.0012 </r>
        <r>  0.0099  0.0132  0.0139  0.0132  0.0062  0.0030  0.0079  0.0002  0.0002 </r>
        <r>  0.0037  0.0061  0.0031  0.0004  0.0055  0.0147  0.0076  0.0020  0.0021 </r>
        <r>  0.0034  0.0022  0.0019  0.0014  0.0035  0.0179  0.0010  0.0049  0.0003 </r>
        <r>  0.0037  0.0006  0.0031  0.0059  0.0044  0.0039  0.0076  0.0128  0.0032 </r>
        <r>  0.0034  0.0012  0.0019  0.0024  0.0024  0.0092  0.0010  0.0136  0.0014 </r>
       </set>
       <set comment="band 58">
        <r>  0.0043  0.0156  0.0006  0.0196  0.0004  0.0105  0.0031  0.0028  0.0177 </r>
        <r>  0.0043  0.0125  0.0006  0.0227  0.0048  0.0010  0.0031  0.0123  0.0133 </r>
        <r>  0.0061  0.0050  0.0040  0.0009  0.0001  0.0025  0.0000  0.0005  0.0056 </r>
        <r>  0.0061  0.0006  0.0040  0.0053  0.0004  0.0001  0.0000  0.0029  0.0054 </r>
        <r>  0.0003  0.0005  0.0004  0.0036  0.0025  0.0109  0.0034  0.0005  0.0246 </r>
        <r>  0.0010  0.0010  0.0033  0.0008  0.0006  0.0020  0.0016  0.0158  0.0269 </r>
        <r>  0.0003  0.0029  0.0004  0.0012  0.0117  0.0000  0.0034  0.0114  0.0154 </r>
        <r>  0.0010  0.0007  0.0033  0.0011  0.0051  0.0131  0.0016  0.0047  0.0223 </r>
       </set>
       <set comment="band 59">
        <r>  0.0166  0.0037  0.0010  0.0114  0.0017  0.0010  0.0023  0.0054  0.0029 </r>
        <r>  0.0166  0.0088  0.0010  0.0063  0.0004  0.0060  0.0023  0.0004  0.0041 </r>
        <r>  0.0146  0.0066  0.0216  0.0062  0.0023  0.0004  0.0001  0.0058  0.0022 </r>
        <r>  0.0146  0.0086  0.0216  0.0042  0.0008  0.0060  0.0001  0.0002  0.0036 </r>
        <r>  0.0017  0.0000  0.0014  0.0002  0.0014  0.0038  0.0003  0.0156  0.0015 </r>
        <r>  0.0001  0.0014  0.0031  0.0023  0.0002  0.0110  0.0013  0.0013  0.0201 </r>
        <r>  0.0017  0.0002  0.0014  0.0001  0.0004  0.0148  0.0003  0.0046  0.0026 </r>
        <r>  0.0001  0.0015  0.0031  0.0021  0.0039  0.0031  0.0013  0.0092  0.0164 </r>
       </set>
       <set comment="band 60">
        <r>  0.0099  0.0016  0.0210  0.0014  0.0102  0.0016  0.0086  0.0051  0.0017 </r>
        <r>  0.0100  0.0008  0.0212  0.0022  0.0120  0.0058  0.0087  0.0010  0.0000 </r>
        <r>  0.0043  0.0083  0.0009  0.0007  0.0016  0.0004  0.0010  0.0011  0.0026 </r>
        <r>  0.0043  0.0018  0.0008  0.0072  0.0031  0.0013  0.0011  0.0002  0.0011 </r>
        <r>  0.0025  0.0059  0.0007  0.0076  0.0002  0.0021  0.0070  0.0068  0.0111 </r>
        <r>  0.0008  0.0065  0.0001  0.0064  0.0006  0.0094  0.0006  0.0002  0.0029 </r>
        <r>  0.0025  0.0054  0.0007  0.0080  0.0015  0.0053  0.0071  0.0035  0.0098 </r>
        <r>  0.0008  0.0040  0.0001  0.0091  0.0017  0.0005  0.0005  0.0091  0.0019 </r>
       </set>
      </set>
     </set>
    </set>
   </array>
  </projected>
 </calculation>
 <structure name="finalpos" >
  <crystal>
   <varray name="basis" >
    <v>       5.10874036       0.00000000      -2.30030869 </v>
    <v>      -1.03575852       5.00264257      -2.30030916 </v>
    <v>       0.00000000       0.00000000       6.82313837 </v>
   </varray>
   <i name="volume">    174.38032574 </i>
   <varray name="rec_basis" >
    <v>       0.19574297       0.04052707       0.00000000 </v>
    <v>       0.00000000       0.19989435       0.00000000 </v>
    <v>       0.06599152       0.08105414       0.14656012 </v>
   </varray>
  </crystal>
  <varray name="positions" >
   <v>       0.50000000       0.50000000       0.00000000 </v>
   <v>       0.75000000       0.25000000       0.50000000 </v>
   <v>       0.00000000       0.00000000       0.00000000 </v>
   <v>       0.25000000       0.75000000       0.50000000 </v>
   <v>       0.37121578       0.37500000       0.25000000 </v>
   <v>       0.12500000       0.62878422       0.75000000 </v>
   <v>       0.62500000       0.12121578       0.75000000 </v>
   <v>       0.87878422       0.87500000       0.25000000 </v>
  </varray>
 </structure>
</modeling>
