 vasp.6.4.2 20Jul23 (build Mar 15 2024 16:31:38) complex                        
  
 executed on             LinuxIFC date 2025.03.19  14:26:38
 running  120 mpi-ranks, on    3 nodes
 distrk:  each k-point on  120 cores,    1 groups
 distr:  one band on NCORE=  10 cores,   12 groups


--------------------------------------------------------------------------------------------------------


 INCAR:
   ALGO = Normal
   EDIFF = 1e-05
   ENAUG = 1360
   ENCUT = 680
   GGA = Pe
   HFSCREEN = 0.2
   ISMEAR = -5
   ISPIN = 2
   LAECHG = True
   LASPH = True
   LCHARG = True
   LDAU = False
   LELF = False
   LHFCALC = True
   LMAXMIX = 4
   LMIXTAU = True
   LORBIT = 11
   LREAL = False
   LVTOT = True
   LWAVE = True
   MAGMOM = 2*0.6
   NCORE = 10
   NELM = 200
   NSW = 0
   PREC = Accurate
   PRECFOCK = Fast
   SIGMA = 0.2

 POTCAR:    PAW_PBE In_d 06Sep2000                
 POTCAR:    PAW_PBE P 06Sep2000                   
 WARNING: For LVTOT=.TRUE., VASP.5.x writes the TOTAL local potential to the
     file LOCPOT. If you want only the Hartree contributions, use LVHAR=.TRUE.
     instead. 

 POTCAR:    PAW_PBE In_d 06Sep2000                
   VRHFIN =In: s2p1                                                                                 
   LEXCH  = PE                                                                                      
   EATOM  =  1576.8302 eV,  115.8937 Ry                                                             
                                                                                                    
   TITEL  = PAW_PBE In_d 06Sep2000                                                                  
   LULTRA =        F    use ultrasoft PP ?                                                          
   IUNSCR =        1    unscreen: 0-lin 1-nonlin 2-no                                               
   RPACOR =    2.200    partial core radius                                                         
   POMASS =  114.820; ZVAL   =   13.000    mass and valenz                                          
   RCORE  =    2.500    outmost cutoff radius                                                       
   RWIGS  =    3.170; RWIGS  =    1.677    wigner-seitz radius (au A)                               
   ENMAX  =  239.211; ENMIN  =  179.409 eV                                                          
   ICORE  =        3    local potential                                                             
   LCOR   =        T    correct aug charges                                                         
   LPAW   =        T    paw PP                                                                      
   EAUG   =  449.704                                                                                
   DEXC   =    0.000                                                                                
   RMAX   =    2.552    core radius for proj-oper                                                   
   RAUG   =    1.300    factor for augmentation sphere                                              
   RDEP   =    2.630    radius for radial grids                                                     
   RDEPT  =    2.033    core radius for aug-charge                                                  
                                                                                                    
   Atomic configuration                                                                             
   12 entries                                                                                       
     n  l   j            E        occ.                                                              
     1  0  0.50    -27747.9169   2.0000                                                             
     2  0  0.50     -4154.4438   2.0000                                                             
     2  1  1.50     -3728.4305   6.0000                                                             
     3  0  0.50      -788.3680   2.0000                                                             
     3  1  1.50      -648.9215   6.0000                                                             
     3  2  2.50      -432.5893  10.0000                                                             
     4  0  0.50      -119.6363   2.0000                                                             
     4  1  1.50       -78.1086   6.0000                                                             
     4  2  2.50       -18.6227  10.0000                                                             
     5  0  0.50        -8.2107   2.0000                                                             
     5  1  0.50        -2.5185   1.0000                                                             
     4  3  2.50        -2.7212   0.0000                                                             
   Description                                                                                      
     l       E           TYP  RCUT    TYP  RCUT                                                     
     2    -18.6226981     23  2.500                                                                 
     2     -1.3605826     23  2.500                                                                 
     0     -8.2107305     23  2.500                                                                 
     0     -6.1485975     23  2.500                                                                 
     1     -2.5184867     23  2.500                                                                 
     1      3.2427302     23  2.500                                                                 
     3     -1.3605826      7  2.500                                                                 
  local pseudopotential read in
  partial core-charges read in
  partial kinetic energy density read in
  atomic valenz-charges read in
  non local Contribution for L=           2  read in
    real space projection operators read in
  non local Contribution for L=           2  read in
    real space projection operators read in
  non local Contribution for L=           0  read in
    real space projection operators read in
  non local Contribution for L=           0  read in
    real space projection operators read in
  non local Contribution for L=           1  read in
    real space projection operators read in
  non local Contribution for L=           1  read in
    real space projection operators read in
    PAW grid and wavefunctions read in
 
   number of l-projection  operators is LMAX  =           6
   number of lm-projection operators is LMMAX =          18
 
 POTCAR:    PAW_PBE P 06Sep2000                   
   VRHFIN =P : s2p3                                                                                 
   LEXCH  = PE                                                                                      
   EATOM  =   176.0430 eV,   12.9388 Ry                                                             
                                                                                                    
   TITEL  = PAW_PBE P 06Sep2000                                                                     
   LULTRA =        F    use ultrasoft PP ?                                                          
   IUNSCR =        1    unscreen: 0-lin 1-nonlin 2-no                                               
   RPACOR =    1.500    partial core radius                                                         
   POMASS =   30.974; ZVAL   =    5.000    mass and valenz                                          
   RCORE  =    1.900    outmost cutoff radius                                                       
   RWIGS  =    2.330; RWIGS  =    1.233    wigner-seitz radius (au A)                               
   ENMAX  =  255.040; ENMIN  =  191.280 eV                                                          
   ICORE  =        2    local potential                                                             
   LCOR   =        T    correct aug charges                                                         
   LPAW   =        T    paw PP                                                                      
   EAUG   =  342.924                                                                                
   DEXC   =    0.000                                                                                
   RMAX   =    1.935    core radius for proj-oper                                                   
   RAUG   =    1.300    factor for augmentation sphere                                              
   RDEP   =    1.931    radius for radial grids                                                     
   RDEPT  =    1.794    core radius for aug-charge                                                  
                                                                                                    
   Atomic configuration                                                                             
    6 entries                                                                                       
     n  l   j            E        occ.                                                              
     1  0  0.50     -2084.0982   2.0000                                                             
     2  0  0.50      -173.9859   2.0000                                                             
     2  1  1.50      -124.4865   6.0000                                                             
     3  0  0.50       -13.9692   2.0000                                                             
     3  1  0.50        -5.5067   3.0000                                                             
     3  2  1.50        -5.4423   0.0000                                                             
   Description                                                                                      
     l       E           TYP  RCUT    TYP  RCUT                                                     
     0    -13.9691527     23  1.900                                                                 
     0    -11.7794650     23  1.900                                                                 
     1     -5.5066937     23  1.900                                                                 
     1     -0.2556953     23  1.900                                                                 
     2     -5.4423304     23  1.900                                                                 
  local pseudopotential read in
  partial core-charges read in
  partial kinetic energy density read in
  atomic valenz-charges read in
  non local Contribution for L=           0  read in
    real space projection operators read in
  non local Contribution for L=           0  read in
    real space projection operators read in
  non local Contribution for L=           1  read in
    real space projection operators read in
  non local Contribution for L=           1  read in
    real space projection operators read in
    PAW grid and wavefunctions read in
 
   number of l-projection  operators is LMAX  =           4
   number of lm-projection operators is LMMAX =           8
 
  PAW_PBE In_d 06Sep2000                :
 energy of atom  1       EATOM=-1576.8302
 kinetic energy error for atom=    0.0009 (will be added to EATOM!!)
  PAW_PBE P 06Sep2000                   :
 energy of atom  2       EATOM= -176.0430
 kinetic energy error for atom=    0.0005 (will be added to EATOM!!)
 
 
 POSCAR: In1 P1
  positions in direct lattice
  No initial velocities read in
 exchange correlation table for  LEXCH =        8
   RHO(1)=    0.500       N(1)  =     2000
   RHO(2)=  100.500       N(2)  =     4000
 


--------------------------------------------------------------------------------------------------------


 ion  position               nearest neighbor table
   1  0.000  0.000  0.000-   2 2.56   2 2.56   2 2.56   2 2.56
   2  0.250  0.250  0.250-   1 2.56   1 2.56   1 2.56   1 2.56
 
  LATTYP: Found a face centered cubic cell.
 ALAT       =     5.9039525586
  
  Lattice vectors:
  
 A1 = (   3.6154179970,   0.0000000000,   2.0873625386)
 A2 = (   1.2051389992,   3.4086486374,   2.0873625384)
 A3 = (   0.0000000000,   0.0000000000,   4.1747250700)


Analysis of symmetry for initial positions (statically):
=====================================================================
 Subroutine PRICEL returns:
 Original cell was already a primitive cell.
 

 Routine SETGRP: Setting up the symmetry group for a 
 face centered cubic supercell.


 Subroutine GETGRP returns: Found 24 space group operations
 (whereof 24 operations were pure point group operations)
 out of a pool of 48 trial point group operations.


The static configuration has the point symmetry T_d .


Analysis of symmetry for dynamics (positions and initial velocities):
=====================================================================
 Subroutine PRICEL returns:
 Original cell was already a primitive cell.
 

 Routine SETGRP: Setting up the symmetry group for a 
 face centered cubic supercell.


 Subroutine GETGRP returns: Found 24 space group operations
 (whereof 24 operations were pure point group operations)
 out of a pool of 48 trial point group operations.


The dynamic configuration has the point symmetry T_d .


Analysis of structural, dynamic, and magnetic symmetry:
=====================================================================
 Subroutine PRICEL returns:
 Original cell was already a primitive cell.
 

 Routine SETGRP: Setting up the symmetry group for a 
 face centered cubic supercell.


 Subroutine GETGRP returns: Found 24 space group operations
 (whereof 24 operations were pure point group operations)
 out of a pool of 48 trial point group operations.


The overall configuration has the point symmetry T_d .


 Subroutine INISYM returns: Found 24 space group operations
 (whereof 24 operations are pure point group operations),
 and found     1 'primitive' translations


----------------------------------------------------------------------------------------

                                     Primitive cell                                     

  volume of cell :      51.4480

  direct lattice vectors                    reciprocal lattice vectors
     3.615417997  0.000000000  2.087362539     0.276593191 -0.097790437  0.000000000
     1.205138999  3.408648637  2.087362538     0.000000000  0.293371393  0.000000000
     0.000000000  0.000000000  4.174725070    -0.138296596 -0.097790478  0.239536732

  length of vectors
     4.174725100  4.174724890  4.174725070     0.293371374  0.293371393  0.293371389

  position of ions in fractional coordinates (direct lattice)
     0.000000000  0.000000000  0.000000000
     0.250000000  0.250000000  0.250000000

  ion indices of the primitive-cell ions
   primitive index   ion index
                 1           1
                 2           2

----------------------------------------------------------------------------------------

 
 
 KPOINTS: pymatgen with grid density = 617 / numbe

Automatic generation of k-mesh.
 Grid dimensions read from file:
 generate k-points for:    6    6    6

 Generating k-lattice:

  Cartesian coordinates                     Fractional coordinates (reciprocal lattice)
     0.046098865 -0.016298406  0.000000000     0.166666667 -0.000000000  0.000000000
     0.000000000  0.048895232  0.000000000     0.000000000  0.166666667  0.000000000
    -0.023049433 -0.016298413  0.039922789     0.000000000 -0.000000000  0.166666667

  Length of vectors
     0.048895229  0.048895232  0.048895232

  Shift w.r.t. Gamma in fractional coordinates (k-lattice)
     0.000000000  0.000000000  0.000000000

 TETIRR: Found     35 inequivalent tetrahedra from     1296
 
 Subroutine IBZKPT returns following result:
 ===========================================
 
 Found     16 irreducible k-points:
 
 Following reciprocal coordinates:
            Coordinates               Weight
  0.000000  0.000000  0.000000      1.000000
  0.166667 -0.000000  0.000000      8.000000
  0.333333  0.000000  0.000000      8.000000
  0.500000 -0.000000  0.000000      4.000000
  0.166667  0.166667  0.000000      6.000000
  0.333333  0.166667  0.000000     24.000000
  0.500000  0.166667  0.000000     24.000000
 -0.333333  0.166667  0.000000     24.000000
 -0.166667  0.166667  0.000000     12.000000
  0.333333  0.333333  0.000000      6.000000
  0.500000  0.333333  0.000000     24.000000
 -0.333333  0.333333  0.000000     12.000000
  0.500000  0.500000  0.000000      3.000000
  0.500000  0.333333  0.166667     24.000000
 -0.333333  0.333333  0.166667     24.000000
 -0.333333  0.500000  0.166667     12.000000
 
 Following cartesian coordinates:
            Coordinates               Weight
  0.000000  0.000000  0.000000      1.000000
  0.046099 -0.016298  0.000000      8.000000
  0.092198 -0.032597  0.000000      8.000000
  0.138297 -0.048895  0.000000      4.000000
  0.046099  0.032597  0.000000      6.000000
  0.092198  0.016298  0.000000     24.000000
  0.138297  0.000000  0.000000     24.000000
 -0.092198  0.081492  0.000000     24.000000
 -0.046099  0.065194  0.000000     12.000000
  0.092198  0.065194  0.000000      6.000000
  0.138297  0.048895  0.000000     24.000000
 -0.092198  0.130387  0.000000     12.000000
  0.138297  0.097790  0.000000      3.000000
  0.115247  0.032597  0.039923     24.000000
 -0.115247  0.114089  0.039923     24.000000
 -0.115247  0.162984  0.039923     12.000000
 
 
 Subroutine IBZKPT_HF returns following result:
 ==============================================
 
 Found    216 k-points in 1st BZ
 the following    216 k-points will be used (e.g. in the exchange kernel)
 Following reciprocal coordinates:   # in IRBZ
  0.000000  0.000000  0.000000    0.00462963   1 t-inv F
  0.166667 -0.000000  0.000000    0.00462963   2 t-inv F
  0.333333  0.000000  0.000000    0.00462963   3 t-inv F
  0.500000 -0.000000  0.000000    0.00462963   4 t-inv F
  0.166667  0.166667  0.000000    0.00462963   5 t-inv F
  0.333333  0.166667  0.000000    0.00462963   6 t-inv F
  0.500000  0.166667  0.000000    0.00462963   7 t-inv F
 -0.333333  0.166667  0.000000    0.00462963   8 t-inv F
 -0.166667  0.166667  0.000000    0.00462963   9 t-inv F
  0.333333  0.333333  0.000000    0.00462963  10 t-inv F
  0.500000  0.333333  0.000000    0.00462963  11 t-inv F
 -0.333333  0.333333  0.000000    0.00462963  12 t-inv F
  0.500000  0.500000  0.000000    0.00462963  13 t-inv F
  0.500000  0.333333  0.166667    0.00462963  14 t-inv F
 -0.333333  0.333333  0.166667    0.00462963  15 t-inv F
 -0.333333  0.500000  0.166667    0.00462963  16 t-inv F
  0.000000  0.166667 -0.000000    0.00462963   2 t-inv F
 -0.000000  0.000000  0.166667    0.00462963   2 t-inv F
 -0.166667 -0.166667 -0.166667    0.00462963   2 t-inv F
  0.000000  0.333333  0.000000    0.00462963   3 t-inv F
  0.000000  0.000000  0.333333    0.00462963   3 t-inv F
 -0.333333 -0.333333 -0.333333    0.00462963   3 t-inv F
  0.000000  0.500000 -0.000000    0.00462963   4 t-inv F
 -0.000000  0.000000  0.500000    0.00462963   4 t-inv F
 -0.500000 -0.500000 -0.500000    0.00462963   4 t-inv F
  0.000000  0.166667  0.166667    0.00462963   5 t-inv F
  0.166667  0.000000  0.166667    0.00462963   5 t-inv F
 -0.166667 -0.166667  0.000000    0.00462963   5 t-inv F
 -0.166667  0.000000 -0.166667    0.00462963   5 t-inv F
  0.000000 -0.166667 -0.166667    0.00462963   5 t-inv F
  0.000000  0.333333  0.166667    0.00462963   6 t-inv F
  0.166667  0.000000  0.333333    0.00462963   6 t-inv F
 -0.166667 -0.166667  0.166667    0.00462963   6 t-inv F
 -0.333333 -0.166667 -0.333333    0.00462963   6 t-inv F
  0.166667  0.333333  0.000000    0.00462963   6 t-inv F
  0.166667 -0.166667 -0.166667    0.00462963   6 t-inv F
 -0.333333 -0.333333 -0.166667    0.00462963   6 t-inv F
  0.000000  0.166667  0.333333    0.00462963   6 t-inv F
 -0.166667  0.166667 -0.166667    0.00462963   6 t-inv F
 -0.166667 -0.333333 -0.333333    0.00462963   6 t-inv F
  0.333333  0.000000  0.166667    0.00462963   6 t-inv F
  0.000000  0.500000  0.166667    0.00462963   7 t-inv F
  0.166667  0.000000  0.500000    0.00462963   7 t-inv F
 -0.166667 -0.166667  0.333333    0.00462963   7 t-inv F
 -0.500000 -0.333333 -0.500000    0.00462963   7 t-inv F
  0.166667  0.500000  0.000000    0.00462963   7 t-inv F
  0.333333 -0.166667 -0.166667    0.00462963   7 t-inv F
 -0.500000 -0.500000 -0.333333    0.00462963   7 t-inv F
  0.000000  0.166667  0.500000    0.00462963   7 t-inv F
 -0.166667  0.333333 -0.166667    0.00462963   7 t-inv F
 -0.333333 -0.500000 -0.500000    0.00462963   7 t-inv F
  0.500000  0.000000  0.166667    0.00462963   7 t-inv F
  0.000000 -0.333333  0.166667    0.00462963   8 t-inv F
  0.166667  0.000000 -0.333333    0.00462963   8 t-inv F
 -0.166667 -0.166667 -0.500000    0.00462963   8 t-inv F
  0.333333  0.500000  0.333333    0.00462963   8 t-inv F
  0.166667 -0.333333  0.000000    0.00462963   8 t-inv F
 -0.500000 -0.166667 -0.166667    0.00462963   8 t-inv F
  0.333333  0.333333  0.500000    0.00462963   8 t-inv F
  0.000000  0.166667 -0.333333    0.00462963   8 t-inv F
 -0.166667 -0.500000 -0.166667    0.00462963   8 t-inv F
  0.500000  0.333333  0.333333    0.00462963   8 t-inv F
 -0.333333  0.000000  0.166667    0.00462963   8 t-inv F
  0.000000 -0.166667  0.166667    0.00462963   9 t-inv F
  0.166667  0.000000 -0.166667    0.00462963   9 t-inv F
 -0.166667 -0.166667 -0.333333    0.00462963   9 t-inv F
  0.166667  0.333333  0.166667    0.00462963   9 t-inv F
  0.166667 -0.166667  0.000000    0.00462963   9 t-inv F
 -0.333333 -0.166667 -0.166667    0.00462963   9 t-inv F
  0.166667  0.166667  0.333333    0.00462963   9 t-inv F
  0.000000  0.166667 -0.166667    0.00462963   9 t-inv F
 -0.166667 -0.333333 -0.166667    0.00462963   9 t-inv F
  0.333333  0.166667  0.166667    0.00462963   9 t-inv F
 -0.166667  0.000000  0.166667    0.00462963   9 t-inv F
  0.000000  0.333333  0.333333    0.00462963  10 t-inv F
  0.333333  0.000000  0.333333    0.00462963  10 t-inv F
 -0.333333 -0.333333  0.000000    0.00462963  10 t-inv F
 -0.333333 -0.000000 -0.333333    0.00462963  10 t-inv F
  0.000000 -0.333333 -0.333333    0.00462963  10 t-inv F
  0.000000  0.500000  0.333333    0.00462963  11 t-inv F
  0.333333  0.000000  0.500000    0.00462963  11 t-inv F
 -0.333333 -0.333333  0.166667    0.00462963  11 t-inv F
 -0.500000 -0.166667 -0.500000    0.00462963  11 t-inv F
  0.333333  0.500000  0.000000    0.00462963  11 t-inv F
  0.166667 -0.333333 -0.333333    0.00462963  11 t-inv F
 -0.500000 -0.500000 -0.166667    0.00462963  11 t-inv F
  0.000000  0.333333  0.500000    0.00462963  11 t-inv F
 -0.333333  0.166667 -0.333333    0.00462963  11 t-inv F
 -0.166667 -0.500000 -0.500000    0.00462963  11 t-inv F
  0.500000  0.000000  0.333333    0.00462963  11 t-inv F
  0.000000 -0.333333  0.333333    0.00462963  12 t-inv F
  0.333333  0.000000 -0.333333    0.00462963  12 t-inv F
 -0.333333 -0.333333 -0.666667    0.00462963  12 t-inv F
  0.333333  0.666667  0.333333    0.00462963  12 t-inv F
  0.333333 -0.333333  0.000000    0.00462963  12 t-inv F
 -0.666667 -0.333333 -0.333333    0.00462963  12 t-inv F
  0.333333  0.333333  0.666667    0.00462963  12 t-inv F
  0.000000  0.333333 -0.333333    0.00462963  12 t-inv F
 -0.333333 -0.666667 -0.333333    0.00462963  12 t-inv F
  0.666667  0.333333  0.333333    0.00462963  12 t-inv F
 -0.333333  0.000000  0.333333    0.00462963  12 t-inv F
  0.000000  0.500000  0.500000    0.00462963  13 t-inv F
  0.500000  0.000000  0.500000    0.00462963  13 t-inv F
  0.166667  0.500000  0.333333    0.00462963  14 t-inv F
  0.333333  0.166667  0.500000    0.00462963  14 t-inv F
 -0.333333 -0.166667  0.166667    0.00462963  14 t-inv F
 -0.500000 -0.166667 -0.333333    0.00462963  14 t-inv F
 -0.166667  0.333333  0.166667    0.00462963  14 t-inv F
  0.166667  0.333333 -0.166667    0.00462963  14 t-inv F
  0.166667 -0.166667 -0.333333    0.00462963  14 t-inv F
 -0.333333 -0.166667 -0.500000    0.00462963  14 t-inv F
 -0.333333 -0.500000 -0.166667    0.00462963  14 t-inv F
  0.166667 -0.166667  0.333333    0.00462963  14 t-inv F
  0.166667 -0.333333 -0.166667    0.00462963  14 t-inv F
 -0.166667  0.166667  0.333333    0.00462963  14 t-inv F
 -0.333333  0.166667 -0.166667    0.00462963  14 t-inv F
 -0.500000 -0.333333 -0.166667    0.00462963  14 t-inv F
 -0.166667 -0.333333 -0.500000    0.00462963  14 t-inv F
  0.333333  0.166667 -0.166667    0.00462963  14 t-inv F
 -0.166667  0.166667 -0.333333    0.00462963  14 t-inv F
  0.333333 -0.166667  0.166667    0.00462963  14 t-inv F
 -0.166667 -0.333333  0.166667    0.00462963  14 t-inv F
 -0.166667 -0.500000 -0.333333    0.00462963  14 t-inv F
  0.500000  0.166667  0.333333    0.00462963  14 t-inv F
  0.333333  0.500000  0.166667    0.00462963  14 t-inv F
  0.166667  0.333333  0.500000    0.00462963  14 t-inv F
  0.166667 -0.333333  0.333333    0.00462963  15 t-inv F
  0.333333  0.166667 -0.333333    0.00462963  15 t-inv F
 -0.333333 -0.166667 -0.666667    0.00462963  15 t-inv F
  0.333333  0.666667  0.500000    0.00462963  15 t-inv F
 -0.166667 -0.500000  0.166667    0.00462963  15 t-inv F
  0.166667 -0.500000 -0.166667    0.00462963  15 t-inv F
 -0.666667 -0.166667 -0.333333    0.00462963  15 t-inv F
  0.500000  0.666667  0.333333    0.00462963  15 t-inv F
  0.500000  0.333333  0.666667    0.00462963  15 t-inv F
  0.166667 -0.166667 -0.500000    0.00462963  15 t-inv F
 -0.666667 -0.333333 -0.166667    0.00462963  15 t-inv F
 -0.166667  0.166667 -0.500000    0.00462963  15 t-inv F
 -0.333333 -0.666667 -0.166667    0.00462963  15 t-inv F
  0.333333  0.500000  0.666667    0.00462963  15 t-inv F
  0.666667  0.500000  0.333333    0.00462963  15 t-inv F
 -0.500000  0.166667 -0.166667    0.00462963  15 t-inv F
 -0.166667 -0.666667 -0.333333    0.00462963  15 t-inv F
 -0.500000 -0.166667  0.166667    0.00462963  15 t-inv F
 -0.166667 -0.333333 -0.666667    0.00462963  15 t-inv F
  0.666667  0.333333  0.500000    0.00462963  15 t-inv F
 -0.333333  0.166667  0.333333    0.00462963  15 t-inv F
  0.333333 -0.333333  0.166667    0.00462963  15 t-inv F
  0.166667  0.333333 -0.333333    0.00462963  15 t-inv F
  0.166667 -0.333333  0.500000    0.00462963  16 t-inv F
  0.500000  0.166667 -0.333333    0.00462963  16 t-inv F
 -0.500000 -0.333333 -0.833333    0.00462963  16 t-inv F
  0.333333  0.833333  0.500000    0.00462963  16 t-inv F
 -0.166667 -0.500000  0.333333    0.00462963  16 t-inv F
  0.333333 -0.500000 -0.166667    0.00462963  16 t-inv F
  0.500000  0.833333  0.333333    0.00462963  16 t-inv F
  0.500000  0.333333  0.833333    0.00462963  16 t-inv F
 -0.833333 -0.500000 -0.333333    0.00462963  16 t-inv F
 -0.166667  0.333333 -0.500000    0.00462963  16 t-inv F
 -0.333333 -0.833333 -0.500000    0.00462963  16 t-inv F
 -0.166667  0.000000  0.000000    0.00462963   2 t-inv T
  0.000000 -0.166667  0.000000    0.00462963   2 t-inv T
  0.000000  0.000000 -0.166667    0.00462963   2 t-inv T
  0.166667  0.166667  0.166667    0.00462963   2 t-inv T
 -0.333333 -0.000000  0.000000    0.00462963   3 t-inv T
  0.000000 -0.333333 -0.000000    0.00462963   3 t-inv T
 -0.000000  0.000000 -0.333333    0.00462963   3 t-inv T
  0.333333  0.333333  0.333333    0.00462963   3 t-inv T
 -0.333333 -0.166667  0.000000    0.00462963   6 t-inv T
  0.000000 -0.333333 -0.166667    0.00462963   6 t-inv T
 -0.166667  0.000000 -0.333333    0.00462963   6 t-inv T
  0.166667  0.166667 -0.166667    0.00462963   6 t-inv T
  0.333333  0.166667  0.333333    0.00462963   6 t-inv T
 -0.166667 -0.333333  0.000000    0.00462963   6 t-inv T
 -0.166667  0.166667  0.166667    0.00462963   6 t-inv T
  0.333333  0.333333  0.166667    0.00462963   6 t-inv T
  0.000000 -0.166667 -0.333333    0.00462963   6 t-inv T
  0.166667 -0.166667  0.166667    0.00462963   6 t-inv T
  0.166667  0.333333  0.333333    0.00462963   6 t-inv T
 -0.333333  0.000000 -0.166667    0.00462963   6 t-inv T
 -0.500000 -0.166667  0.000000    0.00462963   7 t-inv T
  0.000000 -0.500000 -0.166667    0.00462963   7 t-inv T
 -0.166667  0.000000 -0.500000    0.00462963   7 t-inv T
  0.166667  0.166667 -0.333333    0.00462963   7 t-inv T
  0.500000  0.333333  0.500000    0.00462963   7 t-inv T
 -0.166667 -0.500000  0.000000    0.00462963   7 t-inv T
 -0.333333  0.166667  0.166667    0.00462963   7 t-inv T
  0.500000  0.500000  0.333333    0.00462963   7 t-inv T
  0.000000 -0.166667 -0.500000    0.00462963   7 t-inv T
  0.166667 -0.333333  0.166667    0.00462963   7 t-inv T
  0.333333  0.500000  0.500000    0.00462963   7 t-inv T
 -0.500000  0.000000 -0.166667    0.00462963   7 t-inv T
  0.333333 -0.166667  0.000000    0.00462963   8 t-inv T
  0.000000  0.333333 -0.166667    0.00462963   8 t-inv T
 -0.166667  0.000000  0.333333    0.00462963   8 t-inv T
  0.166667  0.166667  0.500000    0.00462963   8 t-inv T
 -0.333333 -0.500000 -0.333333    0.00462963   8 t-inv T
 -0.166667  0.333333  0.000000    0.00462963   8 t-inv T
  0.500000  0.166667  0.166667    0.00462963   8 t-inv T
 -0.333333 -0.333333 -0.500000    0.00462963   8 t-inv T
  0.000000 -0.166667  0.333333    0.00462963   8 t-inv T
  0.166667  0.500000  0.166667    0.00462963   8 t-inv T
 -0.500000 -0.333333 -0.333333    0.00462963   8 t-inv T
  0.333333  0.000000 -0.166667    0.00462963   8 t-inv T
 -0.500000 -0.333333  0.000000    0.00462963  11 t-inv T
  0.000000 -0.500000 -0.333333    0.00462963  11 t-inv T
 -0.333333  0.000000 -0.500000    0.00462963  11 t-inv T
  0.333333  0.333333 -0.166667    0.00462963  11 t-inv T
  0.500000  0.166667  0.500000    0.00462963  11 t-inv T
 -0.333333 -0.500000  0.000000    0.00462963  11 t-inv T
 -0.166667  0.333333  0.333333    0.00462963  11 t-inv T
  0.500000  0.500000  0.166667    0.00462963  11 t-inv T
  0.000000 -0.333333 -0.500000    0.00462963  11 t-inv T
  0.333333 -0.166667  0.333333    0.00462963  11 t-inv T
  0.166667  0.500000  0.500000    0.00462963  11 t-inv T
 -0.500000  0.000000 -0.333333    0.00462963  11 t-inv T


--------------------------------------------------------------------------------------------------------




 Dimension of arrays:
   k-points           NKPTS =     16   k-points in BZ     NKDIM =    216   number of bands    NBANDS=     24
   number of dos      NEDOS =    301   number of ions     NIONS =      2
   non local maximal  LDIM  =      6   non local SUM 2l+1 LMDIM =     18
   total plane-waves  NPLWV =  46656
   max r-space proj   IRMAX =      1   max aug-charges    IRDMAX=  39366
   dimension x,y,z NGX =    36 NGY =   36 NGZ =   36
   dimension x,y,z NGXF=    72 NGYF=   72 NGZF=   72
   support grid    NGXF=    72 NGYF=   72 NGZF=   72
   ions per type =               1   1
   NGX,Y,Z   is equivalent  to a cutoff of  14.34, 14.34, 14.34 a.u.
   NGXF,Y,Z  is equivalent  to a cutoff of  28.67, 28.67, 28.67 a.u.

 SYSTEM =  unknown system                          
 POSCAR =  In1 P1                                  

 Startparameter for this run:
   NWRITE =      2    write-flag & timer
   PREC   = accura    normal or accurate (medium, high low for compatibility)
   ISTART =      0    job   : 0-new  1-cont  2-samecut
   ICHARG =      2    charge: 1-file 2-atom 10-const
   ISPIN  =      2    spin polarized calculation?
   LNONCOLLINEAR =      F non collinear calculations
   LSORBIT =      F    spin-orbit coupling
   INIWAV =      1    electr: 0-lowe 1-rand  2-diag
   LASPH  =      T    aspherical Exc in radial PAW
 Electronic Relaxation 1
   ENCUT  =  680.0 eV  49.98 Ry    7.07 a.u.   8.88  8.88  8.88*2*pi/ulx,y,z
   ENINI  =  680.0     initial cutoff
   ENAUG  = 1360.0 eV  augmentation charge cutoff
   NELM   =    200;   NELMIN=  2; NELMDL= -5     # of ELM steps 
   EDIFF  = 0.1E-04   stopping-criterion for ELM
   LREAL  =      F    real-space projection
   NLSPLINE    = F    spline interpolate recip. space projectors
   LCOMPAT=      F    compatible to vasp.4.4
   GGA_COMPAT  = T    GGA compatible to vasp.4.4-vasp.4.6
   LMAXPAW     = -100 max onsite density
   LMAXMIX     =    4 max onsite mixed and CHGCAR
   VOSKOWN=      0    Vosko Wilk Nusair interpolation
   ROPT   =    0.00000   0.00000
 Ionic relaxation
   EDIFFG = 0.1E-03   stopping-criterion for IOM
   NSW    =      0    number of steps for IOM
   NBLOCK =      1;   KBLOCK =      1    inner block; outer block 
   IBRION =     -1    ionic relax: 0-MD 1-quasi-New 2-CG
   NFREE  =      0    steps in history (QN), initial steepest desc. (CG)
   ISIF   =      0    stress and relaxation
   IWAVPR =     10    prediction:  0-non 1-charg 2-wave 3-comb
   ISYM   =      3    0-nonsym 1-usesym 2-fastsym
   LCORR  =      T    Harris-Foulkes like correction to forces

   POTIM  = 0.5000    time-step for ionic-motion
   TEIN   =    0.0    initial temperature
   TEBEG  =    0.0;   TEEND  =   0.0 temperature during run
   SMASS  =  -3.00    Nose mass-parameter (am)
   estimated Nose-frequenzy (Omega)   =  0.10E-29 period in steps = 0.13E+47 mass=  -0.398E-27a.u.
   SCALEE = 1.0000    scale energy and forces
   NPACO  =    256;   APACO  = 10.0  distance and # of slots for P.C.
   PSTRESS=    0.0 pullay stress

  Mass of Ions in am
   POMASS = 114.82 30.97
  Ionic Valenz
   ZVAL   =  13.00  5.00
  Atomic Wigner-Seitz radii
   RWIGS  =  -1.00 -1.00
  virtual crystal weights 
   VCA    =   1.00  1.00
   NELECT =      18.0000    total number of electrons
   NUPDOWN=      -1.0000    fix difference up-down

 DOS related values:
   EMIN   =  10.00;   EMAX   =-10.00  energy-range for DOS
   EFERMI =   0.00;   METHOD = LEGACY      
   ISMEAR =    -5;   SIGMA  =   0.20  broadening in eV -4-tet -1-fermi 0-gaus

 Electronic relaxation 2 (details)
   IALGO  =     38    algorithm
   LDIAG  =      T    sub-space diagonalisation (order eigenvalues)
   LSUBROT=      F    optimize rotation matrix (better conditioning)
   TURBO    =      0    0=normal 1=particle mesh
   IRESTART =      0    0=no restart 2=restart with 2 vectors
   NREBOOT  =      0    no. of reboots
   NMIN     =      0    reboot dimension
   EREF     =   0.00    reference energy to select bands
   IMIX   =      1    mixing-type and parameters
     AMIX     =   0.40;   BMIX     =  1.00
     AMIX_MAG =   1.60;   BMIX_MAG =  1.00
     AMIN     =   0.10
     WC   =   100.;   INIMIX=   1;  MIXPRE=   1;  MAXMIX= -45

 Intra band minimization:
   WEIMIN = 0.0000     energy-eigenvalue tresh-hold
   EBREAK =  0.10E-06  absolut break condition
   DEPER  =   0.30     relativ break condition  

   TIME   =   0.40     timestep for ELM

  volume/ion in A,a.u.               =      25.72       173.59
  Fermi-wavevector in a.u.,A,eV,Ry     =   1.153567  2.179925 18.105499  1.330717
  Thomas-Fermi vector in A             =   2.290210
 
 Write flags
   LWAVE        =      T    write WAVECAR
   LDOWNSAMPLE  =      F    k-point downsampling of WAVECAR
   LCHARG       =      T    write CHGCAR
   LVTOT        =      T    write LOCPOT, total local potential
   LVHAR        =      F    write LOCPOT, Hartree potential only
   LELF         =      F    write electronic localiz. function (ELF)
   LORBIT       =     11    0 simple, 1 ext, 2 COOP (PROOUT), +10 PAW based schemes


 Dipole corrections
   LMONO  =      F    monopole corrections only (constant potential shift)
   LDIPOL =      F    correct potential (dipole corrections)
   IDIPOL =      0    1-x, 2-y, 3-z, 4-all directions 
   EPSILON=  1.0000000 bulk dielectric constant

 Exchange correlation treatment:
   GGA     =    PE    GGA type
   LEXCH   =     8    internal setting for exchange type
   LIBXC   =     F    Libxc                    
   VOSKOWN =     0    Vosko Wilk Nusair interpolation
   EXXOEP  =     0    0=HF, 1=EXX-LHF (local Hartree Fock) 2=EXX OEP
   LHFCALC =     T    Hartree Fock is set to
   LSYMGRAD=     F    symmetrize gradient (conserves proper symmetry)
   PRECFOCK=fast      Normal, Fast or Accurate (Low or Medium for compatibility)
   LRHFCALC=     F    long range Hartree Fock
   LRSCOR  =     F    long range correlation only (use DFT for short range part)
   LTHOMAS =     F    Thomas Fermi screening in HF
   LMODELHF=     F    short range full HF, long range fraction AEXX
   FOCKCORR=     1    mode to apply convergence corrections
   LFOCKACE=     T    use Adeptively-Compressed-Exchange operator
   ENCUT4O =  -1.0   cutoff for four orbital integrals eV
   LMAXFOCK=     4    L truncation for augmentation on plane wave grid
   LMAXFOCKAE=  -1    L truncation for all-electron charge restoration on plane wave grid
   NMAXFOCKAE=   1    number of basis functions for all-electron charge restoration
   LFOCKAEDFT=     F  apply the AE augmentation even for DFT
   NKREDX  =     1    reduce k-point grid by
   NKREDY  =     1    reduce k-point grid by
   NKREDZ  =     1    reduce k-point grid by
   SHIFTRED=     F    shift reduced grid of Gamma
   HFKIDENT=     F    idential grid for each k-point
   ODDONLY =     F    use only odd q-grid points
   EVENONLY=     F    use only even q-grid points
   HFALPHA =   -1.0000 decay constant for conv. correction
   MCALPHA =    0.0000 extent of test-charge in conv. correction in multipole expansion
   AEXX    =    0.2500 exact exchange contribution
   HFSCREEN=    0.2000 screening length (either q_TF or 0.3 A-1)
   HFSCREENC=   0.2000 screening length for correlation (either q_TF or 0.3 A-1)
   HFRCUT  =    0.0000 spherical cutoff for potential kernel
   ALDAX   =    0.7500 LDA exchange part
   AGGAX   =    0.7500 GGA exchange part
   ALDAC   =    1.0000 LDA correlation
   AGGAC   =    1.0000 GGA correlation
   ENCUTFOCK=  -1.0 apply spherical cutoff to Coloumb kernel
   NBANDSGWLOW=     1    first orbital included in HF term
   NBLOCK_FOCK=    64    blocking factor in FOCK_ACC

 Linear response parameters
   LEPSILON=     F    determine dielectric tensor
   LRPA    =     F    only Hartree local field effects (RPA)
   LNABLA  =     F    use nabla operator in PAW spheres
   LVEL    =     F    velocity operator in full k-point grid
   CSHIFT  =0.1000    complex shift for real part using Kramers Kronig
   OMEGAMAX=  -1.0    maximum frequency
   DEG_THRESHOLD= 0.2000000E-02 threshold for treating states as degnerate
   RTIME   =   -0.100 relaxation time in fs
  (WPLASMAI=    0.000 imaginary part of plasma frequency in eV, 0.658/RTIME)
   DFIELD  = 0.0000000 0.0000000 0.0000000 field for delta impulse in time
 
  Optional k-point grid parameters
   LKPOINTS_OPT  =     F    use optional k-point grid
   KPOINTS_OPT_MODE=     1    mode for optional k-point grid
 
 Orbital magnetization related:
   ORBITALMAG=     F  switch on orbital magnetization
   LCHIMAG   =     F  perturbation theory with respect to B field
   DQ        =  0.001000  dq finite difference perturbation B field
   LLRAUG    =     F  two centre corrections for induced B field
   LBONE     =     F  B-component reconstruction in AE one-centre
   LVGVCALC  =     T  calculate vGv susceptibility
   LVGVAPPL  =     F  apply vGv susceptibility instead of pGv for G=0

 Random number generation:
   RANDOM_GENERATOR = DEFAULT
   PCG_SEED         = not used


--------------------------------------------------------------------------------------------------------


 Static calculation
 charge density and potential will be updated during run
 spin polarized calculation
 Variant of blocked Davidson
 Davidson routine will perform the subspace rotation
 perform sub-space diagonalisation
    after iterative eigenvector-optimisation
 Kerker-like  mixing scheme
 using additional bands           15
 reciprocal scheme for non local part
 use partial core corrections
 calculate Harris-corrections to forces 
   (improved forces if not selfconsistent)
 use gradient corrections 
 use of overlap-Matrix (Vanderbilt PP)
 Fermi weights with tetrahedron method with Bloechl corrections


--------------------------------------------------------------------------------------------------------


  energy-cutoff  :      680.00
  volume of cell :       51.45
      direct lattice vectors                 reciprocal lattice vectors
     3.615417997  0.000000000  2.087362539     0.276593191 -0.097790437  0.000000000
     1.205138999  3.408648637  2.087362538     0.000000000  0.293371393  0.000000000
     0.000000000  0.000000000  4.174725070    -0.138296596 -0.097790478  0.239536732

  length of vectors
     4.174725100  4.174724890  4.174725070     0.293371374  0.293371393  0.293371389


 
 k-points in units of 2pi/SCALE and weight: pymatgen with grid density = 617 / numbe
   0.00000000  0.00000000  0.00000000       0.005
   0.04609887 -0.01629841  0.00000000       0.037
   0.09219773 -0.03259681  0.00000000       0.037
   0.13829660 -0.04889522  0.00000000       0.019
   0.04609887  0.03259683  0.00000000       0.028
   0.09219773  0.01629842  0.00000000       0.111
   0.13829660  0.00000001  0.00000000       0.111
  -0.09219773  0.08149204  0.00000000       0.111
  -0.04609887  0.06519364  0.00000000       0.056
   0.09219773  0.06519365  0.00000000       0.028
   0.13829660  0.04889525  0.00000000       0.111
  -0.09219773  0.13038728  0.00000000       0.056
   0.13829660  0.09779048  0.00000000       0.014
   0.11524716  0.03259683  0.03992279       0.111
  -0.11524716  0.11408886  0.03992279       0.111
  -0.11524716  0.16298410  0.03992279       0.056
 
 k-points in reciprocal lattice and weights: pymatgen with grid density = 617 / numbe
   0.00000000  0.00000000  0.00000000       0.005
   0.16666667 -0.00000000  0.00000000       0.037
   0.33333333  0.00000000  0.00000000       0.037
   0.50000000 -0.00000000  0.00000000       0.019
   0.16666667  0.16666667  0.00000000       0.028
   0.33333333  0.16666667  0.00000000       0.111
   0.50000000  0.16666667  0.00000000       0.111
  -0.33333333  0.16666667  0.00000000       0.111
  -0.16666667  0.16666667  0.00000000       0.056
   0.33333333  0.33333333  0.00000000       0.028
   0.50000000  0.33333333  0.00000000       0.111
  -0.33333333  0.33333333  0.00000000       0.056
   0.50000000  0.50000000  0.00000000       0.014
   0.50000000  0.33333333  0.16666667       0.111
  -0.33333333  0.33333333  0.16666667       0.111
  -0.33333333  0.50000000  0.16666667       0.056
 
 position of ions in fractional coordinates (direct lattice) 
   0.00000000  0.00000000  0.00000000
   0.25000000  0.25000000  0.25000000
 
 position of ions in cartesian coordinates  (Angst):
   0.00000000  0.00000000  0.00000000
   1.20513925  0.85216216  2.08736254
 


--------------------------------------------------------------------------------------------------------


 k-point   1 :   0.0000 0.0000 0.0000  plane waves:    2085
 k-point   2 :   0.1667-0.0000 0.0000  plane waves:    2070
 k-point   3 :   0.3333 0.0000 0.0000  plane waves:    2054
 k-point   4 :   0.5000-0.0000 0.0000  plane waves:    2060
 k-point   5 :   0.1667 0.1667 0.0000  plane waves:    2061
 k-point   6 :   0.3333 0.1667 0.0000  plane waves:    2059
 k-point   7 :   0.5000 0.1667 0.0000  plane waves:    2070
 k-point   8 :  -0.3333 0.1667 0.0000  plane waves:    2071
 k-point   9 :  -0.1667 0.1667 0.0000  plane waves:    2071
 k-point  10 :   0.3333 0.3333 0.0000  plane waves:    2064
 k-point  11 :   0.5000 0.3333 0.0000  plane waves:    2074
 k-point  12 :  -0.3333 0.3333 0.0000  plane waves:    2079
 k-point  13 :   0.5000 0.5000 0.0000  plane waves:    2068
 k-point  14 :   0.5000 0.3333 0.1667  plane waves:    2071
 k-point  15 :  -0.3333 0.3333 0.1667  plane waves:    2072
 k-point  16 :  -0.3333 0.5000 0.1667  plane waves:    2090

 maximum and minimum number of plane-waves per node :       228      196

 maximum number of plane-waves:      2090
 maximum index in each direction: 
   IXMAX=    9   IYMAX=    8   IZMAX=    8
   IXMIN=   -9   IYMIN=   -9   IZMIN=   -9


 parallel 3D FFT for wavefunctions:
    minimum data exchange during FFTs selected (reduces bandwidth)
 parallel 3D FFT for charge:
    minimum data exchange during FFTs selected (reduces bandwidth)


 FFT grid for exact exchange (Hartree Fock) 
  NGX = 20; NGY = 20; NGZ = 20

 
 Radii for the augmentation spheres in the non-local exchange
 for species   1 augmentation radius   1.454 (default was   1.077)
       energy cutoff for augmentation   2720.0
 for species   2 augmentation radius   1.294 (default was   0.959)
       energy cutoff for augmentation   2720.0

 real space projection operators:
  total allocation   :        488.45 KBytes
  max/ min on nodes  :         54.30         43.98

 Maximum index for augmentation-charges in exchange          169
  SETUP_FOCK is finished

 total amount of memory used by VASP MPI-rank0    32908. kBytes
=======================================================================

   base      :      30000. kBytes
   nonl-proj :       1169. kBytes
   fftplans  :        396. kBytes
   grid      :        843. kBytes
   one-center:         31. kBytes
   HF        :         64. kBytes
   nonlr-proj:        123. kBytes
   wavefun   :        282. kBytes
 
     INWAV:  cpu time      0.0001: real time      0.0005
 initial charge density was supplied:
 charge density of overlapping atoms calculated
 number of electron      18.0000000 magnetization       1.2000000
 keeping initial charge density in first step


--------------------------------------------------------------------------------------------------------


 Maximum index for augmentation-charges         1261 (set IRDMAX)


--------------------------------------------------------------------------------------------------------


 First call to EWALD:  gamma=   0.477
 Maximum number of real-space cells 3x 3x 3
 Maximum number of reciprocal cells 3x 3x 3

    FEWALD:  cpu time      0.0017: real time      0.0017


--------------------------------------- Ionic step        1  -------------------------------------------




--------------------------------------- Iteration      1(   1)  ---------------------------------------


    POTLOK:  cpu time      0.0230: real time      0.0254
    SETDIJ:  cpu time      0.4131: real time      0.4145
     EDDAV:  cpu time      0.2655: real time      0.2707
 BZINTS: Fermi energy:   11.266017;   18.000000 electrons
         Band energy:-0.169842E+01;  BLOECHL correction:   -0.052325
       DOS:  cpu time      0.0052: real time      0.0059
    --------------------------------------------
      LOOP:  cpu time      0.7068: real time      0.7165

 eigenvalue-minimisations  :  1536
 total energy-change (2. order) :-0.1039347E+04  (-0.9205363E+03)
 number of electron      18.0000000 magnetization       1.2000000
 augmentation part       18.0000000 magnetization       1.2000000

 Free energy of the ion-electron system (eV)
  ---------------------------------------------------
  alpha Z        PSCENC =        31.71721604
  Ewald energy   TEWEN  =     -1211.83925518
  -Hartree energ DENC   =      -558.38470678
  -exchange      EXHF   =         0.00000000
  -V(xc)+E(xc)   XCENC  =        45.06902050
  PAW double counting   =      1520.64510051    -2615.50197305
  entropy T*S    EENTRO =         0.00000000
  eigenvalues    EBANDS =        -1.69841570
  atomic energy  EATOM  =      1750.64560241
  Solvation  Ediel_sol  =         0.00000000
  ---------------------------------------------------
  free energy    TOTEN  =     -1039.34741125 eV

  energy without entropy =    -1039.34741125  energy(sigma->0) =    -1039.34741125
  exchange ACFDT corr.  =         0.00000000  see jH, gK, PRB 81, 115126


--------------------------------------------------------------------------------------------------------




--------------------------------------- Iteration      1(   2)  ---------------------------------------


     EDDAV:  cpu time      0.2588: real time      0.2688
 BZINTS: Fermi energy:    4.501516;   18.000000 electrons
         Band energy:-0.119977E+03;  BLOECHL correction:   -0.000005
       DOS:  cpu time      0.0021: real time      0.0021
    --------------------------------------------
      LOOP:  cpu time      0.2608: real time      0.2708

 eigenvalue-minimisations  :  1836
 total energy-change (2. order) :-0.1182791E+03  (-0.1124169E+03)
 number of electron      18.0000000 magnetization       1.2000000
 augmentation part       18.0000000 magnetization       1.2000000

 Free energy of the ion-electron system (eV)
  ---------------------------------------------------
  alpha Z        PSCENC =        31.71721604
  Ewald energy   TEWEN  =     -1211.83925518
  -Hartree energ DENC   =      -558.38470678
  -exchange      EXHF   =         0.00000000
  -V(xc)+E(xc)   XCENC  =        45.06902050
  PAW double counting   =      1520.64510051    -2615.50197305
  entropy T*S    EENTRO =         0.00000000
  eigenvalues    EBANDS =      -119.97746697
  atomic energy  EATOM  =      1750.64560241
  Solvation  Ediel_sol  =         0.00000000
  ---------------------------------------------------
  free energy    TOTEN  =     -1157.62646251 eV

  energy without entropy =    -1157.62646251  energy(sigma->0) =    -1157.62646251
  exchange ACFDT corr.  =         0.00000000  see jH, gK, PRB 81, 115126


--------------------------------------------------------------------------------------------------------




--------------------------------------- Iteration      1(   3)  ---------------------------------------


     EDDAV:  cpu time      0.2491: real time      0.2635
 BZINTS: Fermi energy:    3.864832;   18.000000 electrons
         Band energy:-0.129716E+03;  BLOECHL correction:    0.000000
       DOS:  cpu time      0.0011: real time      0.0011
    --------------------------------------------
      LOOP:  cpu time      0.2503: real time      0.2646

 eigenvalue-minimisations  :  1992
 total energy-change (2. order) :-0.9738059E+01  (-0.9703458E+01)
 number of electron      18.0000000 magnetization       1.2000000
 augmentation part       18.0000000 magnetization       1.2000000

 Free energy of the ion-electron system (eV)
  ---------------------------------------------------
  alpha Z        PSCENC =        31.71721604
  Ewald energy   TEWEN  =     -1211.83925518
  -Hartree energ DENC   =      -558.38470678
  -exchange      EXHF   =         0.00000000
  -V(xc)+E(xc)   XCENC  =        45.06902050
  PAW double counting   =      1520.64510051    -2615.50197305
  entropy T*S    EENTRO =         0.00000000
  eigenvalues    EBANDS =      -129.71552621
  atomic energy  EATOM  =      1750.64560241
  Solvation  Ediel_sol  =         0.00000000
  ---------------------------------------------------
  free energy    TOTEN  =     -1167.36452176 eV

  energy without entropy =    -1167.36452176  energy(sigma->0) =    -1167.36452176
  exchange ACFDT corr.  =         0.00000000  see jH, gK, PRB 81, 115126


--------------------------------------------------------------------------------------------------------




--------------------------------------- Iteration      1(   4)  ---------------------------------------


     EDDAV:  cpu time      0.2349: real time      0.2492
 BZINTS: Fermi energy:    3.864291;   18.000000 electrons
         Band energy:-0.129909E+03;  BLOECHL correction:    0.000000
       DOS:  cpu time      0.0012: real time      0.0012
    --------------------------------------------
      LOOP:  cpu time      0.2361: real time      0.2504

 eigenvalue-minimisations  :  1848
 total energy-change (2. order) :-0.1937100E+00  (-0.1936819E+00)
 number of electron      18.0000000 magnetization       1.2000000
 augmentation part       18.0000000 magnetization       1.2000000

 Free energy of the ion-electron system (eV)
  ---------------------------------------------------
  alpha Z        PSCENC =        31.71721604
  Ewald energy   TEWEN  =     -1211.83925518
  -Hartree energ DENC   =      -558.38470678
  -exchange      EXHF   =         0.00000000
  -V(xc)+E(xc)   XCENC  =        45.06902050
  PAW double counting   =      1520.64510051    -2615.50197305
  entropy T*S    EENTRO =         0.00000000
  eigenvalues    EBANDS =      -129.90923625
  atomic energy  EATOM  =      1750.64560241
  Solvation  Ediel_sol  =         0.00000000
  ---------------------------------------------------
  free energy    TOTEN  =     -1167.55823179 eV

  energy without entropy =    -1167.55823179  energy(sigma->0) =    -1167.55823179
  exchange ACFDT corr.  =         0.00000000  see jH, gK, PRB 81, 115126


--------------------------------------------------------------------------------------------------------




--------------------------------------- Iteration      1(   5)  ---------------------------------------


    POTLOK:  cpu time      0.0195: real time      0.0342
    SETDIJ:  cpu time      0.9451: real time      0.9476
     EDDAV:  cpu time     15.2997: real time     15.3387
 BZINTS: Fermi energy:    3.789127;   18.000000 electrons
         Band energy:-0.116345E+03;  BLOECHL correction:    0.000000
       DOS:  cpu time      0.0013: real time      0.0015
    CHARGE:  cpu time      0.0434: real time      0.0440
    MIXING:  cpu time      0.0007: real time      0.0007
    --------------------------------------------
      LOOP:  cpu time     16.3097: real time     16.3667

 eigenvalue-minimisations  :  1968
 total energy-change (2. order) : 0.1157177E+04  (-0.6824504E+00)
 number of electron      17.9999999 magnetization      -0.7200000
 augmentation part        6.5790556 magnetization      -0.7124600

 Free energy of the ion-electron system (eV)
  ---------------------------------------------------
  alpha Z        PSCENC =        31.71721604
  Ewald energy   TEWEN  =     -1211.83925518
  -Hartree energ DENC   =      -558.38470678
  -exchange      EXHF   =        39.54263046
  -V(xc)+E(xc)   XCENC  =        33.88374128
  PAW double counting   =      1531.11564854    -1510.71664186
  entropy T*S    EENTRO =         0.00000000
  eigenvalues    EBANDS =      -116.34537236
  atomic energy  EATOM  =      1750.64560241
  Solvation  Ediel_sol  =         0.00000000
  ---------------------------------------------------
  free energy    TOTEN  =       -10.38113744 eV

  energy without entropy =      -10.38113744  energy(sigma->0) =      -10.38113744
  exchange ACFDT corr.  =         0.00000000  see jH, gK, PRB 81, 115126


--------------------------------------------------------------------------------------------------------




--------------------------------------- Iteration      1(   6)  ---------------------------------------


    POTLOK:  cpu time      0.0189: real time      0.0325
    SETDIJ:  cpu time      0.9427: real time      0.9450
     EDDAV:  cpu time     14.8761: real time     14.9135
 BZINTS: Fermi energy:    4.224479;   18.000000 electrons
         Band energy:-0.116957E+03;  BLOECHL correction:    0.000000
       DOS:  cpu time      0.0012: real time      0.0013
    CHARGE:  cpu time      0.0397: real time      0.0398
    MIXING:  cpu time      0.0001: real time      0.0001
    --------------------------------------------
      LOOP:  cpu time     15.8787: real time     15.9322

 eigenvalue-minimisations  :  2256
 total energy-change (2. order) : 0.3979601E+00  (-0.8656585E-01)
 number of electron      17.9999998 magnetization       0.4320000
 augmentation part        6.5844317 magnetization       0.4283486

 Free energy of the ion-electron system (eV)
  ---------------------------------------------------
  alpha Z        PSCENC =        31.71721604
  Ewald energy   TEWEN  =     -1211.83925518
  -Hartree energ DENC   =      -557.54653079
  -exchange      EXHF   =        38.83877094
  -V(xc)+E(xc)   XCENC  =        34.00761968
  PAW double counting   =      2087.15229358    -2066.00180634
  entropy T*S    EENTRO =         0.00000000
  eigenvalues    EBANDS =      -116.95708769
  atomic energy  EATOM  =      1750.64560241
  Solvation  Ediel_sol  =         0.00000000
  ---------------------------------------------------
  free energy    TOTEN  =        -9.98317735 eV

  energy without entropy =       -9.98317735  energy(sigma->0) =       -9.98317735
  exchange ACFDT corr.  =         0.00000000  see jH, gK, PRB 81, 115126


--------------------------------------------------------------------------------------------------------




--------------------------------------- Iteration      1(   7)  ---------------------------------------


    POTLOK:  cpu time      0.0187: real time      0.0325
    SETDIJ:  cpu time      0.9404: real time      0.9427
     EDDAV:  cpu time     15.3835: real time     15.4225
 BZINTS: Fermi energy:    4.484479;   18.000000 electrons
         Band energy:-0.117215E+03;  BLOECHL correction:    0.000000
       DOS:  cpu time      0.0012: real time      0.0014
    CHARGE:  cpu time      0.0520: real time      0.0522
    MIXING:  cpu time      0.0002: real time      0.0002
    --------------------------------------------
      LOOP:  cpu time     16.3960: real time     16.4515

 eigenvalue-minimisations  :  2016
 total energy-change (2. order) :-0.1536858E-01  (-0.3175767E-01)
 number of electron      17.9999998 magnetization      -0.2592000
 augmentation part        6.5922159 magnetization      -0.2573885

 Free energy of the ion-electron system (eV)
  ---------------------------------------------------
  alpha Z        PSCENC =        31.71721604
  Ewald energy   TEWEN  =     -1211.83925518
  -Hartree energ DENC   =      -557.05676176
  -exchange      EXHF   =        38.54760033
  -V(xc)+E(xc)   XCENC  =        34.04736010
  PAW double counting   =      2633.48769783    -2612.33306352
  entropy T*S    EENTRO =         0.00000000
  eigenvalues    EBANDS =      -117.21494218
  atomic energy  EATOM  =      1750.64560241
  Solvation  Ediel_sol  =         0.00000000
  ---------------------------------------------------
  free energy    TOTEN  =        -9.99854593 eV

  energy without entropy =       -9.99854593  energy(sigma->0) =       -9.99854593
  exchange ACFDT corr.  =         0.00000000  see jH, gK, PRB 81, 115126


--------------------------------------------------------------------------------------------------------




--------------------------------------- Iteration      1(   8)  ---------------------------------------


    POTLOK:  cpu time      0.0248: real time      0.0387
    SETDIJ:  cpu time      0.9317: real time      0.9340
     EDDAV:  cpu time     15.4162: real time     15.4549
 BZINTS: Fermi energy:    4.636114;   18.000000 electrons
         Band energy:-0.116831E+03;  BLOECHL correction:    0.000000
       DOS:  cpu time      0.0013: real time      0.0013
    CHARGE:  cpu time      0.0409: real time      0.0410
    MIXING:  cpu time      0.0001: real time      0.0001
    --------------------------------------------
      LOOP:  cpu time     16.4149: real time     16.4699

 eigenvalue-minimisations  :  1836
 total energy-change (2. order) :-0.1438963E-01  (-0.4198981E-02)
 number of electron      17.9999998 magnetization       0.1555200
 augmentation part        6.5902751 magnetization       0.1551378

 Free energy of the ion-electron system (eV)
  ---------------------------------------------------
  alpha Z        PSCENC =        31.71721604
  Ewald energy   TEWEN  =     -1211.83925518
  -Hartree energ DENC   =      -557.07675626
  -exchange      EXHF   =        38.42271189
  -V(xc)+E(xc)   XCENC  =        34.06141896
  PAW double counting   =      3054.37140970    -3033.48418754
  entropy T*S    EENTRO =         0.00000000
  eigenvalues    EBANDS =      -116.83109558
  atomic energy  EATOM  =      1750.64560241
  Solvation  Ediel_sol  =         0.00000000
  ---------------------------------------------------
  free energy    TOTEN  =       -10.01293556 eV

  energy without entropy =      -10.01293556  energy(sigma->0) =      -10.01293556
  exchange ACFDT corr.  =         0.00000000  see jH, gK, PRB 81, 115126


--------------------------------------------------------------------------------------------------------




--------------------------------------- Iteration      1(   9)  ---------------------------------------


    POTLOK:  cpu time      0.0185: real time      0.0321
    SETDIJ:  cpu time      0.9336: real time      0.9360
     EDDAV:  cpu time     15.4514: real time     15.4903
 BZINTS: Fermi energy:    4.646118;   18.000000 electrons
         Band energy:-0.116547E+03;  BLOECHL correction:    0.000000
       DOS:  cpu time      0.0013: real time      0.0014
    CHARGE:  cpu time      0.0396: real time      0.0397
    MIXING:  cpu time      0.0001: real time      0.0001
    --------------------------------------------
      LOOP:  cpu time     16.4445: real time     16.4996

 eigenvalue-minimisations  :  1812
 total energy-change (2. order) :-0.1333527E-02  (-0.6764986E-03)
 number of electron      17.9999998 magnetization      -0.0933120
 augmentation part        6.5885741 magnetization      -0.0929918

 Free energy of the ion-electron system (eV)
  ---------------------------------------------------
  alpha Z        PSCENC =        31.71721604
  Ewald energy   TEWEN  =     -1211.83925518
  -Hartree energ DENC   =      -557.11577381
  -exchange      EXHF   =        38.38991837
  -V(xc)+E(xc)   XCENC  =        34.06796531
  PAW double counting   =      3315.70901550    -3295.04231251
  entropy T*S    EENTRO =         0.00000000
  eigenvalues    EBANDS =      -116.54664523
  atomic energy  EATOM  =      1750.64560241
  Solvation  Ediel_sol  =         0.00000000
  ---------------------------------------------------
  free energy    TOTEN  =       -10.01426908 eV

  energy without entropy =      -10.01426908  energy(sigma->0) =      -10.01426908
  exchange ACFDT corr.  =         0.00000000  see jH, gK, PRB 81, 115126


--------------------------------------------------------------------------------------------------------




--------------------------------------- Iteration      1(  10)  ---------------------------------------


    POTLOK:  cpu time      0.0311: real time      0.0320
    SETDIJ:  cpu time      0.9351: real time      0.9375
     EDDAV:  cpu time     15.3535: real time     15.3920
 BZINTS: Fermi energy:    4.650172;   18.000000 electrons
         Band energy:-0.116440E+03;  BLOECHL correction:    0.000000
       DOS:  cpu time      0.0013: real time      0.0013
    CHARGE:  cpu time      0.0396: real time      0.0396
    MIXING:  cpu time      0.0001: real time      0.0001
    --------------------------------------------
      LOOP:  cpu time     16.3607: real time     16.4025

 eigenvalue-minimisations  :  1836
 total energy-change (2. order) :-0.7929316E-03  (-0.2863417E-03)
 number of electron      17.9999998 magnetization       0.0559872
 augmentation part        6.5878591 magnetization       0.0558826

 Free energy of the ion-electron system (eV)
  ---------------------------------------------------
  alpha Z        PSCENC =        31.71721604
  Ewald energy   TEWEN  =     -1211.83925518
  -Hartree energ DENC   =      -557.10325883
  -exchange      EXHF   =        38.38801033
  -V(xc)+E(xc)   XCENC  =        34.07251793
  PAW double counting   =      3469.94041938    -3449.39601367
  entropy T*S    EENTRO =         0.00000000
  eigenvalues    EBANDS =      -116.44030044
  atomic energy  EATOM  =      1750.64560241
  Solvation  Ediel_sol  =         0.00000000
  ---------------------------------------------------
  free energy    TOTEN  =       -10.01506202 eV

  energy without entropy =      -10.01506202  energy(sigma->0) =      -10.01506202
  exchange ACFDT corr.  =         0.00000000  see jH, gK, PRB 81, 115126


--------------------------------------------------------------------------------------------------------




--------------------------------------- Iteration      1(  11)  ---------------------------------------


    POTLOK:  cpu time      0.0177: real time      0.0328
    SETDIJ:  cpu time      0.9396: real time      0.9419
     EDDAV:  cpu time     15.0961: real time     15.1340
 BZINTS: Fermi energy:    4.649315;   18.000000 electrons
         Band energy:-0.116407E+03;  BLOECHL correction:    0.000000
       DOS:  cpu time      0.0013: real time      0.0013
    CHARGE:  cpu time      0.0396: real time      0.0397
    MIXING:  cpu time      0.0001: real time      0.0001
    --------------------------------------------
      LOOP:  cpu time     16.0944: real time     16.1498

 eigenvalue-minimisations  :  1932
 total energy-change (2. order) :-0.5354257E-03  (-0.9700518E-04)
 number of electron      17.9999998 magnetization      -0.0335923
 augmentation part        6.5878379 magnetization      -0.0335276

 Free energy of the ion-electron system (eV)
  ---------------------------------------------------
  alpha Z        PSCENC =        31.71721604
  Ewald energy   TEWEN  =     -1211.83925518
  -Hartree energ DENC   =      -557.08543401
  -exchange      EXHF   =        38.39180694
  -V(xc)+E(xc)   XCENC  =        34.07640052
  PAW double counting   =      3557.85977918    -3537.37488582
  entropy T*S    EENTRO =         0.00000000
  eigenvalues    EBANDS =      -116.40682754
  atomic energy  EATOM  =      1750.64560241
  Solvation  Ediel_sol  =         0.00000000
  ---------------------------------------------------
  free energy    TOTEN  =       -10.01559744 eV

  energy without entropy =      -10.01559744  energy(sigma->0) =      -10.01559744
  exchange ACFDT corr.  =         0.00000000  see jH, gK, PRB 81, 115126


--------------------------------------------------------------------------------------------------------




--------------------------------------- Iteration      1(  12)  ---------------------------------------


    POTLOK:  cpu time      0.0185: real time      0.0318
    SETDIJ:  cpu time      0.9445: real time      0.9469
     EDDAV:  cpu time     15.4584: real time     15.4973
 BZINTS: Fermi energy:    4.649958;   18.000000 electrons
         Band energy:-0.116383E+03;  BLOECHL correction:    0.000000
       DOS:  cpu time      0.0013: real time      0.0013
    CHARGE:  cpu time      0.0443: real time      0.0444
    MIXING:  cpu time      0.0002: real time      0.0002
    --------------------------------------------
      LOOP:  cpu time     16.4671: real time     16.5218

 eigenvalue-minimisations  :  2064
 total energy-change (2. order) :-0.2536055E-03  (-0.3077889E-04)
 number of electron      17.9999998 magnetization       0.0201554
 augmentation part        6.5878922 magnetization       0.0201522

 Free energy of the ion-electron system (eV)
  ---------------------------------------------------
  alpha Z        PSCENC =        31.71721604
  Ewald energy   TEWEN  =     -1211.83925518
  -Hartree energ DENC   =      -557.08382348
  -exchange      EXHF   =        38.39377750
  -V(xc)+E(xc)   XCENC  =        34.07956154
  PAW double counting   =      3608.53740100    -3588.08335447
  entropy T*S    EENTRO =         0.00000000
  eigenvalues    EBANDS =      -116.38297642
  atomic energy  EATOM  =      1750.64560241
  Solvation  Ediel_sol  =         0.00000000
  ---------------------------------------------------
  free energy    TOTEN  =       -10.01585105 eV

  energy without entropy =      -10.01585105  energy(sigma->0) =      -10.01585105
  exchange ACFDT corr.  =         0.00000000  see jH, gK, PRB 81, 115126


--------------------------------------------------------------------------------------------------------




--------------------------------------- Iteration      1(  13)  ---------------------------------------


    POTLOK:  cpu time      0.0197: real time      0.0348
    SETDIJ:  cpu time      0.9341: real time      0.9365
     EDDAV:  cpu time     15.0610: real time     15.0988
 BZINTS: Fermi energy:    4.650017;   18.000000 electrons
         Band energy:-0.116357E+03;  BLOECHL correction:    0.000000
       DOS:  cpu time      0.0013: real time      0.0013
    CHARGE:  cpu time      0.0395: real time      0.0396
    MIXING:  cpu time      0.0001: real time      0.0001
    --------------------------------------------
      LOOP:  cpu time     16.0556: real time     16.1109

 eigenvalue-minimisations  :  2076
 total energy-change (2. order) :-0.1227193E-03  (-0.1101024E-04)
 number of electron      17.9999998 magnetization      -0.0120932
 augmentation part        6.5878897 magnetization      -0.0120823

 Free energy of the ion-electron system (eV)
  ---------------------------------------------------
  alpha Z        PSCENC =        31.71721604
  Ewald energy   TEWEN  =     -1211.83925518
  -Hartree energ DENC   =      -557.09344462
  -exchange      EXHF   =        38.39400594
  -V(xc)+E(xc)   XCENC  =        34.08185433
  PAW double counting   =      3638.26300890    -3617.82751189
  entropy T*S    EENTRO =         0.00000000
  eigenvalues    EBANDS =      -116.35744970
  atomic energy  EATOM  =      1750.64560241
  Solvation  Ediel_sol  =         0.00000000
  ---------------------------------------------------
  free energy    TOTEN  =       -10.01597377 eV

  energy without entropy =      -10.01597377  energy(sigma->0) =      -10.01597377
  exchange ACFDT corr.  =         0.00000000  see jH, gK, PRB 81, 115126


--------------------------------------------------------------------------------------------------------




--------------------------------------- Iteration      1(  14)  ---------------------------------------


    POTLOK:  cpu time      0.0202: real time      0.0351
    SETDIJ:  cpu time      0.9394: real time      0.9418
     EDDAV:  cpu time     15.4703: real time     15.5092
 BZINTS: Fermi energy:    4.651320;   18.000000 electrons
         Band energy:-0.116334E+03;  BLOECHL correction:    0.000000
       DOS:  cpu time      0.0013: real time      0.0013
    CHARGE:  cpu time      0.0399: real time      0.0400
    MIXING:  cpu time      0.0001: real time      0.0001
    --------------------------------------------
      LOOP:  cpu time     16.4712: real time     16.5274

 eigenvalue-minimisations  :  2028
 total energy-change (2. order) :-0.6105663E-04  (-0.4207675E-05)
 number of electron      17.9999998 magnetization       0.0072559
 augmentation part        6.5878459 magnetization       0.0072530

 Free energy of the ion-electron system (eV)
  ---------------------------------------------------
  alpha Z        PSCENC =        31.71721604
  Ewald energy   TEWEN  =     -1211.83925518
  -Hartree energ DENC   =      -557.10577318
  -exchange      EXHF   =        38.39366221
  -V(xc)+E(xc)   XCENC  =        34.08338282
  PAW double counting   =      3655.94327417    -3635.51991927
  entropy T*S    EENTRO =         0.00000000
  eigenvalues    EBANDS =      -116.33422484
  atomic energy  EATOM  =      1750.64560241
  Solvation  Ediel_sol  =         0.00000000
  ---------------------------------------------------
  free energy    TOTEN  =       -10.01603482 eV

  energy without entropy =      -10.01603482  energy(sigma->0) =      -10.01603482
  exchange ACFDT corr.  =         0.00000000  see jH, gK, PRB 81, 115126


--------------------------------------------------------------------------------------------------------




--------------------------------------- Iteration      1(  15)  ---------------------------------------


    POTLOK:  cpu time      0.0191: real time      0.0341
    SETDIJ:  cpu time      0.9346: real time      0.9369
     EDDAV:  cpu time     15.3448: real time     15.3834
 BZINTS: Fermi energy:    4.651668;   18.000000 electrons
         Band energy:-0.116316E+03;  BLOECHL correction:    0.000000
       DOS:  cpu time      0.0012: real time      0.0012
    CHARGE:  cpu time      0.0395: real time      0.0396
    MIXING:  cpu time      0.0001: real time      0.0001
    --------------------------------------------
      LOOP:  cpu time     16.3392: real time     16.3953

 eigenvalue-minimisations  :  2052
 total energy-change (2. order) :-0.3013845E-04  (-0.1665763E-05)
 number of electron      17.9999998 magnetization      -0.0043536
 augmentation part        6.5878041 magnetization      -0.0043500

 Free energy of the ion-electron system (eV)
  ---------------------------------------------------
  alpha Z        PSCENC =        31.71721604
  Ewald energy   TEWEN  =     -1211.83925518
  -Hartree energ DENC   =      -557.11632746
  -exchange      EXHF   =        38.39332909
  -V(xc)+E(xc)   XCENC  =        34.08435406
  PAW double counting   =      3666.51761269    -3646.10221985
  entropy T*S    EENTRO =         0.00000000
  eigenvalues    EBANDS =      -116.31637678
  atomic energy  EATOM  =      1750.64560241
  Solvation  Ediel_sol  =         0.00000000
  ---------------------------------------------------
  free energy    TOTEN  =       -10.01606496 eV

  energy without entropy =      -10.01606496  energy(sigma->0) =      -10.01606496
  exchange ACFDT corr.  =         0.00000000  see jH, gK, PRB 81, 115126


--------------------------------------------------------------------------------------------------------




--------------------------------------- Iteration      1(  16)  ---------------------------------------


    POTLOK:  cpu time      0.0195: real time      0.0340
    SETDIJ:  cpu time      0.9317: real time      0.9341
     EDDAV:  cpu time     15.2389: real time     15.2780
 BZINTS: Fermi energy:    4.652619;   18.000000 electrons
         Band energy:-0.116304E+03;  BLOECHL correction:    0.000000
       DOS:  cpu time      0.0013: real time      0.0013
    CHARGE:  cpu time      0.0436: real time      0.0437
    MIXING:  cpu time      0.0001: real time      0.0001
    --------------------------------------------
      LOOP:  cpu time     16.2351: real time     16.2911

 eigenvalue-minimisations  :  1836
 total energy-change (2. order) :-0.1534312E-04  (-0.6545675E-06)
 number of electron      17.9999998 magnetization       0.0026121
 augmentation part        6.5877710 magnetization       0.0026171

 Free energy of the ion-electron system (eV)
  ---------------------------------------------------
  alpha Z        PSCENC =        31.71721604
  Ewald energy   TEWEN  =     -1211.83925518
  -Hartree energ DENC   =      -557.12432708
  -exchange      EXHF   =        38.39314475
  -V(xc)+E(xc)   XCENC  =        34.08496743
  PAW double counting   =      3672.84503549    -3652.43475348
  entropy T*S    EENTRO =         0.00000000
  eigenvalues    EBANDS =      -116.30371069
  atomic energy  EATOM  =      1750.64560241
  Solvation  Ediel_sol  =         0.00000000
  ---------------------------------------------------
  free energy    TOTEN  =       -10.01608030 eV

  energy without entropy =      -10.01608030  energy(sigma->0) =      -10.01608030
  exchange ACFDT corr.  =         0.00000000  see jH, gK, PRB 81, 115126


--------------------------------------------------------------------------------------------------------




--------------------------------------- Iteration      1(  17)  ---------------------------------------


    POTLOK:  cpu time      0.0224: real time      0.0361
    SETDIJ:  cpu time      0.9692: real time      0.9717
     EDDAV:  cpu time     15.3720: real time     15.4105
 BZINTS: Fermi energy:    4.652699;   18.000000 electrons
         Band energy:-0.116295E+03;  BLOECHL correction:    0.000000
       DOS:  cpu time      0.0013: real time      0.0013
    --------------------------------------------
      LOOP:  cpu time     16.3649: real time     16.4195

 eigenvalue-minimisations  :  1764
 total energy-change (2. order) :-0.7684145E-05  (-0.2874254E-06)
 number of electron      17.9999998 magnetization       0.0026121
 augmentation part        6.5877710 magnetization       0.0026171

 Free energy of the ion-electron system (eV)
  ---------------------------------------------------
  alpha Z        PSCENC =        31.71721604
  Ewald energy   TEWEN  =     -1211.83925518
  -Hartree energ DENC   =      -557.13004644
  -exchange      EXHF   =        38.39304875
  -V(xc)+E(xc)   XCENC  =        34.08535611
  PAW double counting   =      3676.62085821    -3656.21376686
  entropy T*S    EENTRO =         0.00000000
  eigenvalues    EBANDS =      -116.29510104
  atomic energy  EATOM  =      1750.64560241
  Solvation  Ediel_sol  =         0.00000000
  ---------------------------------------------------
  free energy    TOTEN  =       -10.01608799 eV

  energy without entropy =      -10.01608799  energy(sigma->0) =      -10.01608799
  exchange ACFDT corr.  =         0.00000000  see jH, gK, PRB 81, 115126


--------------------------------------------------------------------------------------------------------




 average (electrostatic) potential at core
  the test charge radii are     1.0774  0.9587
  (the norm of the test charge is              1.0000)
       1 -89.6564       2 -79.4247
 
 
 
 E-fermi :   4.6527     XC(G=0):  -7.6436     alpha+bet :-10.8616

 Fermi energy:         4.6526985864

 spin component 1

 k-point     1 :       0.0000    0.0000    0.0000
  band No.  band energies     occupation 
      1     -11.3314      1.00000
      2     -11.3314      1.00000
      3     -11.3314      1.00000
      4     -11.1804      1.00000
      5     -11.1804      1.00000
      6      -8.0704      1.00000
      7       4.5230      1.00000
      8       4.5230      1.00000
      9       4.5230      1.00000
     10       5.9028      0.00000
     11       9.4560      0.00000
     12       9.4560      0.00000
     13       9.4560      0.00000
     14      14.0084      0.00000
     15      15.0019      0.00000
     16      15.0019      0.00000
     17      16.6678      0.00000
     18      16.6678      0.00000
     19      16.6678      0.00000
     20      19.1963      0.00000
     21      28.0139      0.00000
     22      28.0139      0.00000
     23      28.0139      0.00000
     24      29.8940      0.00000

 k-point     2 :       0.1667   -0.0000    0.0000
  band No.  band energies     occupation 
      1     -11.3590      1.00000
      2     -11.3196      1.00000
      3     -11.3196      1.00000
      4     -11.1801      1.00000
      5     -11.1801      1.00000
      6      -7.7415      1.00000
      7       2.2646      1.00000
      8       4.2069      1.00000
      9       4.2069      1.00000
     10       7.0280      0.00000
     11       9.8383      0.00000
     12       9.9186      0.00000
     13       9.9186      0.00000
     14      14.1006      0.00000
     15      14.1006      0.00000
     16      14.9253      0.00000
     17      16.3767      0.00000
     18      18.6658      0.00000
     19      18.6658      0.00000
     20      21.3505      0.00000
     21      24.8440      0.00000
     22      24.9399      0.00000
     23      24.9399      0.00000
     24      29.5468      0.00000

 k-point     3 :       0.3333    0.0000    0.0000
  band No.  band energies     occupation 
      1     -11.4114      1.00000
      2     -11.3006      1.00000
      3     -11.3006      1.00000
      4     -11.1747      1.00000
      5     -11.1747      1.00000
      6      -6.8942      1.00000
      7      -0.3504      1.00000
      8       3.7049      1.00000
      9       3.7049      1.00000
     10       6.9013      0.00000
     11      10.2640      0.00000
     12      10.2640      0.00000
     13      11.7156      0.00000
     14      14.3088      0.00000
     15      14.6324      0.00000
     16      14.6324      0.00000
     17      19.4646      0.00000
     18      20.8044      0.00000
     19      20.8044      0.00000
     20      21.3407      0.00000
     21      22.1765      0.00000
     22      22.1765      0.00000
     23      25.3422      0.00000
     24      29.3703      0.00000

 k-point     4 :       0.5000   -0.0000    0.0000
  band No.  band energies     occupation 
      1     -11.4364      1.00000
      2     -11.2938      1.00000
      3     -11.2938      1.00000
      4     -11.1691      1.00000
      5     -11.1691      1.00000
      6      -6.2718      1.00000
      7      -1.6079      1.00000
      8       3.4947      1.00000
      9       3.4947      1.00000
     10       6.7345      0.00000
[...]
     14      13.1754      0.00000
     15      14.9993      0.00000
     16      16.4785      0.00000
     17      17.0539      0.00000
     18      19.3103      0.00000
     19      20.8816      0.00000
     20      21.4731      0.00000
     21      23.4147      0.00000
     22      24.4634      0.00000
     23      24.7460      0.00000
     24      26.0467      0.00000

 k-point    10 :       0.3333    0.3333    0.0000
  band No.  band energies     occupation 
      1     -11.4635      1.00000
      2     -11.2583      1.00000
      3     -11.2583      1.00000
      4     -11.2137      1.00000
      5     -11.1570      1.00000
      6      -6.4900      1.00000
      7      -0.2298      1.00000
      8       2.5154      1.00000
      9       2.5154      1.00000
     10       7.2721      0.00000
     11       8.1393      0.00000
     12      13.1235      0.00000
     13      13.1610      0.00000
     14      13.1610      0.00000
     15      15.9965      0.00000
     16      18.8969      0.00000
     17      19.9372      0.00000
     18      19.9372      0.00000
     19      20.4730      0.00000
     20      20.5977      0.00000
     21      20.5977      0.00000
     22      22.7842      0.00000
     23      23.3048      0.00000
     24      27.1562      0.00000

 k-point    11 :       0.5000    0.3333    0.0000
  band No.  band energies     occupation 
      1     -11.4792      1.00000
      2     -11.2542      1.00000
      3     -11.2461      1.00000
      4     -11.2123      1.00000
      5     -11.1564      1.00000
      6      -5.8130      1.00000
      7      -1.2502      1.00000
      8       1.5851      1.00000
      9       2.3546      1.00000
     10       7.4674      0.00000
     11       8.7573      0.00000
     12      12.6725      0.00000
     13      13.3572      0.00000
     14      15.1671      0.00000
     15      16.5731      0.00000
     16      17.7150      0.00000
     17      18.5468      0.00000
     18      19.4070      0.00000
     19      21.2855      0.00000
     20      22.3070      0.00000
     21      22.7246      0.00000
     22      23.8420      0.00000
     23      24.5308      0.00000
     24      25.3495      0.00000

 k-point    12 :      -0.3333    0.3333    0.0000
  band No.  band energies     occupation 
      1     -11.4607      1.00000
      2     -11.2722      1.00000
      3     -11.2567      1.00000
      4     -11.1934      1.00000
      5     -11.1698      1.00000
      6      -5.7413      1.00000
      7      -1.3135      1.00000
      8       0.9410      1.00000
      9       2.7583      1.00000
     10       7.8784      0.00000
     11      10.5583      0.00000
     12      12.3303      0.00000
     13      12.4926      0.00000
     14      13.4777      0.00000
     15      14.7426      0.00000
     16      18.7815      0.00000
     17      19.6873      0.00000
     18      20.0833      0.00000
     19      20.7354      0.00000
     20      20.9890      0.00000
     21      23.2636      0.00000
     22      25.3073      0.00000
     23      26.1411      0.00000
     24      26.7739      0.00000

 k-point    13 :       0.5000    0.5000    0.0000
  band No.  band energies     occupation 
      1     -11.5007      1.00000
      2     -11.2329      1.00000
      3     -11.2329      1.00000
      4     -11.2268      1.00000
      5     -11.1491      1.00000
      6      -5.5850      1.00000
      7      -1.6237      1.00000
      8       2.0593      1.00000
      9       2.0593      1.00000
     10       6.9386      0.00000
     11       7.5293      0.00000
     12      14.8134      0.00000
     13      15.2953      0.00000
     14      15.2953      0.00000
     15      16.5056      0.00000
     16      17.4706      0.00000
     17      17.4706      0.00000
     18      19.0619      0.00000
     19      21.8852      0.00000
     20      21.9845      0.00000
     21      24.1267      0.00000
     22      24.1267      0.00000
     23      24.4814      0.00000
     24      25.1103      0.00000

 k-point    14 :       0.5000    0.3333    0.1667
  band No.  band energies     occupation 
      1     -11.4507      1.00000
      2     -11.2789      1.00000
      3     -11.2625      1.00000
      4     -11.1982      1.00000
      5     -11.1643      1.00000
      6      -6.2332      1.00000
      7      -0.6963      1.00000
      8       1.6782      1.00000
      9       2.7247      1.00000
     10       8.8848      0.00000
     11       9.1268      0.00000
     12      10.4153      0.00000
     13      13.0410      0.00000
     14      13.8689      0.00000
     15      16.7254      0.00000
     16      17.4684      0.00000
     17      18.2635      0.00000
     18      19.2927      0.00000
     19      20.4611      0.00000
     20      22.4648      0.00000
     21      23.2217      0.00000
     22      23.9625      0.00000
     23      25.4022      0.00000
     24      26.2162      0.00000

 k-point    15 :      -0.3333    0.3333    0.1667
  band No.  band energies     occupation 
      1     -11.4597      1.00000
      2     -11.2790      1.00000
      3     -11.2522      1.00000
      4     -11.1933      1.00000
      5     -11.1687      1.00000
      6      -5.7404      1.00000
      7      -1.3589      1.00000
      8       1.2558      1.00000
      9       2.3395      1.00000
     10       9.0019      0.00000
     11       9.5961      0.00000
     12      11.1739      0.00000
     13      12.8598      0.00000
     14      13.7738      0.00000
     15      16.6873      0.00000
     16      17.2903      0.00000
     17      18.4777      0.00000
     18      20.2860      0.00000
     19      21.1647      0.00000
     20      22.0118      0.00000
     21      23.3861      0.00000
     22      24.6860      0.00000
     23      25.4985      0.00000
     24      26.8453      0.00000

 k-point    16 :      -0.3333    0.5000    0.1667
  band No.  band energies     occupation 
      1     -11.4783      1.00000
      2     -11.2623      1.00000
      3     -11.2392      1.00000
      4     -11.2071      1.00000
      5     -11.1610      1.00000
      6      -5.5293      1.00000
      7      -1.4942      1.00000
      8       1.5459      1.00000
      9       1.6020      1.00000
     10       8.5236      0.00000
     11       8.9864      0.00000
     12      12.2764      0.00000
     13      12.5599      0.00000
     14      15.7774      0.00000
     15      16.9860      0.00000
     16      17.6393      0.00000
     17      17.6756      0.00000
     18      20.4968      0.00000
     19      21.7026      0.00000
     20      22.8648      0.00000
     21      23.2501      0.00000
     22      23.4311      0.00000
     23      23.6999      0.00000
     24      25.6978      0.00000


--------------------------------------------------------------------------------------------------------


 soft charge-density along one line, spin component           1
         0         1         2         3         4         5         6         7         8         9
 total charge-density along one line
 
 soft charge-density along one line, spin component           2
         0         1         2         3         4         5         6         7         8         9
 total charge-density along one line
 
 pseudopotential strength for first ion, spin component:           1
 -9.394  -0.000   0.004  -0.000  -0.002   0.479   0.000  -0.002
 -0.000  -9.394  -0.000   0.004   0.000   0.000   0.479   0.000
  0.004  -0.000  -9.390  -0.000   0.001  -0.002   0.000   0.477
 -0.000   0.004  -0.000  -9.391  -0.000   0.000  -0.002   0.000
 -0.002   0.000   0.001  -0.000  -9.389   0.001  -0.000  -0.001
  0.479   0.000  -0.002   0.000   0.001   6.552  -0.000   0.000
  0.000   0.479   0.000  -0.002  -0.000  -0.000   6.552  -0.000
 -0.002   0.000   0.477   0.000  -0.001   0.000  -0.000   6.552
  0.000  -0.002   0.000   0.478   0.000  -0.000   0.000  -0.000
  0.001  -0.000  -0.001   0.000   0.476  -0.000   0.000   0.000
  0.000   0.000  -0.000   0.000  -0.000   0.000   0.000   0.000
 -0.000   0.000  -0.000   0.000  -0.000   0.000   0.000   0.000
  0.000  -0.000   0.003  -0.000   0.005   0.000   0.000  -0.003
 -0.000   0.003  -0.000   0.004  -0.000   0.000  -0.003   0.000
  0.003  -0.000   0.004  -0.000  -0.002  -0.003   0.000  -0.004
  0.000  -0.000   0.006  -0.000   0.010   0.000   0.000  -0.005
 -0.000   0.007  -0.000   0.009  -0.000   0.000  -0.006   0.000
  0.007  -0.000   0.008  -0.000  -0.005  -0.006   0.000  -0.008
 pseudopotential strength for first ion, spin component:           2
 -9.394  -0.000   0.004  -0.000  -0.002   0.479   0.000  -0.002
 -0.000  -9.394  -0.000   0.004   0.000   0.000   0.479   0.000
  0.004  -0.000  -9.390  -0.000   0.001  -0.002   0.000   0.477
 -0.000   0.004  -0.000  -9.391  -0.000   0.000  -0.002   0.000
 -0.002   0.000   0.001  -0.000  -9.389   0.001  -0.000  -0.001
  0.479   0.000  -0.002   0.000   0.001   6.552  -0.000   0.000
  0.000   0.479   0.000  -0.002  -0.000  -0.000   6.552  -0.000
 -0.002   0.000   0.477   0.000  -0.001   0.000  -0.000   6.552
  0.000  -0.002   0.000   0.478   0.000  -0.000   0.000  -0.000
  0.001  -0.000  -0.001   0.000   0.476  -0.000   0.000   0.000
 -0.000   0.000  -0.000   0.000  -0.000   0.000   0.000   0.000
 -0.000   0.000  -0.000   0.000  -0.000   0.000   0.000   0.000
  0.000  -0.000   0.003  -0.000   0.005  -0.000   0.000  -0.003
 -0.000   0.003  -0.000   0.004   0.000   0.000  -0.003  -0.000
  0.003  -0.000   0.004   0.000  -0.002  -0.003   0.000  -0.004
  0.000  -0.000   0.006  -0.000   0.010  -0.000   0.000  -0.005
 -0.000   0.007  -0.000   0.009   0.000  -0.000  -0.006  -0.000
  0.007  -0.000   0.008   0.000  -0.005  -0.006  -0.000  -0.008
 total augmentation occupancy for first ion, spin component:           1
  1.992   0.000   0.001   0.000  -0.000  -0.005  -0.000   0.003   0.000  -0.002   0.000  -0.000  -0.000   0.000   0.093   0.000
  0.000   1.992   0.000   0.001   0.000  -0.000  -0.005   0.000   0.004   0.000  -0.000   0.000   0.000   0.093   0.000  -0.000
  0.001   0.000   1.993   0.000   0.000   0.003   0.000  -0.002   0.000   0.001  -0.000   0.000   0.081   0.000   0.114  -0.044
  0.000   0.001   0.000   1.993   0.000   0.000   0.004   0.000  -0.003   0.000  -0.000   0.000   0.000   0.132   0.000  -0.000
 -0.000   0.000   0.000   0.000   1.993  -0.002   0.000   0.001   0.000  -0.001  -0.000   0.000   0.140   0.000  -0.066  -0.076
 -0.005  -0.000   0.003   0.000  -0.002   0.023  -0.000   0.014   0.000  -0.008  -0.000   0.000   0.000  -0.000   0.182  -0.000
 -0.000  -0.005   0.000   0.004   0.000  -0.000   0.023  -0.000   0.016   0.000  -0.000   0.000  -0.000   0.182  -0.000   0.000
  0.003   0.000  -0.002   0.000   0.001   0.014  -0.000   0.037   0.000   0.005   0.000  -0.000   0.158   0.000   0.223  -0.041
  0.000   0.004   0.000  -0.003   0.000   0.000   0.016   0.000   0.034   0.000   0.000  -0.000  -0.000   0.257   0.000   0.000
 -0.002   0.000   0.001   0.000  -0.001  -0.008   0.000   0.005   0.000   0.043   0.000  -0.000   0.273   0.000  -0.129  -0.071
  0.000  -0.000  -0.000  -0.000  -0.000  -0.000  -0.000   0.000   0.000   0.000  17.751 -10.222   0.000   0.000   0.000  -0.000
 -0.000   0.000   0.000   0.000   0.000   0.000   0.000  -0.000  -0.000  -0.000 -10.222   5.935  -0.000  -0.000  -0.000   0.000
 -0.000   0.000   0.081   0.000   0.140   0.000  -0.000   0.158  -0.000   0.273   0.000  -0.000   3.587   0.000  -0.000  -0.951
  0.000   0.093   0.000   0.132   0.000  -0.000   0.182   0.000   0.257   0.000   0.000  -0.000   0.000   3.587   0.000  -0.000
  0.093   0.000   0.114   0.000  -0.066   0.182  -0.000   0.223   0.000  -0.129   0.000  -0.000  -0.000   0.000   3.587  -0.000
  0.000  -0.000  -0.044  -0.000  -0.076  -0.000   0.000  -0.041   0.000  -0.071  -0.000   0.000  -0.951  -0.000  -0.000   0.258
 -0.000  -0.050  -0.000  -0.071  -0.000   0.000  -0.047  -0.000  -0.067  -0.000  -0.000   0.000  -0.000  -0.951  -0.000   0.000
 -0.050  -0.000  -0.062  -0.000   0.036  -0.047   0.000  -0.058  -0.000   0.033  -0.000   0.000   0.000  -0.000  -0.951  -0.000
 total augmentation occupancy for first ion, spin component:           2
 -0.000   0.000  -0.000  -0.000   0.000  -0.000   0.000  -0.000  -0.000   0.000   0.000  -0.000   0.000  -0.000   0.000  -0.000
  0.000  -0.000  -0.000  -0.000   0.000  -0.000  -0.000  -0.000  -0.000  -0.000  -0.000   0.000  -0.000   0.000  -0.000   0.000
 -0.000  -0.000  -0.000  -0.000  -0.000  -0.000   0.000  -0.000  -0.000  -0.000  -0.000   0.000   0.000  -0.000   0.000  -0.000
 -0.000  -0.000  -0.000  -0.000   0.000   0.000  -0.000   0.000  -0.000   0.000   0.000  -0.000   0.000   0.000  -0.000  -0.000
  0.000   0.000  -0.000   0.000  -0.000   0.000   0.000  -0.000  -0.000  -0.000  -0.000   0.000   0.000  -0.000  -0.000  -0.000
 -0.000  -0.000  -0.000   0.000   0.000   0.000  -0.000   0.000  -0.000  -0.000   0.000  -0.000  -0.000   0.000   0.000   0.000
  0.000  -0.000   0.000  -0.000   0.000  -0.000   0.000  -0.000   0.000  -0.000   0.000  -0.000   0.000   0.000   0.000  -0.000
 -0.000  -0.000  -0.000   0.000  -0.000   0.000  -0.000   0.000  -0.000   0.000   0.000  -0.000   0.000   0.000   0.000   0.000
 -0.000  -0.000  -0.000  -0.000  -0.000  -0.000   0.000  -0.000   0.000  -0.000  -0.000   0.000   0.000   0.000   0.000  -0.000
  0.000  -0.000  -0.000   0.000  -0.000  -0.000  -0.000   0.000  -0.000   0.000   0.000  -0.000   0.000  -0.000  -0.000   0.000
  0.000  -0.000  -0.000   0.000  -0.000   0.000   0.000   0.000  -0.000   0.000   0.000  -0.000   0.000   0.000   0.000  -0.000
 -0.000   0.000   0.000  -0.000   0.000  -0.000  -0.000  -0.000   0.000  -0.000  -0.000   0.000  -0.000  -0.000  -0.000   0.000
  0.000  -0.000   0.000   0.000   0.000  -0.000   0.000   0.000   0.000   0.000   0.000  -0.000  -0.000   0.000   0.000   0.000
 -0.000   0.000  -0.000   0.000  -0.000   0.000   0.000   0.000   0.000  -0.000   0.000  -0.000   0.000  -0.000   0.000  -0.000
  0.000  -0.000   0.000  -0.000  -0.000   0.000   0.000   0.000   0.000  -0.000   0.000  -0.000   0.000   0.000  -0.000   0.000
 -0.000   0.000  -0.000  -0.000  -0.000   0.000  -0.000   0.000  -0.000   0.000  -0.000   0.000   0.000  -0.000   0.000  -0.000
  0.000  -0.000   0.000  -0.000   0.000  -0.000   0.000  -0.000   0.000   0.000  -0.000   0.000  -0.000   0.000  -0.000   0.000
 -0.000   0.000  -0.000   0.000   0.000   0.000  -0.000   0.000  -0.000  -0.000  -0.000   0.000  -0.000  -0.000   0.000   0.000


------------------------ aborting loop because EDIFF is reached ----------------------------------------





 total charge

# of ion       s       p       d       tot
------------------------------------------
    1        0.837   0.764   9.914  11.515
    2        1.021   1.506   0.000   2.528
--------------------------------------------------
tot          1.859   2.270   9.914  14.043



 magnetization (x)

# of ion       s       p       d       tot
------------------------------------------
    1       -0.000  -0.000  -0.000  -0.000
    2       -0.000  -0.000   0.000  -0.000
--------------------------------------------------
tot         -0.000  -0.000  -0.000  -0.000
 
    CHARGE:  cpu time      0.0437: real time      0.0439
    FORLOC:  cpu time      0.0007: real time      0.0008
    FORHF :  cpu time      8.0089: real time      8.0293
    FORNL :  cpu time      0.0086: real time      0.0088
    FORCOR:  cpu time      0.9574: real time      0.9600
    FORHAR:  cpu time      0.0033: real time      0.0037
    MIXING:  cpu time      0.0001: real time      0.0001
    OFIELD:  cpu time      0.0007: real time      0.0008

 VOLUME and BASIS-vectors are now :
 -----------------------------------------------------------------------------
  energy-cutoff  :      680.00
  volume of cell :       51.45
      direct lattice vectors                 reciprocal lattice vectors
     3.615417997  0.000000000  2.087362539     0.276593191 -0.097790437  0.000000000
     1.205138999  3.408648637  2.087362538     0.000000000  0.293371393  0.000000000
     0.000000000  0.000000000  4.174725070    -0.138296596 -0.097790478  0.239536732

  length of vectors
     4.174725100  4.174724890  4.174725070     0.293371374  0.293371393  0.293371389


 FORCES acting on ions
    electron-ion (+dipol)            ewald-force                    non-local-force                 convergence-correction
 -----------------------------------------------------------------------------------------------
   0.120E-04 -.981E-05 -.209E-05   -.172E-04 0.113E-04 0.322E-06   -.850E-16 -.698E-16 -.151E-15   -.109E-04 0.199E-04 0.761E-05
   -.140E-04 0.881E-05 0.516E-06   0.172E-04 -.113E-04 -.322E-06   -.875E-17 -.528E-16 -.473E-16   0.265E-06 -.114E-05 0.266E-06
 -----------------------------------------------------------------------------------------------
   -.204E-05 -.997E-06 -.157E-05   -.290E-15 0.140E-15 0.738E-17   -.937E-16 -.123E-15 -.198E-15   -.106E-04 0.188E-04 0.787E-05
 
 
 POSITION                                       TOTAL-FORCE (eV/Angst)
 -----------------------------------------------------------------------------------
      0.00000      0.00000      0.00000        -0.000000      0.000000      0.000000
      1.20514      0.85216      2.08736         0.000000     -0.000000     -0.000000
 -----------------------------------------------------------------------------------
    total drift:                               -0.000013      0.000018      0.000006


--------------------------------------------------------------------------------------------------------



  FREE ENERGIE OF THE ION-ELECTRON SYSTEM (eV)
  ---------------------------------------------------
  free  energy   TOTEN  =       -10.01608799 eV

  energy  without entropy=      -10.01608799  energy(sigma->0) =      -10.01608799
 


--------------------------------------------------------------------------------------------------------


    POTLOK:  cpu time      0.9651: real time      0.9674


--------------------------------------------------------------------------------------------------------


 writing wavefunctions
     LOOP+:  cpu time    223.9758: real time    224.7842
    4ORBIT:  cpu time      0.0000: real time      0.0000



 total charge

# of ion       s       p       d       tot
------------------------------------------
    1        0.837   0.764   9.914  11.515
    2        1.021   1.506   0.000   2.528
--------------------------------------------------
tot          1.859   2.270   9.914  14.043



 magnetization (x)

# of ion       s       p       d       tot
------------------------------------------
    1       -0.000  -0.000  -0.000  -0.000
    2       -0.000  -0.000   0.000  -0.000
--------------------------------------------------
tot         -0.000  -0.000  -0.000  -0.000
 
 BZINTS: Fermi energy:    4.652699;   18.000000 electrons
         Band energy:-0.116295E+03;  BLOECHL correction:    0.000000

 total amount of memory used by VASP MPI-rank0    33941. kBytes
=======================================================================

   base      :      30000. kBytes
   nonl-proj :       1169. kBytes
   fftplans  :        396. kBytes
   grid      :        843. kBytes
   one-center:         31. kBytes
   HF        :         64. kBytes
   nonlr-proj:        330. kBytes
   wavefun   :        282. kBytes
   fock_wrk  :        826. kBytes
 
  
  
 General timing and accounting informations for this job:
 ========================================================
  
                  Total CPU time used (sec):      231.889
                            User time (sec):      230.557
                          System time (sec):        1.333
                         Elapsed time (sec):      233.484
  
                   Maximum memory used (kb):      290176.
                   Average memory used (kb):          N/A
  
                          Minor page faults:        46172
                          Major page faults:            0
                 Voluntary context switches:         4144
