 vasp.6.4.2 20Jul23 (build Mar 15 2024 16:31:38) complex                        
  
 executed on             LinuxIFC date 2025.03.05  13:44:06
 running  120 mpi-ranks, on    3 nodes
 distrk:  each k-point on  120 cores,    1 groups
 distr:  one band on NCORE=  10 cores,   12 groups


--------------------------------------------------------------------------------------------------------


 INCAR:
   ALGO = Normal
   EDIFF = 1e-05
   ENAUG = 1360
   ENCUT = 680
   GGA = Pe
   HFSCREEN = 0.2
   ISMEAR = -5
   ISPIN = 2
   LAECHG = True
   LASPH = True
   LCHARG = True
   LDAU = False
   LELF = False
   LHFCALC = True
   LMIXTAU = True
   LORBIT = 11
   LREAL = False
   LVTOT = True
   LWAVE = True
   MAGMOM = 2*0.6
   NCORE = 10
   NELM = 200
   NSW = 0
   PREC = Accurate
   PRECFOCK = Fast
   SIGMA = 0.2

 POTCAR:    PAW_PBE Si 05Jan2001                  
 WARNING: For LVTOT=.TRUE., VASP.5.x writes the TOTAL local potential to the
     file LOCPOT. If you want only the Hartree contributions, use LVHAR=.TRUE.
     instead. 

 POTCAR:    PAW_PBE Si 05Jan2001                  
   VRHFIN =Si: s2p2                                                                                 
   LEXCH  = PE                                                                                      
   EATOM  =   103.0669 eV,    7.5752 Ry                                                             
                                                                                                    
   TITEL  = PAW_PBE Si 05Jan2001                                                                    
   LULTRA =        F    use ultrasoft PP ?                                                          
   IUNSCR =        1    unscreen: 0-lin 1-nonlin 2-no                                               
   RPACOR =    1.500    partial core radius                                                         
   POMASS =   28.085; ZVAL   =    4.000    mass and valenz                                          
   RCORE  =    1.900    outmost cutoff radius                                                       
   RWIGS  =    2.480; RWIGS  =    1.312    wigner-seitz radius (au A)                               
   ENMAX  =  245.345; ENMIN  =  184.009 eV                                                          
   ICORE  =        2    local potential                                                             
   LCOR   =        T    correct aug charges                                                         
   LPAW   =        T    paw PP                                                                      
   EAUG   =  322.069                                                                                
   DEXC   =    0.000                                                                                
   RMAX   =    1.950    core radius for proj-oper                                                   
   RAUG   =    1.300    factor for augmentation sphere                                              
   RDEP   =    1.993    radius for radial grids                                                     
   RDEPT  =    1.837    core radius for aug-charge                                                  
                                                                                                    
   Atomic configuration                                                                             
    6 entries                                                                                       
     n  l   j            E        occ.                                                              
     1  0  0.50     -1785.8828   2.0000                                                             
     2  0  0.50      -139.4969   2.0000                                                             
     2  1  1.50       -95.5546   6.0000                                                             
     3  0  0.50       -10.8127   2.0000                                                             
     3  1  0.50        -4.0811   2.0000                                                             
     3  2  1.50        -4.0817   0.0000                                                             
   Description                                                                                      
     l       E           TYP  RCUT    TYP  RCUT                                                     
     0    -10.8127223     23  1.900                                                                 
     0     -7.6451159     23  1.900                                                                 
     1     -4.0811372     23  1.900                                                                 
     1      2.4879257     23  1.900                                                                 
     2     -4.0817478      7  1.900                                                                 
  local pseudopotential read in
  partial core-charges read in
  partial kinetic energy density read in
  atomic valenz-charges read in
  non local Contribution for L=           0  read in
    real space projection operators read in
  non local Contribution for L=           0  read in
    real space projection operators read in
  non local Contribution for L=           1  read in
    real space projection operators read in
  non local Contribution for L=           1  read in
    real space projection operators read in
    PAW grid and wavefunctions read in
 
   number of l-projection  operators is LMAX  =           4
   number of lm-projection operators is LMMAX =           8
 
  PAW_PBE Si 05Jan2001                  :
 energy of atom  1       EATOM= -103.0669
 kinetic energy error for atom=    0.0003 (will be added to EATOM!!)
 
 
 POSCAR: Si2
  positions in direct lattice
  No initial velocities read in
 exchange correlation table for  LEXCH =        8
   RHO(1)=    0.500       N(1)  =     2000
   RHO(2)=  100.500       N(2)  =     4000
 


--------------------------------------------------------------------------------------------------------


 ion  position               nearest neighbor table
   1  0.875  0.875  0.875-   2 2.36   2 2.36   2 2.36   2 2.36
   2  0.125  0.125  0.125-   1 2.36   1 2.36   1 2.36   1 2.36
 
  LATTYP: Found a face centered cubic cell.
 ALAT       =     5.4437031470
  
  Lattice vectors:
  
 A1 = (   3.3335729972,   0.0000000000,   1.9246389981)
 A2 = (   1.1111909993,   3.1429239987,   1.9246389993)
 A3 = (   0.0000000000,   0.0000000000,   3.8492780000)


Analysis of symmetry for initial positions (statically):
=====================================================================
 Subroutine PRICEL returns:
 Original cell was already a primitive cell.
 

 Routine SETGRP: Setting up the symmetry group for a 
 face centered cubic supercell.


 Subroutine GETGRP returns: Found 48 space group operations
 (whereof 12 operations were pure point group operations)
 out of a pool of 48 trial point group operations.


The static configuration has the point symmetry D_3d.
 The point group associated with its full space group is O_h .


Analysis of symmetry for dynamics (positions and initial velocities):
=====================================================================
 Subroutine PRICEL returns:
 Original cell was already a primitive cell.
 

 Routine SETGRP: Setting up the symmetry group for a 
 face centered cubic supercell.


 Subroutine GETGRP returns: Found 48 space group operations
 (whereof 12 operations were pure point group operations)
 out of a pool of 48 trial point group operations.


The dynamic configuration has the point symmetry D_3d.
 The point group associated with its full space group is O_h .


Analysis of structural, dynamic, and magnetic symmetry:
=====================================================================
 Subroutine PRICEL returns:
 Original cell was already a primitive cell.
 

 Routine SETGRP: Setting up the symmetry group for a 
 face centered cubic supercell.


 Subroutine GETGRP returns: Found 48 space group operations
 (whereof 12 operations were pure point group operations)
 out of a pool of 48 trial point group operations.


The overall configuration has the point symmetry D_3d.
 The point group associated with its full space group is O_h .


 Subroutine INISYM returns: Found 48 space group operations
 (whereof 12 operations are pure point group operations),
 and found     1 'primitive' translations


----------------------------------------------------------------------------------------

                                     Primitive cell                                     

  volume of cell :      40.3295

  direct lattice vectors                    reciprocal lattice vectors
     3.333572997  0.000000000  1.924638998     0.299978432 -0.106058350  0.000000000
     1.111190999  3.142923999  1.924638999     0.000000000  0.318175050  0.000000000
     0.000000000  0.000000000  3.849278000    -0.149989216 -0.106058350  0.259788979

  length of vectors
     3.849278400  3.849279410  3.849278000     0.318175161  0.318175050  0.318175190

  position of ions in fractional coordinates (direct lattice)
     0.875000000  0.875000000  0.875000000
     0.125000000  0.125000000  0.125000000

  ion indices of the primitive-cell ions
   primitive index   ion index
                 1           1
                 2           2

----------------------------------------------------------------------------------------

 
 
 KPOINTS: pymatgen with grid density = 787 / numbe

Automatic generation of k-mesh.
 Grid dimensions read from file:
 generate k-points for:    7    7    7

 Generating k-lattice:

  Cartesian coordinates                     Fractional coordinates (reciprocal lattice)
     0.042854062 -0.015151193  0.000000000     0.142857143  0.000000000  0.000000000
     0.000000000  0.045453579  0.000000000     0.000000000  0.142857143  0.000000000
    -0.021427031 -0.015151193  0.037112711     0.000000000  0.000000000  0.142857143

  Length of vectors
     0.045453594  0.045453579  0.045453599

  Shift w.r.t. Gamma in fractional coordinates (k-lattice)
     0.000000000  0.000000000  0.000000000

 TETIRR: Found     58 inequivalent tetrahedra from     2058
 
 Subroutine IBZKPT returns following result:
 ===========================================
 
 Found     20 irreducible k-points:
 
 Following reciprocal coordinates:
            Coordinates               Weight
  0.000000  0.000000  0.000000      1.000000
  0.142857 -0.000000  0.000000      8.000000
  0.285714 -0.000000  0.000000      8.000000
  0.428571 -0.000000  0.000000      8.000000
  0.142857  0.142857  0.000000      6.000000
  0.285714  0.142857  0.000000     24.000000
  0.428571  0.142857  0.000000     24.000000
 -0.428571  0.142857  0.000000     24.000000
 -0.285714  0.142857  0.000000     24.000000
 -0.142857  0.142857  0.000000     12.000000
  0.285714  0.285714  0.000000      6.000000
  0.428571  0.285714  0.000000     24.000000
 -0.428571  0.285714  0.000000     24.000000
 -0.285714  0.285714  0.000000     12.000000
  0.428571  0.428571  0.000000      6.000000
 -0.428571  0.428571  0.000000     12.000000
  0.428571  0.285714  0.142857     24.000000
 -0.428571  0.285714  0.142857     48.000000
 -0.428571  0.428571  0.142857     24.000000
 -0.285714  0.428571  0.142857     24.000000
 
 Following cartesian coordinates:
            Coordinates               Weight
  0.000000  0.000000  0.000000      1.000000
  0.042854 -0.015151  0.000000      8.000000
  0.085708 -0.030302  0.000000      8.000000
  0.128562 -0.045454  0.000000      8.000000
  0.042854  0.030302  0.000000      6.000000
  0.085708  0.015151  0.000000     24.000000
  0.128562 -0.000000  0.000000     24.000000
 -0.128562  0.090907  0.000000     24.000000
 -0.085708  0.075756  0.000000     24.000000
 -0.042854  0.060605  0.000000     12.000000
  0.085708  0.060605  0.000000      6.000000
  0.128562  0.045454  0.000000     24.000000
 -0.128562  0.136361  0.000000     24.000000
 -0.085708  0.121210  0.000000     12.000000
  0.128562  0.090907  0.000000      6.000000
 -0.128562  0.181814  0.000000     12.000000
  0.107135  0.030302  0.037113     24.000000
 -0.149989  0.121210  0.037113     48.000000
 -0.149989  0.166663  0.037113     24.000000
 -0.107135  0.151512  0.037113     24.000000
 
 
 Subroutine IBZKPT_HF returns following result:
 ==============================================
 
 Found    343 k-points in 1st BZ
 the following    343 k-points will be used (e.g. in the exchange kernel)
 Following reciprocal coordinates:   # in IRBZ
  0.000000  0.000000  0.000000    0.00291545   1 t-inv F
  0.142857 -0.000000  0.000000    0.00291545   2 t-inv F
  0.285714 -0.000000  0.000000    0.00291545   3 t-inv F
  0.428571 -0.000000  0.000000    0.00291545   4 t-inv F
  0.142857  0.142857  0.000000    0.00291545   5 t-inv F
  0.285714  0.142857  0.000000    0.00291545   6 t-inv F
  0.428571  0.142857  0.000000    0.00291545   7 t-inv F
 -0.428571  0.142857  0.000000    0.00291545   8 t-inv F
 -0.285714  0.142857  0.000000    0.00291545   9 t-inv F
 -0.142857  0.142857  0.000000    0.00291545  10 t-inv F
  0.285714  0.285714  0.000000    0.00291545  11 t-inv F
  0.428571  0.285714  0.000000    0.00291545  12 t-inv F
 -0.428571  0.285714  0.000000    0.00291545  13 t-inv F
 -0.285714  0.285714  0.000000    0.00291545  14 t-inv F
  0.428571  0.428571  0.000000    0.00291545  15 t-inv F
 -0.428571  0.428571  0.000000    0.00291545  16 t-inv F
  0.428571  0.285714  0.142857    0.00291545  17 t-inv F
 -0.428571  0.285714  0.142857    0.00291545  18 t-inv F
 -0.428571  0.428571  0.142857    0.00291545  19 t-inv F
 -0.285714  0.428571  0.142857    0.00291545  20 t-inv F
 -0.142857  0.000000  0.000000    0.00291545   2 t-inv F
  0.000000  0.142857 -0.000000    0.00291545   2 t-inv F
  0.000000 -0.142857  0.000000    0.00291545   2 t-inv F
 -0.000000  0.000000  0.142857    0.00291545   2 t-inv F
  0.000000  0.000000 -0.142857    0.00291545   2 t-inv F
  0.142857  0.142857  0.142857    0.00291545   2 t-inv F
 -0.142857 -0.142857 -0.142857    0.00291545   2 t-inv F
 -0.285714  0.000000  0.000000    0.00291545   3 t-inv F
  0.000000  0.285714 -0.000000    0.00291545   3 t-inv F
  0.000000 -0.285714  0.000000    0.00291545   3 t-inv F
 -0.000000  0.000000  0.285714    0.00291545   3 t-inv F
  0.000000  0.000000 -0.285714    0.00291545   3 t-inv F
  0.285714  0.285714  0.285714    0.00291545   3 t-inv F
 -0.285714 -0.285714 -0.285714    0.00291545   3 t-inv F
 -0.428571  0.000000  0.000000    0.00291545   4 t-inv F
  0.000000  0.428571 -0.000000    0.00291545   4 t-inv F
  0.000000 -0.428571  0.000000    0.00291545   4 t-inv F
 -0.000000  0.000000  0.428571    0.00291545   4 t-inv F
  0.000000  0.000000 -0.428571    0.00291545   4 t-inv F
  0.428571  0.428571  0.428571    0.00291545   4 t-inv F
 -0.428571 -0.428571 -0.428571    0.00291545   4 t-inv F
 -0.142857 -0.142857  0.000000    0.00291545   5 t-inv F
  0.000000  0.142857  0.142857    0.00291545   5 t-inv F
  0.000000 -0.142857 -0.142857    0.00291545   5 t-inv F
  0.142857  0.000000  0.142857    0.00291545   5 t-inv F
 -0.142857  0.000000 -0.142857    0.00291545   5 t-inv F
 -0.285714 -0.142857  0.000000    0.00291545   6 t-inv F
  0.000000  0.285714  0.142857    0.00291545   6 t-inv F
  0.000000 -0.285714 -0.142857    0.00291545   6 t-inv F
  0.142857  0.000000  0.285714    0.00291545   6 t-inv F
 -0.142857  0.000000 -0.285714    0.00291545   6 t-inv F
 -0.285714  0.000000 -0.142857    0.00291545   6 t-inv F
  0.285714  0.000000  0.142857    0.00291545   6 t-inv F
 -0.142857 -0.285714  0.000000    0.00291545   6 t-inv F
  0.142857  0.285714  0.000000    0.00291545   6 t-inv F
  0.000000 -0.142857 -0.285714    0.00291545   6 t-inv F
  0.000000  0.142857  0.285714    0.00291545   6 t-inv F
  0.142857  0.142857 -0.142857    0.00291545   6 t-inv F
 -0.142857 -0.142857  0.142857    0.00291545   6 t-inv F
  0.285714  0.142857  0.285714    0.00291545   6 t-inv F
 -0.285714 -0.142857 -0.285714    0.00291545   6 t-inv F
  0.142857 -0.142857 -0.142857    0.00291545   6 t-inv F
 -0.142857  0.142857  0.142857    0.00291545   6 t-inv F
  0.285714  0.285714  0.142857    0.00291545   6 t-inv F
 -0.285714 -0.285714 -0.142857    0.00291545   6 t-inv F
 -0.142857  0.142857 -0.142857    0.00291545   6 t-inv F
  0.142857 -0.142857  0.142857    0.00291545   6 t-inv F
  0.142857  0.285714  0.285714    0.00291545   6 t-inv F
 -0.142857 -0.285714 -0.285714    0.00291545   6 t-inv F
 -0.428571 -0.142857  0.000000    0.00291545   7 t-inv F
  0.000000  0.428571  0.142857    0.00291545   7 t-inv F
  0.000000 -0.428571 -0.142857    0.00291545   7 t-inv F
  0.142857  0.000000  0.428571    0.00291545   7 t-inv F
 -0.142857  0.000000 -0.428571    0.00291545   7 t-inv F
 -0.428571  0.000000 -0.142857    0.00291545   7 t-inv F
  0.428571  0.000000  0.142857    0.00291545   7 t-inv F
 -0.142857 -0.428571  0.000000    0.00291545   7 t-inv F
  0.142857  0.428571  0.000000    0.00291545   7 t-inv F
  0.000000 -0.142857 -0.428571    0.00291545   7 t-inv F
  0.000000  0.142857  0.428571    0.00291545   7 t-inv F
  0.142857  0.142857 -0.285714    0.00291545   7 t-inv F
 -0.142857 -0.142857  0.285714    0.00291545   7 t-inv F
  0.428571  0.285714  0.428571    0.00291545   7 t-inv F
 -0.428571 -0.285714 -0.428571    0.00291545   7 t-inv F
  0.285714 -0.142857 -0.142857    0.00291545   7 t-inv F
 -0.285714  0.142857  0.142857    0.00291545   7 t-inv F
  0.428571  0.428571  0.285714    0.00291545   7 t-inv F
 -0.428571 -0.428571 -0.285714    0.00291545   7 t-inv F
 -0.142857  0.285714 -0.142857    0.00291545   7 t-inv F
  0.142857 -0.285714  0.142857    0.00291545   7 t-inv F
  0.285714  0.428571  0.428571    0.00291545   7 t-inv F
 -0.285714 -0.428571 -0.428571    0.00291545   7 t-inv F
  0.428571 -0.142857  0.000000    0.00291545   8 t-inv F
  0.000000 -0.428571  0.142857    0.00291545   8 t-inv F
  0.000000  0.428571 -0.142857    0.00291545   8 t-inv F
  0.142857  0.000000 -0.428571    0.00291545   8 t-inv F
 -0.142857  0.000000  0.428571    0.00291545   8 t-inv F
  0.428571  0.000000 -0.142857    0.00291545   8 t-inv F
 -0.428571  0.000000  0.142857    0.00291545   8 t-inv F
 -0.142857  0.428571  0.000000    0.00291545   8 t-inv F
  0.142857 -0.428571  0.000000    0.00291545   8 t-inv F
  0.000000 -0.142857  0.428571    0.00291545   8 t-inv F
  0.000000  0.142857 -0.428571    0.00291545   8 t-inv F
  0.142857  0.142857  0.571429    0.00291545   8 t-inv F
 -0.142857 -0.142857 -0.571429    0.00291545   8 t-inv F
 -0.428571 -0.571429 -0.428571    0.00291545   8 t-inv F
  0.428571  0.571429  0.428571    0.00291545   8 t-inv F
 -0.571429 -0.142857 -0.142857    0.00291545   8 t-inv F
  0.571429  0.142857  0.142857    0.00291545   8 t-inv F
 -0.428571 -0.428571 -0.571429    0.00291545   8 t-inv F
  0.428571  0.428571  0.571429    0.00291545   8 t-inv F
 -0.142857 -0.571429 -0.142857    0.00291545   8 t-inv F
  0.142857  0.571429  0.142857    0.00291545   8 t-inv F
 -0.571429 -0.428571 -0.428571    0.00291545   8 t-inv F
  0.571429  0.428571  0.428571    0.00291545   8 t-inv F
  0.285714 -0.142857  0.000000    0.00291545   9 t-inv F
  0.000000 -0.285714  0.142857    0.00291545   9 t-inv F
  0.000000  0.285714 -0.142857    0.00291545   9 t-inv F
  0.142857  0.000000 -0.285714    0.00291545   9 t-inv F
 -0.142857  0.000000  0.285714    0.00291545   9 t-inv F
  0.285714  0.000000 -0.142857    0.00291545   9 t-inv F
 -0.285714  0.000000  0.142857    0.00291545   9 t-inv F
 -0.142857  0.285714  0.000000    0.00291545   9 t-inv F
  0.142857 -0.285714  0.000000    0.00291545   9 t-inv F
  0.000000 -0.142857  0.285714    0.00291545   9 t-inv F
  0.000000  0.142857 -0.285714    0.00291545   9 t-inv F
  0.142857  0.142857  0.428571    0.00291545   9 t-inv F
 -0.142857 -0.142857 -0.428571    0.00291545   9 t-inv F
 -0.285714 -0.428571 -0.285714    0.00291545   9 t-inv F
  0.285714  0.428571  0.285714    0.00291545   9 t-inv F
 -0.428571 -0.142857 -0.142857    0.00291545   9 t-inv F
  0.428571  0.142857  0.142857    0.00291545   9 t-inv F
 -0.285714 -0.285714 -0.428571    0.00291545   9 t-inv F
  0.285714  0.285714  0.428571    0.00291545   9 t-inv F
 -0.142857 -0.428571 -0.142857    0.00291545   9 t-inv F
  0.142857  0.428571  0.142857    0.00291545   9 t-inv F
 -0.428571 -0.285714 -0.285714    0.00291545   9 t-inv F
  0.428571  0.285714  0.285714    0.00291545   9 t-inv F
  0.142857 -0.142857  0.000000    0.00291545  10 t-inv F
  0.000000 -0.142857  0.142857    0.00291545  10 t-inv F
  0.000000  0.142857 -0.142857    0.00291545  10 t-inv F
  0.142857  0.000000 -0.142857    0.00291545  10 t-inv F
 -0.142857  0.000000  0.142857    0.00291545  10 t-inv F
  0.142857  0.142857  0.285714    0.00291545  10 t-inv F
 -0.142857 -0.142857 -0.285714    0.00291545  10 t-inv F
 -0.142857 -0.285714 -0.142857    0.00291545  10 t-inv F
  0.142857  0.285714  0.142857    0.00291545  10 t-inv F
 -0.285714 -0.142857 -0.142857    0.00291545  10 t-inv F
  0.285714  0.142857  0.142857    0.00291545  10 t-inv F
 -0.285714 -0.285714  0.000000    0.00291545  11 t-inv F
  0.000000  0.285714  0.285714    0.00291545  11 t-inv F
  0.000000 -0.285714 -0.285714    0.00291545  11 t-inv F
  0.285714  0.000000  0.285714    0.00291545  11 t-inv F
 -0.285714  0.000000 -0.285714    0.00291545  11 t-inv F
 -0.428571 -0.285714  0.000000    0.00291545  12 t-inv F
  0.000000  0.428571  0.285714    0.00291545  12 t-inv F
  0.000000 -0.428571 -0.285714    0.00291545  12 t-inv F
  0.285714  0.000000  0.428571    0.00291545  12 t-inv F
 -0.285714  0.000000 -0.428571    0.00291545  12 t-inv F
 -0.428571  0.000000 -0.285714    0.00291545  12 t-inv F
  0.428571  0.000000  0.285714    0.00291545  12 t-inv F
 -0.285714 -0.428571  0.000000    0.00291545  12 t-inv F
  0.285714  0.428571  0.000000    0.00291545  12 t-inv F
  0.000000 -0.285714 -0.428571    0.00291545  12 t-inv F
  0.000000  0.285714  0.428571    0.00291545  12 t-inv F
  0.285714  0.285714 -0.142857    0.00291545  12 t-inv F
 -0.285714 -0.285714  0.142857    0.00291545  12 t-inv F
  0.428571  0.142857  0.428571    0.00291545  12 t-inv F
 -0.428571 -0.142857 -0.428571    0.00291545  12 t-inv F
  0.142857 -0.285714 -0.285714    0.00291545  12 t-inv F
 -0.142857  0.285714  0.285714    0.00291545  12 t-inv F
  0.428571  0.428571  0.142857    0.00291545  12 t-inv F
 -0.428571 -0.428571 -0.142857    0.00291545  12 t-inv F
 -0.285714  0.142857 -0.285714    0.00291545  12 t-inv F
  0.285714 -0.142857  0.285714    0.00291545  12 t-inv F
  0.142857  0.428571  0.428571    0.00291545  12 t-inv F
 -0.142857 -0.428571 -0.428571    0.00291545  12 t-inv F
  0.428571 -0.285714  0.000000    0.00291545  13 t-inv F
  0.000000 -0.428571  0.285714    0.00291545  13 t-inv F
  0.000000  0.428571 -0.285714    0.00291545  13 t-inv F
  0.285714  0.000000 -0.428571    0.00291545  13 t-inv F
 -0.285714  0.000000  0.428571    0.00291545  13 t-inv F
  0.428571  0.000000 -0.285714    0.00291545  13 t-inv F
 -0.428571  0.000000  0.285714    0.00291545  13 t-inv F
 -0.285714  0.428571  0.000000    0.00291545  13 t-inv F
  0.285714 -0.428571  0.000000    0.00291545  13 t-inv F
  0.000000 -0.285714  0.428571    0.00291545  13 t-inv F
  0.000000  0.285714 -0.428571    0.00291545  13 t-inv F
  0.285714  0.285714  0.714286    0.00291545  13 t-inv F
 -0.285714 -0.285714 -0.714286    0.00291545  13 t-inv F
 -0.428571 -0.714286 -0.428571    0.00291545  13 t-inv F
  0.428571  0.714286  0.428571    0.00291545  13 t-inv F
 -0.714286 -0.285714 -0.285714    0.00291545  13 t-inv F
  0.714286  0.285714  0.285714    0.00291545  13 t-inv F
 -0.428571 -0.428571 -0.714286    0.00291545  13 t-inv F
  0.428571  0.428571  0.714286    0.00291545  13 t-inv F
 -0.285714 -0.714286 -0.285714    0.00291545  13 t-inv F
  0.285714  0.714286  0.285714    0.00291545  13 t-inv F
 -0.714286 -0.428571 -0.428571    0.00291545  13 t-inv F
  0.714286  0.428571  0.428571    0.00291545  13 t-inv F
  0.285714 -0.285714  0.000000    0.00291545  14 t-inv F
  0.000000 -0.285714  0.285714    0.00291545  14 t-inv F
  0.000000  0.285714 -0.285714    0.00291545  14 t-inv F
  0.285714  0.000000 -0.285714    0.00291545  14 t-inv F
 -0.285714  0.000000  0.285714    0.00291545  14 t-inv F
  0.285714  0.285714  0.571429    0.00291545  14 t-inv F
 -0.285714 -0.285714 -0.571429    0.00291545  14 t-inv F
 -0.285714 -0.571429 -0.285714    0.00291545  14 t-inv F
  0.285714  0.571429  0.285714    0.00291545  14 t-inv F
 -0.571429 -0.285714 -0.285714    0.00291545  14 t-inv F
  0.571429  0.285714  0.285714    0.00291545  14 t-inv F
 -0.428571 -0.428571  0.000000    0.00291545  15 t-inv F
  0.000000  0.428571  0.428571    0.00291545  15 t-inv F
  0.000000 -0.428571 -0.428571    0.00291545  15 t-inv F
  0.428571  0.000000  0.428571    0.00291545  15 t-inv F
 -0.428571  0.000000 -0.428571    0.00291545  15 t-inv F
  0.428571 -0.428571  0.000000    0.00291545  16 t-inv F
  0.000000 -0.428571  0.428571    0.00291545  16 t-inv F
  0.000000  0.428571 -0.428571    0.00291545  16 t-inv F
  0.428571  0.000000 -0.428571    0.00291545  16 t-inv F
 -0.428571  0.000000  0.428571    0.00291545  16 t-inv F
  0.428571  0.428571  0.857143    0.00291545  16 t-inv F
 -0.428571 -0.428571 -0.857143    0.00291545  16 t-inv F
 -0.428571 -0.857143 -0.428571    0.00291545  16 t-inv F
  0.428571  0.857143  0.428571    0.00291545  16 t-inv F
 -0.857143 -0.428571 -0.428571    0.00291545  16 t-inv F
  0.857143  0.428571  0.428571    0.00291545  16 t-inv F
 -0.428571 -0.285714 -0.142857    0.00291545  17 t-inv F
  0.142857  0.428571  0.285714    0.00291545  17 t-inv F
 -0.142857 -0.428571 -0.285714    0.00291545  17 t-inv F
  0.285714  0.142857  0.428571    0.00291545  17 t-inv F
 -0.285714 -0.142857 -0.428571    0.00291545  17 t-inv F
 -0.428571 -0.142857 -0.285714    0.00291545  17 t-inv F
  0.428571  0.142857  0.285714    0.00291545  17 t-inv F
 -0.285714 -0.428571 -0.142857    0.00291545  17 t-inv F
  0.285714  0.428571  0.142857    0.00291545  17 t-inv F
 -0.142857 -0.285714 -0.428571    0.00291545  17 t-inv F
  0.142857  0.285714  0.428571    0.00291545  17 t-inv F
  0.285714  0.142857 -0.142857    0.00291545  17 t-inv F
 -0.285714 -0.142857  0.142857    0.00291545  17 t-inv F
  0.142857 -0.285714 -0.142857    0.00291545  17 t-inv F
 -0.142857  0.285714  0.142857    0.00291545  17 t-inv F
  0.142857  0.285714 -0.142857    0.00291545  17 t-inv F
 -0.142857 -0.285714  0.142857    0.00291545  17 t-inv F
  0.142857 -0.142857 -0.285714    0.00291545  17 t-inv F
 -0.142857  0.142857  0.285714    0.00291545  17 t-inv F
 -0.142857  0.142857 -0.285714    0.00291545  17 t-inv F
  0.142857 -0.142857  0.285714    0.00291545  17 t-inv F
 -0.285714  0.142857 -0.142857    0.00291545  17 t-inv F
  0.285714 -0.142857  0.142857    0.00291545  17 t-inv F
  0.428571 -0.285714 -0.142857    0.00291545  18 t-inv F
  0.142857 -0.428571  0.285714    0.00291545  18 t-inv F
 -0.142857  0.428571 -0.285714    0.00291545  18 t-inv F
  0.285714  0.142857 -0.428571    0.00291545  18 t-inv F
 -0.285714 -0.142857  0.428571    0.00291545  18 t-inv F
  0.428571 -0.142857 -0.285714    0.00291545  18 t-inv F
 -0.428571  0.142857  0.285714    0.00291545  18 t-inv F
 -0.285714  0.428571 -0.142857    0.00291545  18 t-inv F
  0.285714 -0.428571  0.142857    0.00291545  18 t-inv F
 -0.142857 -0.285714  0.428571    0.00291545  18 t-inv F
  0.142857  0.285714 -0.428571    0.00291545  18 t-inv F
  0.285714  0.142857  0.714286    0.00291545  18 t-inv F
 -0.285714 -0.142857 -0.714286    0.00291545  18 t-inv F
 -0.428571 -0.714286 -0.571429    0.00291545  18 t-inv F
  0.428571  0.714286  0.571429    0.00291545  18 t-inv F
  0.142857  0.571429 -0.142857    0.00291545  18 t-inv F
 -0.142857 -0.571429  0.142857    0.00291545  18 t-inv F
  0.142857 -0.571429 -0.142857    0.00291545  18 t-inv F
 -0.142857  0.571429  0.142857    0.00291545  18 t-inv F
 -0.714286 -0.142857 -0.285714    0.00291545  18 t-inv F
  0.714286  0.142857  0.285714    0.00291545  18 t-inv F
  0.571429  0.714286  0.428571    0.00291545  18 t-inv F
 -0.571429 -0.714286 -0.428571    0.00291545  18 t-inv F
 -0.571429 -0.428571 -0.714286    0.00291545  18 t-inv F
  0.571429  0.428571  0.714286    0.00291545  18 t-inv F
 -0.142857  0.142857  0.571429    0.00291545  18 t-inv F
  0.142857 -0.142857 -0.571429    0.00291545  18 t-inv F
  0.714286  0.285714  0.142857    0.00291545  18 t-inv F
 -0.714286 -0.285714 -0.142857    0.00291545  18 t-inv F
 -0.142857  0.142857 -0.571429    0.00291545  18 t-inv F
  0.142857 -0.142857  0.571429    0.00291545  18 t-inv F
 -0.285714 -0.714286 -0.142857    0.00291545  18 t-inv F
  0.285714  0.714286  0.142857    0.00291545  18 t-inv F
  0.428571  0.571429  0.714286    0.00291545  18 t-inv F
 -0.428571 -0.571429 -0.714286    0.00291545  18 t-inv F
 -0.714286 -0.571429 -0.428571    0.00291545  18 t-inv F
  0.714286  0.571429  0.428571    0.00291545  18 t-inv F
  0.571429 -0.142857  0.142857    0.00291545  18 t-inv F
 -0.571429  0.142857 -0.142857    0.00291545  18 t-inv F
  0.142857  0.714286  0.285714    0.00291545  18 t-inv F
 -0.142857 -0.714286 -0.285714    0.00291545  18 t-inv F
 -0.571429 -0.142857  0.142857    0.00291545  18 t-inv F
  0.571429  0.142857 -0.142857    0.00291545  18 t-inv F
 -0.142857 -0.285714 -0.714286    0.00291545  18 t-inv F
  0.142857  0.285714  0.714286    0.00291545  18 t-inv F
  0.714286  0.428571  0.571429    0.00291545  18 t-inv F
 -0.714286 -0.428571 -0.571429    0.00291545  18 t-inv F
  0.428571 -0.428571 -0.142857    0.00291545  19 t-inv F
  0.142857 -0.428571  0.428571    0.00291545  19 t-inv F
 -0.142857  0.428571 -0.428571    0.00291545  19 t-inv F
  0.428571  0.142857 -0.428571    0.00291545  19 t-inv F
 -0.428571 -0.142857  0.428571    0.00291545  19 t-inv F
  0.428571 -0.142857 -0.428571    0.00291545  19 t-inv F
 -0.428571  0.142857  0.428571    0.00291545  19 t-inv F
 -0.428571  0.428571 -0.142857    0.00291545  19 t-inv F
  0.428571 -0.428571  0.142857    0.00291545  19 t-inv F
 -0.142857 -0.428571  0.428571    0.00291545  19 t-inv F
  0.142857  0.428571 -0.428571    0.00291545  19 t-inv F
  0.428571  0.285714  0.857143    0.00291545  19 t-inv F
 -0.428571 -0.285714 -0.857143    0.00291545  19 t-inv F
  0.142857  0.571429 -0.285714    0.00291545  19 t-inv F
 -0.142857 -0.571429  0.285714    0.00291545  19 t-inv F
  0.285714 -0.571429 -0.142857    0.00291545  19 t-inv F
 -0.285714  0.571429  0.142857    0.00291545  19 t-inv F
 -0.857143 -0.285714 -0.428571    0.00291545  19 t-inv F
  0.857143  0.285714  0.428571    0.00291545  19 t-inv F
 -0.285714  0.142857  0.571429    0.00291545  19 t-inv F
  0.285714 -0.142857 -0.571429    0.00291545  19 t-inv F
 -0.428571 -0.857143 -0.285714    0.00291545  19 t-inv F
  0.428571  0.857143  0.285714    0.00291545  19 t-inv F
  0.285714 -0.428571 -0.142857    0.00291545  20 t-inv F
  0.142857 -0.285714  0.428571    0.00291545  20 t-inv F
 -0.142857  0.285714 -0.428571    0.00291545  20 t-inv F
  0.428571  0.142857 -0.285714    0.00291545  20 t-inv F
 -0.428571 -0.142857  0.285714    0.00291545  20 t-inv F
  0.285714 -0.142857 -0.428571    0.00291545  20 t-inv F
 -0.285714  0.142857  0.428571    0.00291545  20 t-inv F
 -0.428571  0.285714 -0.142857    0.00291545  20 t-inv F
  0.428571 -0.285714  0.142857    0.00291545  20 t-inv F
 -0.142857 -0.428571  0.285714    0.00291545  20 t-inv F
  0.142857  0.428571 -0.285714    0.00291545  20 t-inv F
  0.428571  0.285714  0.714286    0.00291545  20 t-inv F
 -0.428571 -0.285714 -0.714286    0.00291545  20 t-inv F
 -0.285714 -0.714286 -0.428571    0.00291545  20 t-inv F
  0.285714  0.714286  0.428571    0.00291545  20 t-inv F
 -0.714286 -0.285714 -0.428571    0.00291545  20 t-inv F
  0.714286  0.285714  0.428571    0.00291545  20 t-inv F
  0.428571  0.714286  0.285714    0.00291545  20 t-inv F
 -0.428571 -0.714286 -0.285714    0.00291545  20 t-inv F
  0.714286  0.428571  0.285714    0.00291545  20 t-inv F
 -0.714286 -0.428571 -0.285714    0.00291545  20 t-inv F
  0.285714  0.428571  0.714286    0.00291545  20 t-inv F
 -0.285714 -0.428571 -0.714286    0.00291545  20 t-inv F


--------------------------------------------------------------------------------------------------------




 Dimension of arrays:
   k-points           NKPTS =     20   k-points in BZ     NKDIM =    343   number of bands    NBANDS=     12
   number of dos      NEDOS =    301   number of ions     NIONS =      2
   non local maximal  LDIM  =      4   non local SUM 2l+1 LMDIM =      8
   total plane-waves  NPLWV =  46656
   max r-space proj   IRMAX =      1   max aug-charges    IRDMAX=  38875
   dimension x,y,z NGX =    36 NGY =   36 NGZ =   36
   dimension x,y,z NGXF=    72 NGYF=   72 NGZF=   72
   support grid    NGXF=    72 NGYF=   72 NGZF=   72
   ions per type =               2
   NGX,Y,Z   is equivalent  to a cutoff of  15.55, 15.55, 15.55 a.u.
   NGXF,Y,Z  is equivalent  to a cutoff of  31.10, 31.10, 31.10 a.u.

 SYSTEM =  unknown system                          
 POSCAR =  Si2                                     

 Startparameter for this run:
   NWRITE =      2    write-flag & timer
   PREC   = accura    normal or accurate (medium, high low for compatibility)
   ISTART =      0    job   : 0-new  1-cont  2-samecut
   ICHARG =      2    charge: 1-file 2-atom 10-const
   ISPIN  =      2    spin polarized calculation?
   LNONCOLLINEAR =      F non collinear calculations
   LSORBIT =      F    spin-orbit coupling
   INIWAV =      1    electr: 0-lowe 1-rand  2-diag
   LASPH  =      T    aspherical Exc in radial PAW
 Electronic Relaxation 1
   ENCUT  =  680.0 eV  49.98 Ry    7.07 a.u.   8.18  8.18  8.18*2*pi/ulx,y,z
   ENINI  =  680.0     initial cutoff
   ENAUG  = 1360.0 eV  augmentation charge cutoff
   NELM   =    200;   NELMIN=  2; NELMDL= -5     # of ELM steps 
   EDIFF  = 0.1E-04   stopping-criterion for ELM
   LREAL  =      F    real-space projection
   NLSPLINE    = F    spline interpolate recip. space projectors
   LCOMPAT=      F    compatible to vasp.4.4
   GGA_COMPAT  = T    GGA compatible to vasp.4.4-vasp.4.6
   LMAXPAW     = -100 max onsite density
   LMAXMIX     =    2 max onsite mixed and CHGCAR
   VOSKOWN=      0    Vosko Wilk Nusair interpolation
   ROPT   =    0.00000
 Ionic relaxation
   EDIFFG = 0.1E-03   stopping-criterion for IOM
   NSW    =      0    number of steps for IOM
   NBLOCK =      1;   KBLOCK =      1    inner block; outer block 
   IBRION =     -1    ionic relax: 0-MD 1-quasi-New 2-CG
   NFREE  =      0    steps in history (QN), initial steepest desc. (CG)
   ISIF   =      0    stress and relaxation
   IWAVPR =     10    prediction:  0-non 1-charg 2-wave 3-comb
   ISYM   =      3    0-nonsym 1-usesym 2-fastsym
   LCORR  =      T    Harris-Foulkes like correction to forces

   POTIM  = 0.5000    time-step for ionic-motion
   TEIN   =    0.0    initial temperature
   TEBEG  =    0.0;   TEEND  =   0.0 temperature during run
   SMASS  =  -3.00    Nose mass-parameter (am)
   estimated Nose-frequenzy (Omega)   =  0.10E-29 period in steps = 0.13E+47 mass=  -0.339E-27a.u.
   SCALEE = 1.0000    scale energy and forces
   NPACO  =    256;   APACO  = 10.0  distance and # of slots for P.C.
   PSTRESS=    0.0 pullay stress

  Mass of Ions in am
   POMASS =  28.09
  Ionic Valenz
   ZVAL   =   4.00
  Atomic Wigner-Seitz radii
   RWIGS  =  -1.00
  virtual crystal weights 
   VCA    =   1.00
   NELECT =       8.0000    total number of electrons
   NUPDOWN=      -1.0000    fix difference up-down

 DOS related values:
   EMIN   =  10.00;   EMAX   =-10.00  energy-range for DOS
   EFERMI =   0.00;   METHOD = LEGACY      
   ISMEAR =    -5;   SIGMA  =   0.20  broadening in eV -4-tet -1-fermi 0-gaus

 Electronic relaxation 2 (details)
   IALGO  =     38    algorithm
   LDIAG  =      T    sub-space diagonalisation (order eigenvalues)
   LSUBROT=      F    optimize rotation matrix (better conditioning)
   TURBO    =      0    0=normal 1=particle mesh
   IRESTART =      0    0=no restart 2=restart with 2 vectors
   NREBOOT  =      0    no. of reboots
   NMIN     =      0    reboot dimension
   EREF     =   0.00    reference energy to select bands
   IMIX   =      1    mixing-type and parameters
     AMIX     =   0.40;   BMIX     =  1.00
     AMIX_MAG =   1.60;   BMIX_MAG =  1.00
     AMIN     =   0.10
     WC   =   100.;   INIMIX=   1;  MIXPRE=   1;  MAXMIX= -45

 Intra band minimization:
   WEIMIN = 0.0000     energy-eigenvalue tresh-hold
   EBREAK =  0.21E-06  absolut break condition
   DEPER  =   0.30     relativ break condition  

   TIME   =   0.40     timestep for ELM

  volume/ion in A,a.u.               =      20.16       136.08
  Fermi-wavevector in a.u.,A,eV,Ry     =   0.954766  1.804247 12.402783  0.911579
  Thomas-Fermi vector in A             =   2.083543
 
 Write flags
   LWAVE        =      T    write WAVECAR
   LDOWNSAMPLE  =      F    k-point downsampling of WAVECAR
   LCHARG       =      T    write CHGCAR
   LVTOT        =      T    write LOCPOT, total local potential
   LVHAR        =      F    write LOCPOT, Hartree potential only
   LELF         =      F    write electronic localiz. function (ELF)
   LORBIT       =     11    0 simple, 1 ext, 2 COOP (PROOUT), +10 PAW based schemes


 Dipole corrections
   LMONO  =      F    monopole corrections only (constant potential shift)
   LDIPOL =      F    correct potential (dipole corrections)
   IDIPOL =      0    1-x, 2-y, 3-z, 4-all directions 
   EPSILON=  1.0000000 bulk dielectric constant

 Exchange correlation treatment:
   GGA     =    PE    GGA type
   LEXCH   =     8    internal setting for exchange type
   LIBXC   =     F    Libxc                    
   VOSKOWN =     0    Vosko Wilk Nusair interpolation
   EXXOEP  =     0    0=HF, 1=EXX-LHF (local Hartree Fock) 2=EXX OEP
   LHFCALC =     T    Hartree Fock is set to
   LSYMGRAD=     F    symmetrize gradient (conserves proper symmetry)
   PRECFOCK=fast      Normal, Fast or Accurate (Low or Medium for compatibility)
   LRHFCALC=     F    long range Hartree Fock
   LRSCOR  =     F    long range correlation only (use DFT for short range part)
   LTHOMAS =     F    Thomas Fermi screening in HF
   LMODELHF=     F    short range full HF, long range fraction AEXX
   FOCKCORR=     1    mode to apply convergence corrections
   LFOCKACE=     T    use Adeptively-Compressed-Exchange operator
   ENCUT4O =  -1.0   cutoff for four orbital integrals eV
   LMAXFOCK=     4    L truncation for augmentation on plane wave grid
   LMAXFOCKAE=  -1    L truncation for all-electron charge restoration on plane wave grid
   NMAXFOCKAE=   1    number of basis functions for all-electron charge restoration
   LFOCKAEDFT=     F  apply the AE augmentation even for DFT
   NKREDX  =     1    reduce k-point grid by
   NKREDY  =     1    reduce k-point grid by
   NKREDZ  =     1    reduce k-point grid by
   SHIFTRED=     F    shift reduced grid of Gamma
   HFKIDENT=     F    idential grid for each k-point
   ODDONLY =     F    use only odd q-grid points
   EVENONLY=     F    use only even q-grid points
   HFALPHA =   -1.0000 decay constant for conv. correction
   MCALPHA =    0.0000 extent of test-charge in conv. correction in multipole expansion
   AEXX    =    0.2500 exact exchange contribution
   HFSCREEN=    0.2000 screening length (either q_TF or 0.3 A-1)
   HFSCREENC=   0.2000 screening length for correlation (either q_TF or 0.3 A-1)
   HFRCUT  =    0.0000 spherical cutoff for potential kernel
   ALDAX   =    0.7500 LDA exchange part
   AGGAX   =    0.7500 GGA exchange part
   ALDAC   =    1.0000 LDA correlation
   AGGAC   =    1.0000 GGA correlation
   ENCUTFOCK=  -1.0 apply spherical cutoff to Coloumb kernel
   NBANDSGWLOW=     1    first orbital included in HF term
   NBLOCK_FOCK=    64    blocking factor in FOCK_ACC

 Linear response parameters
   LEPSILON=     F    determine dielectric tensor
   LRPA    =     F    only Hartree local field effects (RPA)
   LNABLA  =     F    use nabla operator in PAW spheres
   LVEL    =     F    velocity operator in full k-point grid
   CSHIFT  =0.1000    complex shift for real part using Kramers Kronig
   OMEGAMAX=  -1.0    maximum frequency
   DEG_THRESHOLD= 0.2000000E-02 threshold for treating states as degnerate
   RTIME   =   -0.100 relaxation time in fs
  (WPLASMAI=    0.000 imaginary part of plasma frequency in eV, 0.658/RTIME)
   DFIELD  = 0.0000000 0.0000000 0.0000000 field for delta impulse in time
 
  Optional k-point grid parameters
   LKPOINTS_OPT  =     F    use optional k-point grid
   KPOINTS_OPT_MODE=     1    mode for optional k-point grid
 
 Orbital magnetization related:
   ORBITALMAG=     F  switch on orbital magnetization
   LCHIMAG   =     F  perturbation theory with respect to B field
   DQ        =  0.001000  dq finite difference perturbation B field
   LLRAUG    =     F  two centre corrections for induced B field
   LBONE     =     F  B-component reconstruction in AE one-centre
   LVGVCALC  =     T  calculate vGv susceptibility
   LVGVAPPL  =     F  apply vGv susceptibility instead of pGv for G=0

 Random number generation:
   RANDOM_GENERATOR = DEFAULT
   PCG_SEED         = not used


--------------------------------------------------------------------------------------------------------


 Static calculation
 charge density and potential will be updated during run
 spin polarized calculation
 Variant of blocked Davidson
 Davidson routine will perform the subspace rotation
 perform sub-space diagonalisation
    after iterative eigenvector-optimisation
 Kerker-like  mixing scheme
 using additional bands            8
 reciprocal scheme for non local part
 use partial core corrections
 calculate Harris-corrections to forces 
   (improved forces if not selfconsistent)
 use gradient corrections 
 use of overlap-Matrix (Vanderbilt PP)
 Fermi weights with tetrahedron method with Bloechl corrections


--------------------------------------------------------------------------------------------------------


  energy-cutoff  :      680.00
  volume of cell :       40.33
      direct lattice vectors                 reciprocal lattice vectors
     3.333572997  0.000000000  1.924638998     0.299978432 -0.106058350  0.000000000
     1.111190999  3.142923999  1.924638999     0.000000000  0.318175050  0.000000000
     0.000000000  0.000000000  3.849278000    -0.149989216 -0.106058350  0.259788979

  length of vectors
     3.849278400  3.849279410  3.849278000     0.318175161  0.318175050  0.318175190


 
 k-points in units of 2pi/SCALE and weight: pymatgen with grid density = 787 / numbe
   0.00000000  0.00000000  0.00000000       0.003
   0.04285406 -0.01515119  0.00000000       0.023
   0.08570812 -0.03030239  0.00000000       0.023
   0.12856219 -0.04545358  0.00000000       0.023
   0.04285406  0.03030239  0.00000000       0.017
   0.08570812  0.01515119  0.00000000       0.070
   0.12856219 -0.00000000  0.00000000       0.070
  -0.12856219  0.09090716  0.00000000       0.070
  -0.08570812  0.07575596  0.00000000       0.070
  -0.04285406  0.06060477  0.00000000       0.035
   0.08570812  0.06060477  0.00000000       0.017
   0.12856219  0.04545358  0.00000000       0.070
  -0.12856219  0.13636074  0.00000000       0.070
  -0.08570812  0.12120954  0.00000000       0.035
   0.12856219  0.09090716  0.00000000       0.017
  -0.12856219  0.18181431  0.00000000       0.035
   0.10713515  0.03030239  0.03711271       0.070
  -0.14998922  0.12120954  0.03711271       0.140
  -0.14998922  0.16666312  0.03711271       0.070
  -0.10713515  0.15151193  0.03711271       0.070
 
 k-points in reciprocal lattice and weights: pymatgen with grid density = 787 / numbe
   0.00000000  0.00000000  0.00000000       0.003
   0.14285714 -0.00000000  0.00000000       0.023
   0.28571429 -0.00000000  0.00000000       0.023
   0.42857143 -0.00000000  0.00000000       0.023
   0.14285714  0.14285714  0.00000000       0.017
   0.28571429  0.14285714  0.00000000       0.070
   0.42857143  0.14285714  0.00000000       0.070
  -0.42857143  0.14285714  0.00000000       0.070
  -0.28571429  0.14285714  0.00000000       0.070
  -0.14285714  0.14285714  0.00000000       0.035
   0.28571429  0.28571429  0.00000000       0.017
   0.42857143  0.28571429  0.00000000       0.070
  -0.42857143  0.28571429  0.00000000       0.070
  -0.28571429  0.28571429  0.00000000       0.035
   0.42857143  0.42857143  0.00000000       0.017
  -0.42857143  0.42857143  0.00000000       0.035
   0.42857143  0.28571429  0.14285714       0.070
  -0.42857143  0.28571429  0.14285714       0.140
  -0.42857143  0.42857143  0.14285714       0.070
  -0.28571429  0.42857143  0.14285714       0.070
 
 position of ions in fractional coordinates (direct lattice) 
   0.87500000  0.87500000  0.87500000
   0.12500000  0.12500000  0.12500000
 
 position of ions in cartesian coordinates  (Angst):
   3.88916850  2.75005850  6.73623650
   0.55559550  0.39286550  0.96231950
 


--------------------------------------------------------------------------------------------------------


 k-point   1 :   0.0000 0.0000 0.0000  plane waves:    1639
 k-point   2 :   0.1429-0.0000 0.0000  plane waves:    1618
 k-point   3 :   0.2857-0.0000 0.0000  plane waves:    1633
 k-point   4 :   0.4286-0.0000 0.0000  plane waves:    1616
 k-point   5 :   0.1429 0.1429 0.0000  plane waves:    1623
 k-point   6 :   0.2857 0.1429 0.0000  plane waves:    1626
 k-point   7 :   0.4286 0.1429 0.0000  plane waves:    1623
 k-point   8 :  -0.4286 0.1429 0.0000  plane waves:    1626
 k-point   9 :  -0.2857 0.1429 0.0000  plane waves:    1629
 k-point  10 :  -0.1429 0.1429 0.0000  plane waves:    1618
 k-point  11 :   0.2857 0.2857 0.0000  plane waves:    1620
 k-point  12 :   0.4286 0.2857 0.0000  plane waves:    1626
 k-point  13 :  -0.4286 0.2857 0.0000  plane waves:    1623
 k-point  14 :  -0.2857 0.2857 0.0000  plane waves:    1622
 k-point  15 :   0.4286 0.4286 0.0000  plane waves:    1628
 k-point  16 :  -0.4286 0.4286 0.0000  plane waves:    1628
 k-point  17 :   0.4286 0.2857 0.1429  plane waves:    1615
 k-point  18 :  -0.4286 0.2857 0.1429  plane waves:    1624
 k-point  19 :  -0.4286 0.4286 0.1429  plane waves:    1641
 k-point  20 :  -0.2857 0.4286 0.1429  plane waves:    1626

 maximum and minimum number of plane-waves per node :       174      151

 maximum number of plane-waves:      1641
 maximum index in each direction: 
   IXMAX=    8   IYMAX=    8   IZMAX=    8
   IXMIN=   -8   IYMIN=   -8   IZMIN=   -8


 parallel 3D FFT for wavefunctions:
    minimum data exchange during FFTs selected (reduces bandwidth)
 parallel 3D FFT for charge:
    minimum data exchange during FFTs selected (reduces bandwidth)


 FFT grid for exact exchange (Hartree Fock) 
  NGX = 20; NGY = 20; NGZ = 20

 
 Radii for the augmentation spheres in the non-local exchange
 for species   1 augmentation radius   1.335 (default was   0.989)
       energy cutoff for augmentation   2720.0

 real space projection operators:
  total allocation   :        270.84 KBytes
  max/ min on nodes  :         27.91         26.23

 Maximum index for augmentation-charges in exchange          193
  SETUP_FOCK is finished

 total amount of memory used by VASP MPI-rank0    31709. kBytes
=======================================================================

   base      :      30000. kBytes
   nonl-proj :        267. kBytes
   fftplans  :        394. kBytes
   grid      :        800. kBytes
   one-center:          6. kBytes
   HF        :          4. kBytes
   nonlr-proj:        100. kBytes
   wavefun   :        138. kBytes
 
     INWAV:  cpu time      0.0001: real time      0.0007
 initial charge density was supplied:
 charge density of overlapping atoms calculated
 number of electron       8.0000000 magnetization       1.2000000
 keeping initial charge density in first step


--------------------------------------------------------------------------------------------------------


 Maximum index for augmentation-charges         1039 (set IRDMAX)


--------------------------------------------------------------------------------------------------------


 First call to EWALD:  gamma=   0.517
 Maximum number of real-space cells 3x 3x 3
 Maximum number of reciprocal cells 3x 3x 3

    FEWALD:  cpu time      0.0022: real time      0.0025


--------------------------------------- Ionic step        1  -------------------------------------------




--------------------------------------- Iteration      1(   1)  ---------------------------------------


    POTLOK:  cpu time      0.0224: real time      0.0254
    SETDIJ:  cpu time      0.1599: real time      0.1607
     EDDAV:  cpu time      0.1010: real time      0.1021
 BZINTS: Fermi energy:    8.684945;    8.000000 electrons
         Band energy: 0.130912E+02;  BLOECHL correction:   -0.100373
       DOS:  cpu time      0.0053: real time      0.0057
    --------------------------------------------
      LOOP:  cpu time      0.2886: real time      0.2939

 eigenvalue-minimisations  :   960
 total energy-change (2. order) :-0.2526306E+03  (-0.3688572E+03)
 number of electron       8.0000000 magnetization       1.2000000
 augmentation part        8.0000000 magnetization       1.2000000

 Free energy of the ion-electron system (eV)
  ---------------------------------------------------
  alpha Z        PSCENC =         3.33880742
  Ewald energy   TEWEN  =      -227.98820653
  -Hartree energ DENC   =       -11.11484529
  -exchange      EXHF   =         0.00000000
  -V(xc)+E(xc)   XCENC  =       -18.55253271
  PAW double counting   =       176.18363791     -391.58776073
  entropy T*S    EENTRO =         0.00000000
  eigenvalues    EBANDS =        13.09124960
  atomic energy  EATOM  =       203.99906502
  Solvation  Ediel_sol  =         0.00000000
  ---------------------------------------------------
  free energy    TOTEN  =      -252.63058531 eV

  energy without entropy =     -252.63058531  energy(sigma->0) =     -252.63058531
  exchange ACFDT corr.  =         0.00000000  see jH, gK, PRB 81, 115126


--------------------------------------------------------------------------------------------------------




--------------------------------------- Iteration      1(   2)  ---------------------------------------


     EDDAV:  cpu time      0.1304: real time      0.1326
 BZINTS: Fermi energy:    5.133758;    8.000000 electrons
         Band energy:-0.143318E+01;  BLOECHL correction:    0.000000
       DOS:  cpu time      0.0011: real time      0.0011
    --------------------------------------------
      LOOP:  cpu time      0.1315: real time      0.1337

 eigenvalue-minimisations  :  1320
 total energy-change (2. order) :-0.1452443E+02  (-0.1447444E+02)
 number of electron       8.0000000 magnetization       1.2000000
 augmentation part        8.0000000 magnetization       1.2000000

 Free energy of the ion-electron system (eV)
  ---------------------------------------------------
  alpha Z        PSCENC =         3.33880742
  Ewald energy   TEWEN  =      -227.98820653
  -Hartree energ DENC   =       -11.11484529
  -exchange      EXHF   =         0.00000000
  -V(xc)+E(xc)   XCENC  =       -18.55253271
  PAW double counting   =       176.18363791     -391.58776073
  entropy T*S    EENTRO =         0.00000000
  eigenvalues    EBANDS =        -1.43317929
  atomic energy  EATOM  =       203.99906502
  Solvation  Ediel_sol  =         0.00000000
  ---------------------------------------------------
  free energy    TOTEN  =      -267.15501420 eV

  energy without entropy =     -267.15501420  energy(sigma->0) =     -267.15501420
  exchange ACFDT corr.  =         0.00000000  see jH, gK, PRB 81, 115126


--------------------------------------------------------------------------------------------------------




--------------------------------------- Iteration      1(   3)  ---------------------------------------


     EDDAV:  cpu time      0.1043: real time      0.1220
 BZINTS: Fermi energy:    5.108980;    8.000000 electrons
         Band energy:-0.157459E+01;  BLOECHL correction:    0.000000
       DOS:  cpu time      0.0011: real time      0.0011
    --------------------------------------------
      LOOP:  cpu time      0.1054: real time      0.1231

 eigenvalue-minimisations  :  1284
 total energy-change (2. order) :-0.1414089E+00  (-0.1414127E+00)
 number of electron       8.0000000 magnetization       1.2000000
 augmentation part        8.0000000 magnetization       1.2000000

 Free energy of the ion-electron system (eV)
  ---------------------------------------------------
  alpha Z        PSCENC =         3.33880742
  Ewald energy   TEWEN  =      -227.98820653
  -Hartree energ DENC   =       -11.11484529
  -exchange      EXHF   =         0.00000000
  -V(xc)+E(xc)   XCENC  =       -18.55253271
  PAW double counting   =       176.18363791     -391.58776073
  entropy T*S    EENTRO =         0.00000000
  eigenvalues    EBANDS =        -1.57458822
  atomic energy  EATOM  =       203.99906502
  Solvation  Ediel_sol  =         0.00000000
  ---------------------------------------------------
  free energy    TOTEN  =      -267.29642313 eV

  energy without entropy =     -267.29642313  energy(sigma->0) =     -267.29642313
  exchange ACFDT corr.  =         0.00000000  see jH, gK, PRB 81, 115126


--------------------------------------------------------------------------------------------------------




--------------------------------------- Iteration      1(   4)  ---------------------------------------


     EDDAV:  cpu time      0.1287: real time      0.1462
 BZINTS: Fermi energy:    5.087088;    8.000000 electrons
         Band energy:-0.157498E+01;  BLOECHL correction:    0.000000
       DOS:  cpu time      0.0011: real time      0.0011
    --------------------------------------------
      LOOP:  cpu time      0.1298: real time      0.1473

 eigenvalue-minimisations  :  1536
 total energy-change (2. order) :-0.3960306E-03  (-0.3962037E-03)
 number of electron       8.0000000 magnetization       1.2000000
 augmentation part        8.0000000 magnetization       1.2000000

 Free energy of the ion-electron system (eV)
  ---------------------------------------------------
  alpha Z        PSCENC =         3.33880742
  Ewald energy   TEWEN  =      -227.98820653
  -Hartree energ DENC   =       -11.11484529
  -exchange      EXHF   =         0.00000000
  -V(xc)+E(xc)   XCENC  =       -18.55253271
  PAW double counting   =       176.18363791     -391.58776073
  entropy T*S    EENTRO =         0.00000000
  eigenvalues    EBANDS =        -1.57498425
  atomic energy  EATOM  =       203.99906502
  Solvation  Ediel_sol  =         0.00000000
  ---------------------------------------------------
  free energy    TOTEN  =      -267.29681916 eV

  energy without entropy =     -267.29681916  energy(sigma->0) =     -267.29681916
  exchange ACFDT corr.  =         0.00000000  see jH, gK, PRB 81, 115126


--------------------------------------------------------------------------------------------------------




--------------------------------------- Iteration      1(   5)  ---------------------------------------


    POTLOK:  cpu time      0.0188: real time      0.0373
    SETDIJ:  cpu time      0.3751: real time      0.3760
     EDDAV:  cpu time     13.8740: real time     13.9106
 BZINTS: Fermi energy:    4.943448;    8.000000 electrons
         Band energy:-0.548239E+01;  BLOECHL correction:    0.000000
       DOS:  cpu time      0.0011: real time      0.0014
    CHARGE:  cpu time      0.0607: real time      0.0609
    MIXING:  cpu time      0.0011: real time      0.0011
    --------------------------------------------
      LOOP:  cpu time     14.3308: real time     14.3873

 eigenvalue-minimisations  :  1092
 total energy-change (2. order) : 0.2544778E+03  (-0.2090910E+00)
 number of electron       8.0000000 magnetization      -0.7200000
 augmentation part       -0.4486559 magnetization      -0.7177970

 Free energy of the ion-electron system (eV)
  ---------------------------------------------------
  alpha Z        PSCENC =         3.33880742
  Ewald energy   TEWEN  =      -227.98820653
  -Hartree energ DENC   =       -11.11484529
  -exchange      EXHF   =        11.44863532
  -V(xc)+E(xc)   XCENC  =       -14.85505547
  PAW double counting   =       171.60291941     -143.76794775
  entropy T*S    EENTRO =         0.00000000
  eigenvalues    EBANDS =        -5.48238521
  atomic energy  EATOM  =       203.99906502
  Solvation  Ediel_sol  =         0.00000000
  ---------------------------------------------------
  free energy    TOTEN  =       -12.81901309 eV

  energy without entropy =      -12.81901309  energy(sigma->0) =      -12.81901309
  exchange ACFDT corr.  =         0.00000000  see jH, gK, PRB 81, 115126


--------------------------------------------------------------------------------------------------------




--------------------------------------- Iteration      1(   6)  ---------------------------------------


    POTLOK:  cpu time      0.0216: real time      0.0347
    SETDIJ:  cpu time      0.3743: real time      0.3754
     EDDAV:  cpu time     14.7073: real time     14.7443
 BZINTS: Fermi energy:    5.148711;    8.000000 electrons
         Band energy:-0.374594E+01;  BLOECHL correction:    0.000000
       DOS:  cpu time      0.0012: real time      0.0014
    CHARGE:  cpu time      0.0564: real time      0.0565
    MIXING:  cpu time      0.0002: real time      0.0002
    --------------------------------------------
      LOOP:  cpu time     15.1610: real time     15.2125

 eigenvalue-minimisations  :  1332
 total energy-change (2. order) : 0.1761602E+00  (-0.1941021E-01)
 number of electron       8.0000000 magnetization       0.4320000
 augmentation part       -0.4389637 magnetization       0.4303554

 Free energy of the ion-electron system (eV)
  ---------------------------------------------------
  alpha Z        PSCENC =         3.33880742
  Ewald energy   TEWEN  =      -227.98820653
  -Hartree energ DENC   =       -12.78917058
  -exchange      EXHF   =        11.49706472
  -V(xc)+E(xc)   XCENC  =       -14.68443305
  PAW double counting   =       564.77954640     -537.04959080
  entropy T*S    EENTRO =         0.00000000
  eigenvalues    EBANDS =        -3.74593547
  atomic energy  EATOM  =       203.99906502
  Solvation  Ediel_sol  =         0.00000000
  ---------------------------------------------------
  free energy    TOTEN  =       -12.64285288 eV

  energy without entropy =      -12.64285288  energy(sigma->0) =      -12.64285288
  exchange ACFDT corr.  =         0.00000000  see jH, gK, PRB 81, 115126


--------------------------------------------------------------------------------------------------------




--------------------------------------- Iteration      1(   7)  ---------------------------------------


    POTLOK:  cpu time      0.0276: real time      0.0419
    SETDIJ:  cpu time      0.3723: real time      0.3733
     EDDAV:  cpu time     13.8259: real time     13.8609
 BZINTS: Fermi energy:    5.254463;    8.000000 electrons
         Band energy:-0.264387E+01;  BLOECHL correction:    0.000000
       DOS:  cpu time      0.0012: real time      0.0013
    CHARGE:  cpu time      0.0558: real time      0.0559
    MIXING:  cpu time      0.0001: real time      0.0001
    --------------------------------------------
      LOOP:  cpu time     14.2829: real time     14.3334

 eigenvalue-minimisations  :  1212
 total energy-change (2. order) : 0.5479956E-01  (-0.1192878E-01)
 number of electron       8.0000000 magnetization      -0.2592000
 augmentation part       -0.4356105 magnetization      -0.2583207

 Free energy of the ion-electron system (eV)
  ---------------------------------------------------
  alpha Z        PSCENC =         3.33880742
  Ewald energy   TEWEN  =      -227.98820653
  -Hartree energ DENC   =       -13.82353983
  -exchange      EXHF   =        11.41496348
  -V(xc)+E(xc)   XCENC  =       -14.56580499
  PAW double counting   =       957.99607702     -930.31554537
  entropy T*S    EENTRO =         0.00000000
  eigenvalues    EBANDS =        -2.64386954
  atomic energy  EATOM  =       203.99906502
  Solvation  Ediel_sol  =         0.00000000
  ---------------------------------------------------
  free energy    TOTEN  =       -12.58805332 eV

  energy without entropy =      -12.58805332  energy(sigma->0) =      -12.58805332
  exchange ACFDT corr.  =         0.00000000  see jH, gK, PRB 81, 115126


--------------------------------------------------------------------------------------------------------




--------------------------------------- Iteration      1(   8)  ---------------------------------------


    POTLOK:  cpu time      0.0192: real time      0.0346
    SETDIJ:  cpu time      0.3736: real time      0.3744
     EDDAV:  cpu time     13.9065: real time     13.9417
 BZINTS: Fermi energy:    5.311136;    8.000000 electrons
         Band energy:-0.204160E+01;  BLOECHL correction:    0.000000
       DOS:  cpu time      0.0012: real time      0.0012
    CHARGE:  cpu time      0.0556: real time      0.0558
    MIXING:  cpu time      0.0001: real time      0.0001
    --------------------------------------------
      LOOP:  cpu time     14.3562: real time     14.4077

 eigenvalue-minimisations  :  1152
 total energy-change (2. order) : 0.9369946E-02  (-0.4287761E-02)
 number of electron       8.0000000 magnetization       0.1555200
 augmentation part       -0.4343433 magnetization       0.1548724

 Free energy of the ion-electron system (eV)
  ---------------------------------------------------
  alpha Z        PSCENC =         3.33880742
  Ewald energy   TEWEN  =      -227.98820653
  -Hartree energ DENC   =       -14.39795175
  -exchange      EXHF   =        11.34798679
  -V(xc)+E(xc)   XCENC  =       -14.49439227
  PAW double counting   =      1243.62372088    -1215.96611025
  entropy T*S    EENTRO =         0.00000000
  eigenvalues    EBANDS =        -2.04160268
  atomic energy  EATOM  =       203.99906502
  Solvation  Ediel_sol  =         0.00000000
  ---------------------------------------------------
  free energy    TOTEN  =       -12.57868337 eV

  energy without entropy =      -12.57868337  energy(sigma->0) =      -12.57868337
  exchange ACFDT corr.  =         0.00000000  see jH, gK, PRB 81, 115126


--------------------------------------------------------------------------------------------------------




--------------------------------------- Iteration      1(   9)  ---------------------------------------


    POTLOK:  cpu time      0.0172: real time      0.0358
    SETDIJ:  cpu time      0.3719: real time      0.3730
     EDDAV:  cpu time     14.7605: real time     14.7977
 BZINTS: Fermi energy:    5.450874;    8.000000 electrons
         Band energy:-0.172850E+01;  BLOECHL correction:    0.000000
       DOS:  cpu time      0.0012: real time      0.0013
    CHARGE:  cpu time      0.0560: real time      0.0562
    MIXING:  cpu time      0.0001: real time      0.0001
    --------------------------------------------
      LOOP:  cpu time     15.2070: real time     15.2641

 eigenvalue-minimisations  :  1128
 total energy-change (2. order) : 0.5520719E-03  (-0.1412679E-02)
 number of electron       8.0000000 magnetization      -0.0933120
 augmentation part       -0.4339522 magnetization      -0.0929032

 Free energy of the ion-electron system (eV)
  ---------------------------------------------------
  alpha Z        PSCENC =         3.33880742
  Ewald energy   TEWEN  =      -227.98820653
  -Hartree energ DENC   =       -14.70322546
  -exchange      EXHF   =        11.30983148
  -V(xc)+E(xc)   XCENC  =       -14.45333369
  PAW double counting   =      1426.29702650    -1398.64959116
  entropy T*S    EENTRO =         0.00000000
  eigenvalues    EBANDS =        -1.72850488
  atomic energy  EATOM  =       203.99906502
  Solvation  Ediel_sol  =         0.00000000
  ---------------------------------------------------
  free energy    TOTEN  =       -12.57813130 eV

  energy without entropy =      -12.57813130  energy(sigma->0) =      -12.57813130
  exchange ACFDT corr.  =         0.00000000  see jH, gK, PRB 81, 115126


--------------------------------------------------------------------------------------------------------




--------------------------------------- Iteration      1(  10)  ---------------------------------------


    POTLOK:  cpu time      0.0197: real time      0.0728
    SETDIJ:  cpu time      0.3734: real time      0.3743
     EDDAV:  cpu time     13.7908: real time     13.8256
 BZINTS: Fermi energy:    5.466361;    8.000000 electrons
         Band energy:-0.156672E+01;  BLOECHL correction:    0.000000
       DOS:  cpu time      0.0012: real time      0.0012
    CHARGE:  cpu time      0.0555: real time      0.0556
    MIXING:  cpu time      0.0001: real time      0.0001
    --------------------------------------------
      LOOP:  cpu time     14.2407: real time     14.3296

 eigenvalue-minimisations  :  1128
 total energy-change (2. order) :-0.4715778E-03  (-0.4302970E-03)
 number of electron       8.0000000 magnetization       0.0559872
 augmentation part       -0.4338936 magnetization       0.0557318

 Free energy of the ion-electron system (eV)
  ---------------------------------------------------
  alpha Z        PSCENC =         3.33880742
  Ewald energy   TEWEN  =      -227.98820653
  -Hartree energ DENC   =       -14.86520641
  -exchange      EXHF   =        11.29062667
  -V(xc)+E(xc)   XCENC  =       -14.42986875
  PAW double counting   =      1535.29618254    -1507.65328103
  entropy T*S    EENTRO =         0.00000000
  eigenvalues    EBANDS =        -1.56672181
  atomic energy  EATOM  =       203.99906502
  Solvation  Ediel_sol  =         0.00000000
  ---------------------------------------------------
  free energy    TOTEN  =       -12.57860288 eV

  energy without entropy =      -12.57860288  energy(sigma->0) =      -12.57860288
  exchange ACFDT corr.  =         0.00000000  see jH, gK, PRB 81, 115126


--------------------------------------------------------------------------------------------------------




--------------------------------------- Iteration      1(  11)  ---------------------------------------


    POTLOK:  cpu time      0.0180: real time      0.0364
    SETDIJ:  cpu time      0.3748: real time      0.3757
     EDDAV:  cpu time     13.9462: real time     13.9814
 BZINTS: Fermi energy:    5.474802;    8.000000 electrons
         Band energy:-0.148162E+01;  BLOECHL correction:    0.000000
       DOS:  cpu time      0.0012: real time      0.0012
    CHARGE:  cpu time      0.0706: real time      0.0707
    MIXING:  cpu time      0.0001: real time      0.0001
    --------------------------------------------
      LOOP:  cpu time     14.4109: real time     14.4655

 eigenvalue-minimisations  :  1128
 total energy-change (2. order) :-0.3584909E-03  (-0.1373233E-03)
 number of electron       8.0000000 magnetization      -0.0335923
 augmentation part       -0.4339351 magnetization      -0.0334385

 Free energy of the ion-electron system (eV)
  ---------------------------------------------------
  alpha Z        PSCENC =         3.33880742
  Ewald energy   TEWEN  =      -227.98820653
  -Hartree energ DENC   =       -14.95294265
  -exchange      EXHF   =        11.28147306
  -V(xc)+E(xc)   XCENC  =       -14.41635906
  PAW double counting   =      1597.60763322    -1569.96680956
  entropy T*S    EENTRO =         0.00000000
  eigenvalues    EBANDS =        -1.48162228
  atomic energy  EATOM  =       203.99906502
  Solvation  Ediel_sol  =         0.00000000
  ---------------------------------------------------
  free energy    TOTEN  =       -12.57896137 eV

  energy without entropy =      -12.57896137  energy(sigma->0) =      -12.57896137
  exchange ACFDT corr.  =         0.00000000  see jH, gK, PRB 81, 115126


--------------------------------------------------------------------------------------------------------




--------------------------------------- Iteration      1(  12)  ---------------------------------------


    POTLOK:  cpu time      0.0217: real time      0.0392
    SETDIJ:  cpu time      0.3811: real time      0.3822
     EDDAV:  cpu time     14.3456: real time     14.3818
 BZINTS: Fermi energy:    5.479605;    8.000000 electrons
         Band energy:-0.143539E+01;  BLOECHL correction:    0.000000
       DOS:  cpu time      0.0012: real time      0.0013
    CHARGE:  cpu time      0.0564: real time      0.0566
    MIXING:  cpu time      0.0002: real time      0.0002
    --------------------------------------------
      LOOP:  cpu time     14.8063: real time     14.8613

 eigenvalue-minimisations  :  1176
 total energy-change (2. order) :-0.1900711E-03  (-0.4570775E-04)
 number of electron       8.0000000 magnetization       0.0201554
 augmentation part       -0.4340002 magnetization       0.0200627

 Free energy of the ion-electron system (eV)
  ---------------------------------------------------
  alpha Z        PSCENC =         3.33880742
  Ewald energy   TEWEN  =      -227.98820653
  -Hartree energ DENC   =       -15.00199458
  -exchange      EXHF   =        11.27720408
  -V(xc)+E(xc)   XCENC  =       -14.40846369
  PAW double counting   =      1632.32040151    -1604.68057043
  entropy T*S    EENTRO =         0.00000000
  eigenvalues    EBANDS =        -1.43539423
  atomic energy  EATOM  =       203.99906502
  Solvation  Ediel_sol  =         0.00000000
  ---------------------------------------------------
  free energy    TOTEN  =       -12.57915144 eV

  energy without entropy =      -12.57915144  energy(sigma->0) =      -12.57915144
  exchange ACFDT corr.  =         0.00000000  see jH, gK, PRB 81, 115126


--------------------------------------------------------------------------------------------------------




--------------------------------------- Iteration      1(  13)  ---------------------------------------


    POTLOK:  cpu time      0.0196: real time      0.0379
    SETDIJ:  cpu time      0.3739: real time      0.3750
     EDDAV:  cpu time     13.8027: real time     13.8373
 BZINTS: Fermi energy:    5.482446;    8.000000 electrons
         Band energy:-0.140925E+01;  BLOECHL correction:    0.000000
       DOS:  cpu time      0.0012: real time      0.0012
    CHARGE:  cpu time      0.0556: real time      0.0557
    MIXING:  cpu time      0.0001: real time      0.0001
    --------------------------------------------
      LOOP:  cpu time     14.2530: real time     14.3071

 eigenvalue-minimisations  :  1212
 total energy-change (2. order) :-0.9260500E-04  (-0.1610942E-04)
 number of electron       8.0000000 magnetization      -0.0120932
 augmentation part       -0.4340593 magnetization      -0.0120345

 Free energy of the ion-electron system (eV)
  ---------------------------------------------------
  alpha Z        PSCENC =         3.33880742
  Ewald energy   TEWEN  =      -227.98820653
  -Hartree energ DENC   =       -15.03042123
  -exchange      EXHF   =        11.27522879
  -V(xc)+E(xc)   XCENC  =       -14.40378400
  PAW double counting   =      1651.11759547    -1623.47827809
  entropy T*S    EENTRO =         0.00000000
  eigenvalues    EBANDS =        -1.40925091
  atomic energy  EATOM  =       203.99906502
  Solvation  Ediel_sol  =         0.00000000
  ---------------------------------------------------
  free energy    TOTEN  =       -12.57924404 eV

  energy without entropy =      -12.57924404  energy(sigma->0) =      -12.57924404
  exchange ACFDT corr.  =         0.00000000  see jH, gK, PRB 81, 115126


--------------------------------------------------------------------------------------------------------




--------------------------------------- Iteration      1(  14)  ---------------------------------------


    POTLOK:  cpu time      0.0171: real time      0.0348
    SETDIJ:  cpu time      0.3739: real time      0.3750
     EDDAV:  cpu time     14.6400: real time     14.6769
 BZINTS: Fermi energy:    5.484201;    8.000000 electrons
         Band energy:-0.139384E+01;  BLOECHL correction:    0.000000
       DOS:  cpu time      0.0012: real time      0.0012
    CHARGE:  cpu time      0.0609: real time      0.0612
    MIXING:  cpu time      0.0001: real time      0.0001
    --------------------------------------------
      LOOP:  cpu time     15.0933: real time     15.1491

 eigenvalue-minimisations  :  1200
 total energy-change (2. order) :-0.4345032E-04  (-0.5852106E-05)
 number of electron       8.0000000 magnetization       0.0072559
 augmentation part       -0.4340996 magnetization       0.0072216

 Free energy of the ion-electron system (eV)
  ---------------------------------------------------
  alpha Z        PSCENC =         3.33880742
  Ewald energy   TEWEN  =      -227.98820653
  -Hartree energ DENC   =       -15.04748061
  -exchange      EXHF   =        11.27431574
  -V(xc)+E(xc)   XCENC  =       -14.40097222
  PAW double counting   =      1660.94853639    -1633.30951682
  entropy T*S    EENTRO =         0.00000000
  eigenvalues    EBANDS =        -1.39383588
  atomic energy  EATOM  =       203.99906502
  Solvation  Ediel_sol  =         0.00000000
  ---------------------------------------------------
  free energy    TOTEN  =       -12.57928749 eV

  energy without entropy =      -12.57928749  energy(sigma->0) =      -12.57928749
  exchange ACFDT corr.  =         0.00000000  see jH, gK, PRB 81, 115126


--------------------------------------------------------------------------------------------------------




--------------------------------------- Iteration      1(  15)  ---------------------------------------


    POTLOK:  cpu time      0.0207: real time      0.0373
    SETDIJ:  cpu time      0.3725: real time      0.3734
     EDDAV:  cpu time     13.8147: real time     13.8496
 BZINTS: Fermi energy:    5.485317;    8.000000 electrons
         Band energy:-0.138442E+01;  BLOECHL correction:    0.000000
       DOS:  cpu time      0.0012: real time      0.0012
    CHARGE:  cpu time      0.0557: real time      0.0559
    MIXING:  cpu time      0.0001: real time      0.0001
    --------------------------------------------
      LOOP:  cpu time     14.2650: real time     14.3175

 eigenvalue-minimisations  :  1200
 total energy-change (2. order) :-0.2017667E-04  (-0.2207973E-05)
 number of electron       8.0000000 magnetization      -0.0043536
 augmentation part       -0.4341278 magnetization      -0.0043338

 Free energy of the ion-electron system (eV)
  ---------------------------------------------------
  alpha Z        PSCENC =         3.33880742
  Ewald energy   TEWEN  =      -227.98820653
  -Hartree energ DENC   =       -15.05802049
  -exchange      EXHF   =        11.27388965
  -V(xc)+E(xc)   XCENC  =       -14.39926138
  PAW double counting   =      1665.94996450    -1638.31112230
  entropy T*S    EENTRO =         0.00000000
  eigenvalues    EBANDS =        -1.38442356
  atomic energy  EATOM  =       203.99906502
  Solvation  Ediel_sol  =         0.00000000
  ---------------------------------------------------
  free energy    TOTEN  =       -12.57930767 eV

  energy without entropy =      -12.57930767  energy(sigma->0) =      -12.57930767
  exchange ACFDT corr.  =         0.00000000  see jH, gK, PRB 81, 115126


--------------------------------------------------------------------------------------------------------




--------------------------------------- Iteration      1(  16)  ---------------------------------------


    POTLOK:  cpu time      0.0182: real time      0.0376
    SETDIJ:  cpu time      0.3719: real time      0.3727
     EDDAV:  cpu time     13.7880: real time     13.8228
 BZINTS: Fermi energy:    5.486041;    8.000000 electrons
         Band energy:-0.137850E+01;  BLOECHL correction:    0.000000
       DOS:  cpu time      0.0012: real time      0.0012
    --------------------------------------------
      LOOP:  cpu time     14.1792: real time     14.2344

 eigenvalue-minimisations  :  1080
 total energy-change (2. order) :-0.9420951E-05  (-0.8441082E-06)
 number of electron       8.0000000 magnetization      -0.0043536
 augmentation part       -0.4341278 magnetization      -0.0043338

 Free energy of the ion-electron system (eV)
  ---------------------------------------------------
  alpha Z        PSCENC =         3.33880742
  Ewald energy   TEWEN  =      -227.98820653
  -Hartree energ DENC   =       -15.06469147
  -exchange      EXHF   =        11.27368827
  -V(xc)+E(xc)   XCENC  =       -14.39821022
  PAW double counting   =      1668.35388884    -1640.71515650
  entropy T*S    EENTRO =         0.00000000
  eigenvalues    EBANDS =        -1.37850192
  atomic energy  EATOM  =       203.99906502
  Solvation  Ediel_sol  =         0.00000000
  ---------------------------------------------------
  free energy    TOTEN  =       -12.57931709 eV

  energy without entropy =      -12.57931709  energy(sigma->0) =      -12.57931709
  exchange ACFDT corr.  =         0.00000000  see jH, gK, PRB 81, 115126


--------------------------------------------------------------------------------------------------------




 average (electrostatic) potential at core
  the test charge radii are     0.9892
  (the norm of the test charge is              1.0000)
       1 -79.6111       2 -79.6111
 
 
 
 E-fermi :   5.4860     XC(G=0):  -7.8170     alpha+bet :-11.8943

 Fermi energy:         5.4860409232

 spin component 1

 k-point     1 :       0.0000    0.0000    0.0000
  band No.  band energies     occupation 
      1      -7.8532      1.00000
      2       5.3932      1.00000
      3       5.3932      1.00000
      4       5.3932      1.00000
      5       8.7308      0.00000
      6       8.7308      0.00000
      7       8.7308      0.00000
      8       9.6408      0.00000
      9      14.1715      0.00000
     10      14.1930      0.00000
     11      14.1930      0.00000
     12      17.7160      0.00000

 k-point     2 :       0.1429   -0.0000    0.0000
  band No.  band energies     occupation 
      1      -7.5599      1.00000
      2       3.3347      1.00000
      3       5.0224      1.00000
      4       5.0224      1.00000
      5       8.5904      0.00000
      6       9.2801      0.00000
      7       9.2801      0.00000
      8      11.3463      0.00000
      9      13.5755      0.00000
     10      13.5755      0.00000
     11      15.2047      0.00000
     12      17.0304      0.00000

 k-point     3 :       0.2857   -0.0000    0.0000
  band No.  band energies     occupation 
      1      -6.7135      1.00000
      2       0.4114      1.00000
      3       4.4564      1.00000
      4       4.4564      1.00000
      5       8.0137      0.00000
      6       9.7646      0.00000
      7       9.7646      0.00000
      8      13.8921      0.00000
      9      13.8921      0.00000
     10      13.8989      0.00000
     11      15.2218      0.00000
     12      19.1291      0.00000

 k-point     4 :       0.4286   -0.0000    0.0000
  band No.  band energies     occupation 
      1      -5.5618      1.00000
      2      -1.8666      1.00000
      3       4.1295      1.00000
      4       4.1295      1.00000
      5       7.6662      0.00000
      6       9.5951      0.00000
      7       9.5951      0.00000
      8      14.0888      0.00000
      9      16.0519      0.00000
     10      16.0519      0.00000
     11      17.1000      0.00000
     12      19.2855      0.00000

 k-point     5 :       0.1429    0.1429    0.0000
  band No.  band energies     occupation 
      1      -7.4606      1.00000
      2       3.6573      1.00000
      3       4.3700      1.00000
      4       4.3700      1.00000
      5       7.9755      0.00000
      6      10.2148      0.00000
      7      10.2148      0.00000
      8      10.7210      0.00000
      9      12.8288      0.00000
     10      14.6122      0.00000
     11      15.6433      0.00000
     12      18.3629      0.00000

[...]
     12      19.0491      0.00000

 k-point    18 :      -0.4286    0.2857    0.1429
  band No.  band energies     occupation 
      1      -4.8006      1.00000
      2      -1.7051      1.00000
      3       1.4042      1.00000
      4       2.8909      1.00000
      5       9.2187      0.00000
      6       9.6715      0.00000
      7      11.8113      0.00000
      8      13.0265      0.00000
      9      14.8675      0.00000
     10      16.5940      0.00000
     11      18.7168      0.00000
     12      20.1197      0.00000

 k-point    19 :      -0.4286    0.4286    0.1429
  band No.  band energies     occupation 
      1      -4.1984      1.00000
      2      -2.0676      1.00000
      3       1.4968      1.00000
      4       1.9461      1.00000
      5       8.2952      0.00000
      6       8.6884      0.00000
      7      12.5574      0.00000
      8      15.2621      0.00000
      9      15.7205      0.00000
     10      17.7429      0.00000
     11      19.2250      0.00000
     12      20.7525      0.00000

 k-point    20 :      -0.2857    0.4286    0.1429
  band No.  band energies     occupation 
      1      -3.7118      1.00000
      2      -2.5110      1.00000
      3       0.7943      1.00000
      4       2.0510      1.00000
      5       8.8576      0.00000
      6      11.0752      0.00000
      7      12.0604      0.00000
      8      12.1562      0.00000
      9      15.6813      0.00000
     10      16.8875      0.00000
     11      19.9701      0.00000
     12      21.2473      0.00000
 Fermi energy:         5.4860409232

 spin component 2

 k-point     1 :       0.0000    0.0000    0.0000
  band No.  band energies     occupation 
      1      -7.8547      1.00000
      2       5.3920      1.00000
      3       5.3920      1.00000
      4       5.3920      1.00000
      5       8.7294      0.00000
      6       8.7294      0.00000
      7       8.7294      0.00000
      8       9.6396      0.00000
      9      14.1676      0.00000
     10      14.1915      0.00000
     11      14.1915      0.00000
     12      17.7135      0.00000

 k-point     2 :       0.1429   -0.0000    0.0000
  band No.  band energies     occupation 
      1      -7.5614      1.00000
      2       3.3334      1.00000
      3       5.0212      1.00000
      4       5.0212      1.00000
      5       8.5889      0.00000
      6       9.2787      0.00000
      7       9.2787      0.00000
      8      11.3450      0.00000
      9      13.5738      0.00000
     10      13.5738      0.00000
     11      15.2011      0.00000
     12      17.0273      0.00000

 k-point     3 :       0.2857   -0.0000    0.0000
  band No.  band energies     occupation 
      1      -6.7149      1.00000
      2       0.4100      1.00000
      3       4.4552      1.00000
      4       4.4552      1.00000
      5       8.0120      0.00000
      6       9.7631      0.00000
      7       9.7631      0.00000
      8      13.8904      0.00000
      9      13.8904      0.00000
     10      13.8969      0.00000
     11      15.2186      0.00000
     12      19.1262      0.00000

 k-point     4 :       0.4286   -0.0000    0.0000
  band No.  band energies     occupation 
      1      -5.5631      1.00000
      2      -1.8681      1.00000
      3       4.1283      1.00000
      4       4.1283      1.00000
      5       7.6645      0.00000
      6       9.5934      0.00000
      7       9.5934      0.00000
      8      14.0853      0.00000
      9      16.0502      0.00000
     10      16.0502      0.00000
     11      17.0977      0.00000
     12      19.2840      0.00000

 k-point     5 :       0.1429    0.1429    0.0000
  band No.  band energies     occupation 
      1      -7.4621      1.00000
      2       3.6561      1.00000
      3       4.3687      1.00000
      4       4.3687      1.00000
      5       7.9738      0.00000
      6      10.2134      0.00000
      7      10.2134      0.00000
      8      10.7195      0.00000
      9      12.8271      0.00000
     10      14.6107      0.00000
     11      15.6397      0.00000
     12      18.3605      0.00000

 k-point     6 :       0.2857    0.1429    0.0000
  band No.  band energies     occupation 
      1      -6.7917      1.00000
      2       1.2937      1.00000
      3       3.7536      1.00000
      4       3.7661      1.00000
      5       8.1549      0.00000
      6      10.1927      0.00000
      7      10.7767      0.00000
      8      11.0607      0.00000
      9      14.6851      0.00000
     10      15.0108      0.00000
     11      16.6088      0.00000
     12      18.5527      0.00000

 k-point     7 :       0.4286    0.1429    0.0000
  band No.  band energies     occupation 
      1      -5.6747      1.00000
      2      -1.1537      1.00000
      3       2.9976      1.00000
      4       3.5471      1.00000
      5       8.2384      0.00000
      6      10.0485      0.00000
      7      10.8203      0.00000
      8      12.1298      0.00000
      9      15.8671      0.00000
     10      16.8555      0.00000
     11      17.5647      0.00000
     12      18.9628      0.00000

 k-point     8 :      -0.4286    0.1429    0.0000
  band No.  band energies     occupation 
      1      -5.0551      1.00000
      2      -2.1213      1.00000
      3       2.5370      1.00000
      4       3.7584      1.00000
      5       8.3613      0.00000
      6       9.9247      0.00000
      7      10.4022      0.00000
      8      14.6545      0.00000
      9      15.1701      0.00000
     10      15.5922      0.00000
     11      17.4711      0.00000
     12      19.9129      0.00000

 k-point     9 :      -0.2857    0.1429    0.0000
  band No.  band energies     occupation 
      1      -6.0830      1.00000
      2      -0.3918      1.00000
      3       2.5456      1.00000
      4       4.3210      1.00000
      5       8.8113      0.00000
      6      10.1188      0.00000
      7      10.1729      0.00000
      8      13.0572      0.00000
      9      13.1325      0.00000
     10      16.2762      0.00000
     11      17.8756      0.00000
     12      18.8551      0.00000

 k-point    10 :      -0.1429    0.1429    0.0000
  band No.  band energies     occupation 
      1      -7.0798      1.00000
      2       1.9836      1.00000
      3       3.3142      1.00000
      4       4.9644      1.00000
      5       9.2825      0.00000
      6       9.5321      0.00000
      7       9.6912      0.00000
      8      11.9780      0.00000
      9      12.5416      0.00000
     10      15.0507      0.00000
     11      16.4821      0.00000
     12      17.7456      0.00000

 k-point    11 :       0.2857    0.2857    0.0000
  band No.  band energies     occupation 
      1      -6.3005      1.00000
      2       0.8352      1.00000
      3       3.0751      1.00000
      4       3.0751      1.00000
      5       6.9417      0.00000
      6       8.7396      0.00000
      7      12.8316      0.00000
      8      12.8316      0.00000
      9      15.3638      0.00000
     10      15.8591      0.00000
     11      18.6355      0.00000
     12      20.0414      0.00000

 k-point    12 :       0.4286    0.2857    0.0000
  band No.  band energies     occupation 
      1      -5.2998      1.00000
      2      -0.8529      1.00000
      3       2.0273      1.00000
      4       2.7813      1.00000
      5       7.2403      0.00000
      6       8.8220      0.00000
      7      13.0632      0.00000
      8      13.2363      0.00000
      9      17.5483      0.00000
     10      17.9986      0.00000
     11      18.2723      0.00000
     12      18.9570      0.00000

 k-point    13 :      -0.4286    0.2857    0.0000
  band No.  band energies     occupation 
      1      -4.2798      1.00000
      2      -2.1711      1.00000
      3       0.9768      1.00000
      4       2.9658      1.00000
      5       7.5065      0.00000
      6      11.2018      0.00000
      7      12.7040      0.00000
      8      12.7912      0.00000
      9      15.6018      0.00000
     10      15.6342      0.00000
     11      19.8653      0.00000
     12      20.5568      0.00000

 k-point    14 :      -0.2857    0.2857    0.0000
  band No.  band energies     occupation 
      1      -5.0025      1.00000
      2      -1.3308      1.00000
      3       0.8964      1.00000
      4       3.5723      1.00000
      5       8.1660      0.00000
      6      11.8699      0.00000
      7      12.0697      0.00000
      8      13.0682      0.00000
      9      13.2464      0.00000
     10      14.6989      0.00000
     11      19.8579      0.00000
     12      20.4055      0.00000

 k-point    15 :       0.4286    0.4286    0.0000
  band No.  band energies     occupation 
      1      -4.4279      1.00000
      2      -1.9722      1.00000
      3       2.3654      1.00000
      4       2.3654      1.00000
      5       6.5599      0.00000
      6       7.1147      0.00000
      7      15.6733      0.00000
      8      15.6733      0.00000
      9      17.9117      0.00000
     10      18.4816      0.00000
     11      18.7996      0.00000
     12      18.7996      0.00000

 k-point    16 :      -0.4286    0.4286    0.0000
  band No.  band energies     occupation 
      1      -3.3693      1.00000
      2      -3.0450      1.00000
      3       1.4177      1.00000
      4       2.4331      1.00000
      5       6.8850      0.00000
      6       8.2131      0.00000
      7      15.4566      0.00000
      8      15.9314      0.00000
      9      16.0122      0.00000
     10      16.2782      0.00000
     11      20.5257      0.00000
     12      20.5910      0.00000

 k-point    17 :       0.4286    0.2857    0.1429
  band No.  band energies     occupation 
      1      -5.9585      1.00000
      2       0.0083      1.00000
      3       2.0396      1.00000
      4       3.4764      1.00000
      5       8.6981      0.00000
      6      10.0402      0.00000
      7      10.3950      0.00000
      8      12.5512      0.00000
      9      14.7476      0.00000
     10      17.5700      0.00000
     11      18.1191      0.00000
     12      19.0462      0.00000

 k-point    18 :      -0.4286    0.2857    0.1429
  band No.  band energies     occupation 
      1      -4.8019      1.00000
      2      -1.7065      1.00000
      3       1.4026      1.00000
      4       2.8894      1.00000
      5       9.2167      0.00000
      6       9.6696      0.00000
      7      11.8094      0.00000
      8      13.0250      0.00000
      9      14.8658      0.00000
     10      16.5923      0.00000
     11      18.7141      0.00000
     12      20.1177      0.00000

 k-point    19 :      -0.4286    0.4286    0.1429
  band No.  band energies     occupation 
      1      -4.1997      1.00000
      2      -2.0688      1.00000
      3       1.4952      1.00000
      4       1.9446      1.00000
      5       8.2931      0.00000
      6       8.6863      0.00000
      7      12.5558      0.00000
      8      15.2605      0.00000
      9      15.7190      0.00000
     10      17.7415      0.00000
     11      19.2235      0.00000
     12      20.7504      0.00000

 k-point    20 :      -0.2857    0.4286    0.1429
  band No.  band energies     occupation 
      1      -3.7130      1.00000
      2      -2.5123      1.00000
      3       0.7927      1.00000
      4       2.0495      1.00000
      5       8.8555      0.00000
      6      11.0730      0.00000
      7      12.0589      0.00000
      8      12.1545      0.00000
      9      15.6798      0.00000
     10      16.8860      0.00000
     11      19.9685      0.00000
     12      21.2456      0.00000


--------------------------------------------------------------------------------------------------------


 soft charge-density along one line, spin component           1
         0         1         2         3         4         5         6         7         8         9
 total charge-density along one line
 
 soft charge-density along one line, spin component           2
         0         1         2         3         4         5         6         7         8         9
 total charge-density along one line
 
 pseudopotential strength for first ion, spin component:           1
 17.862  24.922   0.000  -0.000   0.000   0.000  -0.000   0.000
 24.922  34.776   0.000  -0.000   0.000   0.000  -0.000   0.000
  0.000   0.000   4.077   0.000   0.000   7.600   0.000   0.000
 -0.000  -0.000   0.000   4.077   0.000   0.000   7.600   0.000
  0.000   0.000   0.000   0.000   4.077   0.000   0.000   7.600
  0.000   0.000   7.600   0.000   0.000  14.178   0.000   0.000
 -0.000  -0.000   0.000   7.600   0.000   0.000  14.178   0.000
  0.000   0.000   0.000   0.000   7.600   0.000   0.000  14.178
 pseudopotential strength for first ion, spin component:           2
 17.862  24.922   0.000  -0.000   0.000   0.000  -0.000   0.000
 24.922  34.777   0.000  -0.000   0.000   0.000  -0.000   0.000
  0.000   0.000   4.077   0.000   0.000   7.601   0.000   0.000
 -0.000  -0.000   0.000   4.077   0.000   0.000   7.601   0.000
  0.000   0.000   0.000   0.000   4.077   0.000   0.000   7.601
  0.000   0.000   7.601   0.000   0.000  14.179   0.000   0.000
 -0.000  -0.000   0.000   7.601   0.000   0.000  14.179   0.000
  0.000   0.000   0.000   0.000   7.601   0.000   0.000  14.179
 total augmentation occupancy for first ion, spin component:           1
 10.915  -5.110   0.000   0.000  -0.000  -0.000  -0.000  -0.000
 -5.110   2.443  -0.000  -0.000   0.000   0.000   0.000   0.000
  0.000  -0.000   3.899   0.000   0.000  -1.037  -0.000  -0.000
  0.000  -0.000   0.000   3.899   0.000  -0.000  -1.037  -0.000
 -0.000   0.000   0.000   0.000   3.899  -0.000  -0.000  -1.037
 -0.000   0.000  -1.037  -0.000  -0.000   0.281   0.000   0.000
 -0.000   0.000  -0.000  -1.037  -0.000   0.000   0.281   0.000
 -0.000   0.000  -0.000  -0.000  -1.037   0.000   0.000   0.281
 total augmentation occupancy for first ion, spin component:           2
  0.002  -0.001   0.000   0.000  -0.000  -0.000  -0.000   0.000
 -0.001   0.001  -0.000  -0.000   0.000   0.000   0.000  -0.000
  0.000  -0.000   0.000  -0.000   0.000  -0.000   0.000  -0.000
  0.000  -0.000  -0.000   0.000  -0.000   0.000  -0.000   0.000
 -0.000   0.000   0.000  -0.000   0.000  -0.000   0.000  -0.000
 -0.000   0.000  -0.000   0.000  -0.000   0.000  -0.000   0.000
 -0.000   0.000   0.000  -0.000   0.000  -0.000   0.000  -0.000
  0.000  -0.000  -0.000   0.000  -0.000   0.000  -0.000   0.000


------------------------ aborting loop because EDIFF is reached ----------------------------------------





 total charge

# of ion       s       p       d       tot
------------------------------------------
    1        0.759   0.959   0.000   1.718
    2        0.759   0.959   0.000   1.718
--------------------------------------------------
tot          1.518   1.918   0.000   3.436



 magnetization (x)

# of ion       s       p       d       tot
------------------------------------------
    1        0.000   0.000   0.000   0.000
    2        0.000   0.000   0.000   0.000
--------------------------------------------------
tot          0.000   0.000   0.000   0.000
 
    CHARGE:  cpu time      0.0559: real time      0.0560
    FORLOC:  cpu time      0.0007: real time      0.0008
    FORHF :  cpu time      6.9203: real time      6.9381
    FORNL :  cpu time      0.0077: real time      0.0079
    FORCOR:  cpu time      0.4081: real time      0.4098
    FORHAR:  cpu time      0.0042: real time      0.0043
    MIXING:  cpu time      0.0001: real time      0.0001
    OFIELD:  cpu time      0.0006: real time      0.0008

 VOLUME and BASIS-vectors are now :
 -----------------------------------------------------------------------------
  energy-cutoff  :      680.00
  volume of cell :       40.33
      direct lattice vectors                 reciprocal lattice vectors
     3.333572997  0.000000000  1.924638998     0.299978432 -0.106058350  0.000000000
     1.111190999  3.142923999  1.924638999     0.000000000  0.318175050  0.000000000
     0.000000000  0.000000000  3.849278000    -0.149989216 -0.106058350  0.259788979

  length of vectors
     3.849278400  3.849279410  3.849278000     0.318175161  0.318175050  0.318175190


 FORCES acting on ions
    electron-ion (+dipol)            ewald-force                    non-local-force                 convergence-correction
 -----------------------------------------------------------------------------------------------
   0.630E-05 0.274E-04 0.214E-05   -.886E-05 -.418E-04 -.379E-07   -.707E-16 0.452E-16 -.165E-15   -.113E-06 0.161E-06 -.300E-07
   -.634E-05 -.274E-04 -.218E-05   0.886E-05 0.418E-04 0.379E-07   0.451E-16 -.726E-16 0.200E-15   0.112E-06 -.162E-06 0.298E-07
 -----------------------------------------------------------------------------------------------
   -.408E-07 -.136E-07 -.458E-07   -.602E-15 -.229E-16 -.120E-15   -.256E-16 -.273E-16 0.343E-16   -.983E-09 -.163E-08 -.242E-09
 
 
 POSITION                                       TOTAL-FORCE (eV/Angst)
 -----------------------------------------------------------------------------------
      3.88917      2.75006      6.73624        -0.000000     -0.000000      0.000000
      0.55560      0.39287      0.96232         0.000000      0.000000     -0.000000
 -----------------------------------------------------------------------------------
    total drift:                               -0.000000     -0.000000     -0.000000


--------------------------------------------------------------------------------------------------------



  FREE ENERGIE OF THE ION-ELECTRON SYSTEM (eV)
  ---------------------------------------------------
  free  energy   TOTEN  =       -12.57931709 eV

  energy  without entropy=      -12.57931709  energy(sigma->0) =      -12.57931709
 


--------------------------------------------------------------------------------------------------------


    POTLOK:  cpu time      0.3983: real time      0.3996


--------------------------------------------------------------------------------------------------------


 writing wavefunctions
     LOOP+:  cpu time    183.7029: real time    184.4866
    4ORBIT:  cpu time      0.0000: real time      0.0000



 total charge

# of ion       s       p       d       tot
------------------------------------------
    1        0.759   0.959   0.000   1.718
    2        0.759   0.959   0.000   1.718
--------------------------------------------------
tot          1.518   1.918   0.000   3.436



 magnetization (x)

# of ion       s       p       d       tot
------------------------------------------
    1        0.000   0.000   0.000   0.000
    2        0.000   0.000   0.000   0.000
--------------------------------------------------
tot          0.000   0.000   0.000   0.000
 
 BZINTS: Fermi energy:    5.486041;    8.000000 electrons
         Band energy:-0.137850E+01;  BLOECHL correction:    0.000000

 total amount of memory used by VASP MPI-rank0    32301. kBytes
=======================================================================

   base      :      30000. kBytes
   nonl-proj :        267. kBytes
   fftplans  :        394. kBytes
   grid      :        800. kBytes
   one-center:          6. kBytes
   HF        :          4. kBytes
   nonlr-proj:        301. kBytes
   wavefun   :        138. kBytes
   fock_wrk  :        391. kBytes
 
  
  
 General timing and accounting informations for this job:
 ========================================================
  
                  Total CPU time used (sec):      189.814
                            User time (sec):      188.491
                          System time (sec):        1.323
                         Elapsed time (sec):      191.338
  
                   Maximum memory used (kb):      278284.
                   Average memory used (kb):          N/A
  
                          Minor page faults:        41361
                          Major page faults:            0
                 Voluntary context switches:         3520
