<?xml version="1.0" encoding="ISO-8859-1"?>
<modeling>
 <generator>
  <i name="program" type="string">vasp </i>
  <i name="version" type="string">6.4.2  </i>
  <i name="subversion" type="string">20Jul23 (build Mar 15 2024 16:31:38) complex                          parallel </i>
  <i name="platform" type="string">LinuxIFC </i>
  <i name="date" type="string">2025 03 05 </i>
  <i name="time" type="string">13:44:06 </i>
 </generator>
 <incar>
  <i type="string" name="PREC">Accurate</i>
  <i type="string" name="ALGO">Normal</i>
  <i type="int" name="ISPIN">     2</i>
  <i type="int" name="NELM">   200</i>
  <i name="EDIFF">      0.00001000</i>
  <i type="int" name="NSW">     0</i>
  <i name="ENCUT">    680.00000000</i>
  <i name="ENAUG">   1360.00000000</i>
  <v name="MAGMOM">      0.60000000      0.60000000</v>
  <i type="logical" name="LREAL"> F  </i>
  <i type="int" name="ISMEAR">    -5</i>
  <i name="SIGMA">      0.20000000</i>
  <i type="logical" name="LWAVE"> T  </i>
  <i type="logical" name="LCHARG"> T  </i>
  <i type="logical" name="LVTOT"> T  </i>
  <i type="int" name="LORBIT">    11</i>
  <i type="logical" name="LELF"> F  </i>
  <i type="logical" name="LASPH"> T  </i>
  <i type="logical" name="LAECHG"> T  </i>
  <i name="HFSCREEN">      0.20000000</i>
  <i type="logical" name="LHFCALC"> T  </i>
  <i type="string" name="GGA">Pe</i>
  <i type="string" name="PRECFOCK">Fast</i>
  <i type="logical" name="LDAU"> F  </i>
  <i type="logical" name="LMIXTAU"> T  </i>
 </incar>
 <primitive_cell>
  <structure name="primitive_cell" >
   <crystal>
    <varray name="basis" >
     <v>       3.33357300       0.00000000       1.92463900 </v>
     <v>       1.11119100       3.14292400       1.92463900 </v>
     <v>       0.00000000       0.00000000       3.84927800 </v>
    </varray>
    <i name="volume">     40.32952680 </i>
    <varray name="rec_basis" >
     <v>       0.29997843      -0.10605835       0.00000000 </v>
     <v>       0.00000000       0.31817505       0.00000000 </v>
     <v>      -0.14998922      -0.10605835       0.25978898 </v>
    </varray>
   </crystal>
   <varray name="positions" >
    <v>       0.87500000       0.87500000       0.87500000 </v>
    <v>       0.12500000       0.12500000       0.12500000 </v>
   </varray>
  </structure>
  <varray name="primitive_index" >
   <v type="int" >        1 </v>
   <v type="int" >        2 </v>
  </varray>
 </primitive_cell>
 <kpoints>
  <generation param="Gamma">
   <v type="int" name="divisions">       7        7        7 </v>
   <v name="usershift">      0.00000000       0.00000000       0.00000000 </v>
   <v name="genvec1">      0.14285714       0.00000000       0.00000000 </v>
   <v name="genvec2">      0.00000000       0.14285714       0.00000000 </v>
   <v name="genvec3">      0.00000000       0.00000000       0.14285714 </v>
   <v name="shift">      0.00000000       0.00000000       0.00000000 </v>
  </generation>
  <varray name="kpointlist" >
   <v>       0.00000000       0.00000000       0.00000000 </v>
   <v>       0.14285714      -0.00000000       0.00000000 </v>
   <v>       0.28571429      -0.00000000       0.00000000 </v>
   <v>       0.42857143      -0.00000000       0.00000000 </v>
   <v>       0.14285714       0.14285714       0.00000000 </v>
   <v>       0.28571429       0.14285714       0.00000000 </v>
   <v>       0.42857143       0.14285714       0.00000000 </v>
   <v>      -0.42857143       0.14285714       0.00000000 </v>
   <v>      -0.28571429       0.14285714       0.00000000 </v>
   <v>      -0.14285714       0.14285714       0.00000000 </v>
   <v>       0.28571429       0.28571429       0.00000000 </v>
   <v>       0.42857143       0.28571429       0.00000000 </v>
   <v>      -0.42857143       0.28571429       0.00000000 </v>
   <v>      -0.28571429       0.28571429       0.00000000 </v>
   <v>       0.42857143       0.42857143       0.00000000 </v>
   <v>      -0.42857143       0.42857143       0.00000000 </v>
   <v>       0.42857143       0.28571429       0.14285714 </v>
   <v>      -0.42857143       0.28571429       0.14285714 </v>
   <v>      -0.42857143       0.42857143       0.14285714 </v>
   <v>      -0.28571429       0.42857143       0.14285714 </v>
  </varray>
  <varray name="weights" >
   <v>       0.00291545 </v>
   <v>       0.02332362 </v>
   <v>       0.02332362 </v>
   <v>       0.02332362 </v>
   <v>       0.01749271 </v>
   <v>       0.06997085 </v>
   <v>       0.06997085 </v>
   <v>       0.06997085 </v>
   <v>       0.06997085 </v>
   <v>       0.03498542 </v>
   <v>       0.01749271 </v>
   <v>       0.06997085 </v>
   <v>       0.06997085 </v>
   <v>       0.03498542 </v>
   <v>       0.01749271 </v>
   <v>       0.03498542 </v>
   <v>       0.06997085 </v>
   <v>       0.13994169 </v>
   <v>       0.06997085 </v>
   <v>       0.06997085 </v>
  </varray>
  <varray name="tetrahedronlist"  type="int" >
   <v type="int" >       48        2        3        6       10 </v>
   <v type="int" >       48        6        9       10       17 </v>
   <v type="int" >       24        9        9       10       17 </v>
   <v type="int" >       48        3        6        9       10 </v>
   <v type="int" >       48        9       14       17       18 </v>
   <v type="int" >       48        8        9       14       18 </v>
   <v type="int" >       24        9        9       14       17 </v>
   <v type="int" >       48        8       13       18       18 </v>
   <v type="int" >       48        7        8       13       18 </v>
   <v type="int" >       48        8       13       14       18 </v>
   <v type="int" >       48        7       12       17       18 </v>
   <v type="int" >       48        6        7       12       17 </v>
   <v type="int" >       48        7       12       13       18 </v>
   <v type="int" >       24        6        6       11       17 </v>
   <v type="int" >       24        5        6        6       11 </v>
   <v type="int" >       48        6       11       12       17 </v>
   <v type="int" >       24        5        6        6       10 </v>
   <v type="int" >       48        2        5        6       10 </v>
   <v type="int" >       48        6        7        9       17 </v>
   <v type="int" >       48        3        6        7        9 </v>
   <v type="int" >       48       12       17       18       19 </v>
   <v type="int" >       24       17       18       18       19 </v>
   <v type="int" >       24       14       17       18       18 </v>
   <v type="int" >       48        7        9       17       18 </v>
   <v type="int" >       48       18       19       20       20 </v>
   <v type="int" >       24       18       18       20       20 </v>
   <v type="int" >       48       13       18       18       20 </v>
   <v type="int" >       24       18       18       19       20 </v>
   <v type="int" >       24       14       18       18       20 </v>
   <v type="int" >       48       13       14       18       20 </v>
   <v type="int" >       48       13       18       19       20 </v>
   <v type="int" >       48       12       13       18       19 </v>
   <v type="int" >       24       12       12       17       19 </v>
   <v type="int" >       24       11       12       12       17 </v>
   <v type="int" >       24        6        6       10       17 </v>
   <v type="int" >       48       12       13       16       19 </v>
   <v type="int" >       24       16       19       19       20 </v>
   <v type="int" >       12       19       19       20       20 </v>
   <v type="int" >       24       19       20       20       20 </v>
   <v type="int" >       48       13       16       19       20 </v>
   <v type="int" >        6       20       20       20       20 </v>
   <v type="int" >       48        7        8        8       18 </v>
   <v type="int" >       48        7        8        9       18 </v>
   <v type="int" >       24       13       13       16       20 </v>
   <v type="int" >       24        8        8       18       18 </v>
   <v type="int" >       24        2        2        5       10 </v>
   <v type="int" >       48        3        4        7        9 </v>
   <v type="int" >       48        4        7        8        9 </v>
   <v type="int" >       24       13       13       14       20 </v>
   <v type="int" >       24       12       12       15       19 </v>
   <v type="int" >       24       11       12       12       15 </v>
   <v type="int" >       48       12       15       16       19 </v>
   <v type="int" >       48        4        7        8        8 </v>
   <v type="int" >       12       16       16       19       19 </v>
   <v type="int" >       24       15       16       16       19 </v>
   <v type="int" >       24        4        4        8        8 </v>
   <v type="int" >       12       15       15       16       16 </v>
   <v type="int" >       24        1        2        2        5 </v>
  </varray>
  <i name="volumeweight">      0.00048591 </i>
 </kpoints>
 <parameters>
  <separator name="general" >
   <i type="string" name="SYSTEM">unknown system</i>
   <i type="logical" name="LCOMPAT"> F  </i>
  </separator>
  <separator name="electronic" >
   <i type="string" name="PREC">accura</i>
   <i name="ENMAX">    680.00000000</i>
   <i name="ENAUG">   1360.00000000</i>
   <i name="EDIFF">      0.00001000</i>
   <i type="int" name="IALGO">    38</i>
   <i type="int" name="IWAVPR">    10</i>
   <i type="int" name="NBANDS">    12</i>
   <i type="int" name="NBANDSLOW">    -1</i>
   <i type="int" name="NBANDSHIGH">    -1</i>
   <i name="NELECT">      8.00000000</i>
   <i type="int" name="TURBO">     0</i>
   <i type="int" name="IRESTART">     0</i>
   <i type="int" name="NREBOOT">     0</i>
   <i type="int" name="NMIN">     0</i>
   <i name="EREF">      0.00000000</i>
   <separator name="electronic smearing" >
    <i type="int" name="ISMEAR">    -5</i>
    <i name="SIGMA">      0.20000000</i>
    <i name="KSPACING">      0.50000000</i>
    <i type="logical" name="KGAMMA"> T  </i>
    <i type="logical" name="KBLOWUP"> T  </i>
   </separator>
   <separator name="electronic projectors" >
    <i type="logical" name="LREAL"> F  </i>
    <v name="ROPT">      0.00000000</v>
    <i type="int" name="LMAXPAW">  -100</i>
    <i type="int" name="LMAXMIX">     2</i>
    <i type="logical" name="NLSPLINE"> F  </i>
   </separator>
   <separator name="electronic startup" >
    <i type="int" name="ISTART">     0</i>
    <i type="int" name="ICHARG">     2</i>
    <i type="int" name="INIWAV">     1</i>
   </separator>
   <separator name="electronic spin" >
    <i type="int" name="ISPIN">     2</i>
    <i type="logical" name="LNONCOLLINEAR"> F  </i>
    <v name="MAGMOM">      0.60000000      0.60000000</v>
    <i name="NUPDOWN">     -1.00000000</i>
    <i type="logical" name="LSORBIT"> F  </i>
    <v name="SAXIS">      0.00000000      0.00000000      1.00000000</v>
    <i type="logical" name="LSPIRAL"> F  </i>
    <v name="QSPIRAL">      0.00000000      0.00000000      0.00000000</v>
    <i type="logical" name="LZEROZ"> F  </i>
   </separator>
   <separator name="electronic exchange-correlation" >
    <i type="logical" name="LASPH"> T  </i>
    <i type="logical" name="LMETAGGA"> F  </i>
   </separator>
   <separator name="electronic convergence" >
    <i type="int" name="NELM">   200</i>
    <i type="int" name="NELMDL">    -5</i>
    <i type="int" name="NELMIN">     2</i>
    <i name="ENINI">    680.00000000</i>
    <separator name="electronic convergence detail" >
     <i type="logical" name="LDIAG"> T  </i>
     <i type="logical" name="LSUBROT"> F  </i>
     <i name="WEIMIN">      0.00000000</i>
     <i name="EBREAK">      0.00000021</i>
     <i name="DEPER">      0.30000000</i>
     <i type="int" name="NRMM">     4</i>
     <i name="TIME">      0.40000000</i>
    </separator>
   </separator>
   <separator name="electronic mixer" >
    <i name="AMIX">      0.40000000</i>
    <i name="BMIX">      1.00000000</i>
    <i name="AMIN">      0.10000000</i>
    <i name="AMIX_MAG">      1.60000000</i>
    <i name="BMIX_MAG">      1.00000000</i>
    <separator name="electronic mixer details" >
     <i type="int" name="IMIX">     1</i>
     <i type="logical" name="MIXFIRST"> F  </i>
     <i type="int" name="MAXMIX">   -45</i>
     <i name="WC">    100.00000000</i>
     <i type="int" name="INIMIX">     1</i>
     <i type="int" name="MIXPRE">     1</i>
     <i type="int" name="MREMOVE">     5</i>
    </separator>
   </separator>
   <separator name="electronic dipolcorrection" >
    <i type="logical" name="LDIPOL"> F  </i>
    <i type="logical" name="LMONO"> F  </i>
    <i type="int" name="IDIPOL">     0</i>
    <i name="EPSILON">      1.00000000</i>
    <v name="DIPOL">   -100.00000000   -100.00000000   -100.00000000</v>
    <i name="EFIELD">      0.00000000</i>
   </separator>
  </separator>
  <separator name="grids" >
   <i type="int" name="NGX">    36</i>
   <i type="int" name="NGY">    36</i>
   <i type="int" name="NGZ">    36</i>
   <i type="int" name="NGXF">    72</i>
   <i type="int" name="NGYF">    72</i>
   <i type="int" name="NGZF">    72</i>
   <i type="logical" name="ADDGRID"> F  </i>
  </separator>
  <separator name="ionic" >
   <i type="int" name="NSW">     0</i>
   <i type="int" name="IBRION">    -1</i>
   <i type="int" name="MDALGO">     0</i>
   <i type="int" name="ISIF">     0</i>
   <i name="PSTRESS">      0.00000000</i>
   <i name="EDIFFG">      0.00010000</i>
   <i type="int" name="NFREE">     0</i>
   <i name="POTIM">      0.50000000</i>
   <i name="SMASS">     -3.00000000</i>
   <i name="SCALEE">      1.00000000</i>
  </separator>
  <separator name="ionic md" >
   <i name="TEBEG">      0.00010000</i>
   <i name="TEEND">      0.00010000</i>
   <i type="int" name="NBLOCK">     1</i>
   <i type="int" name="KBLOCK">     1</i>
   <i type="int" name="NPACO">   256</i>
   <i name="APACO">     10.00000000</i>
  </separator>
  <separator name="symmetry" >
   <i type="int" name="ISYM">     3</i>
   <i name="SYMPREC">      0.00001000</i>
  </separator>
  <separator name="dos" >
   <i type="int" name="LORBIT">    11</i>
   <v name="RWIGS">     -1.00000000</v>
   <i type="int" name="NEDOS">   301</i>
   <i name="EMIN">     10.00000000</i>
   <i name="EMAX">    -10.00000000</i>
   <i name="EFERMI">      0.00000000</i>
  </separator>
  <separator name="writing" >
   <i type="int" name="NWRITE">     2</i>
   <i type="logical" name="LWAVE"> T  </i>
   <i type="logical" name="LDOWNSAMPLE"> F  </i>
   <i type="logical" name="LCHARG"> T  </i>
   <i type="logical" name="LPARD"> F  </i>
   <i type="logical" name="LVTOT"> T  </i>
   <i type="logical" name="LVHAR"> F  </i>
   <i type="logical" name="LELF"> F  </i>
   <i type="logical" name="LOPTICS"> F  </i>
   <v name="STM">      0.00000000      0.00000000      0.00000000      0.00000000      0.00000000      0.00000000      0.00000000</v>
  </separator>
  <separator name="performance" >
   <i type="int" name="NPAR">    12</i>
   <i type="int" name="NSIM">     4</i>
   <i type="int" name="NBLK">    -1</i>
   <i type="logical" name="LPLANE"> T  </i>
   <i type="logical" name="LSCALAPACK"> T  </i>
   <i type="logical" name="LSCAAWARE"> F  </i>
   <i type="logical" name="LSCALU"> F  </i>
   <i type="logical" name="LASYNC"> F  </i>
   <i type="logical" name="LORBITALREAL"> F  </i>
  </separator>
  <separator name="miscellaneous" >
   <i type="int" name="IDIOT">     3</i>
   <i type="int" name="PHON_NSTRUCT">    -1</i>
   <i type="logical" name="LMUSIC"> F  </i>
   <v name="POMASS">     28.08500000</v>
   <v name="DARWINR">      0.00000000</v>
   <v name="DARWINV">      1.00000000</v>
   <i type="logical" name="LCORR"> T  </i>
  </separator>
  <i type="logical" name="GGA_COMPAT"> T  </i>
  <i type="logical" name="LBERRY"> F  </i>
  <i type="int" name="ICORELEVEL">     0</i>
  <i type="logical" name="LDAU"> F  </i>
  <i type="int" name="I_CONSTRAINED_M">     0</i>
  <separator name="electronic exchange-correlation" >
   <i type="string" name="GGA">PE</i>
   <i type="int" name="VOSKOWN">     0</i>
   <i type="logical" name="LHFCALC"> T  </i>
   <i type="string" name="PRECFOCK">fast</i>
   <i type="logical" name="LSYMGRAD"> F  </i>
   <i type="logical" name="LHFONE"> F  </i>
   <i type="logical" name="LRHFCALC"> F  </i>
   <i type="logical" name="LTHOMAS"> F  </i>
   <i type="logical" name="LMODELHF"> F  </i>
   <i type="logical" name="LFOCKACE"> T  </i>
   <i name="ENCUT4O">     -1.00000000</i>
   <i type="int" name="EXXOEP">     0</i>
   <i type="int" name="FOURORBIT">     0</i>
   <i name="AEXX">      0.25000000</i>
   <i name="HFALPHA">     -1.00000000</i>
   <i name="MCALPHA">      0.00000000</i>
   <i name="ALDAX">      0.75000000</i>
   <i name="AGGAX">      0.75000000</i>
   <i name="ALDAC">      1.00000000</i>
   <i name="AGGAC">      1.00000000</i>
   <i type="int" name="NKREDX">     1</i>
   <i type="int" name="NKREDY">     1</i>
   <i type="int" name="NKREDZ">     1</i>
   <i type="logical" name="SHIFTRED"> F  </i>
   <i type="logical" name="ODDONLY"> F  </i>
   <i type="logical" name="EVENONLY"> F  </i>
   <i type="int" name="LMAXFOCK">     4</i>
   <i type="int" name="NMAXFOCKAE">     1</i>
   <i type="logical" name="LFOCKAEDFT"> F  </i>
   <i name="HFSCREEN">      0.20000000</i>
   <i name="HFSCREENC">      0.20000000</i>
   <i type="int" name="NBANDSGWLOW">     1</i>
  </separator>
  <separator name="vdW DFT" >
   <i type="logical" name="LUSE_VDW"> F  </i>
   <i type="int" name="IVDW_NL">     1</i>
   <i type="logical" name="LSPIN_VDW"> F  </i>
   <i name="Zab_VDW">     -0.84910000</i>
   <i name="PARAM1">      0.12340000</i>
   <i name="PARAM2">      1.00000000</i>
   <i name="PARAM3">      0.00000000</i>
  </separator>
  <separator name="model GW" >
   <i type="int" name="MODEL_GW">     0</i>
   <i name="MODEL_EPS0">     12.09885804</i>
   <i name="MODEL_ALPHA">      1.00000000</i>
  </separator>
  <separator name="linear response parameters" >
   <i type="logical" name="LEPSILON"> F  </i>
   <i type="logical" name="LRPA"> F  </i>
   <i type="logical" name="LNABLA"> F  </i>
   <i type="logical" name="LVEL"> F  </i>
   <i name="CSHIFT">      0.10000000</i>
   <i name="OMEGAMAX">     -1.00000000</i>
   <i name="DEG_THRESHOLD">      0.00200000</i>
   <i name="RTIME">     -0.10000000</i>
   <i name="WPLASMAI">      0.00000000</i>
   <v name="DFIELD">      0.00000000      0.00000000      0.00000000</v>
   <v name="WPLASMA">      0.00000000      0.00000000      0.00000000      0.00000000      0.00000000      0.00000000      0.00000000      0.00000000      0.00000000</v>
  </separator>
  <separator name="orbital magnetization" >
   <i type="logical" name="NUCIND"> F  </i>
   <v name="MAGPOS">      0.00000000      0.00000000      0.00000000</v>
   <i type="logical" name="LNICSALL"> T  </i>
   <i type="logical" name="ORBITALMAG"> F  </i>
   <i type="logical" name="LMAGBLOCH"> F  </i>
   <i type="logical" name="LCHIMAG"> F  </i>
   <i type="logical" name="LGAUGE"> T  </i>
   <i type="int" name="MAGATOM">     0</i>
   <v name="MAGDIPOL">      0.00000000      0.00000000      0.00000000</v>
   <v name="AVECCONST">      0.00000000      0.00000000      0.00000000</v>
  </separator>
  <separator name="response functions" >
   <i type="logical" name="LALL_IN_ONE"> F  </i>
   <i type="int" name="IALL_IN_ONE">    -1</i>
   <i type="int" name="NBANDS_WAVE">    -1</i>
   <i type="logical" name="LFINITE_TEMPERATURE"> F  </i>
   <i type="logical" name="LADDER"> F  </i>
   <i type="logical" name="LRPAFORCE"> F  </i>
   <i type="logical" name="LFXC"> F  </i>
   <i type="logical" name="LHARTREE"> T  </i>
   <i type="int" name="IBSE">     0</i>
   <v type="int" name="KPOINT">    -1     0     0     0</v>
   <i type="logical" name="LTCTC"> F  </i>
   <i type="logical" name="LTCTE"> F  </i>
   <i type="logical" name="LTETE"> F  </i>
   <i type="logical" name="LTRIPLET"> F  </i>
   <i type="logical" name="LFXCEPS"> F  </i>
   <i type="logical" name="LFXHEG"> F  </i>
   <i type="int" name="NATURALO">     2</i>
   <i type="logical" name="LHOLEGF"> F  </i>
   <i type="logical" name="L2ORDER"> F  </i>
   <i type="logical" name="LDMP1"> F  </i>
   <i type="logical" name="LMP2LT"> F  </i>
   <i type="logical" name="LSMP2LT"> F  </i>
   <i type="logical" name="LGWLF"> F  </i>
   <i name="ENCUTGW">     -1.60000002</i>
   <i name="ENCUTGWSOFT">     -1.60000002</i>
   <i name="ENCUTLF">     -1.00000000</i>
   <i type="logical" name="LESF_SPLINES"> F  </i>
   <i type="int" name="LMAXMP2">    -1</i>
   <i name="SCISSOR">      0.00000000</i>
   <i type="int" name="NOMEGA">     0</i>
   <i type="int" name="NOMEGAR">     0</i>
   <i type="int" name="NBANDSGW">    -1</i>
   <i type="int" name="NBANDSO">    -1</i>
   <i type="int" name="NBANDSV">    -1</i>
   <i type="int" name="NELMGW">     1</i>
   <i type="int" name="NELMHF">     1</i>
   <i type="int" name="DIM">     3</i>
   <i type="int" name="IESPILON">     4</i>
   <i type="int" name="ANTIRES">     0</i>
   <i name="OMEGAMAX">    -30.00000000</i>
   <i name="OMEGAMIN">    -30.00000000</i>
   <i name="OMEGATL">   -200.00000000</i>
   <i type="int" name="OMEGAGRID">     0</i>
   <i name="CSHIFT">     -0.10000000</i>
   <i type="logical" name="LSELFENERGY"> F  </i>
   <i type="logical" name="LSPECTRAL"> F  </i>
   <i type="logical" name="LSPECTRALGW"> F  </i>
   <i type="logical" name="LSINGLES"> F  </i>
   <i type="logical" name="LFERMIGW"> F  </i>
   <i type="logical" name="ODDONLYGW"> F  </i>
   <i type="logical" name="EVENONLYGW"> F  </i>
   <i type="int" name="NKREDLFX">     1</i>
   <i type="int" name="NKREDLFY">     1</i>
   <i type="int" name="NKREDLFZ">     1</i>
   <i type="int" name="MAXMEM">  2800</i>
   <i type="int" name="TELESCOPE">     0</i>
   <i type="int" name="NTAUPAR">    -1</i>
   <i type="int" name="NOMEGAPAR">    -1</i>
   <i name="DAMP_NEWTON">      0.80000001</i>
   <i name="LAMBDA">      1.00000000</i>
  </separator>
  <separator name="External order field" >
   <i name="OFIELD_KAPPA">      0.00000000</i>
   <v name="OFIELD_K">      0.00000000      0.00000000      0.00000000</v>
   <i name="OFIELD_Q6_NEAR">      0.00000000</i>
   <i name="OFIELD_Q6_FAR">      0.00000000</i>
   <i name="OFIELD_A">      0.00000000</i>
  </separator>
  <separator name="optional k-points parameters" >
   <i type="int" name="KPOINTS_OPT_MODE">     1</i>
   <i type="logical" name="LKPOINTS_OPT"> F  </i>
  </separator>
 </parameters>
 <atominfo>
  <atoms>       2 </atoms>
  <types>       1 </types>
  <array name="atoms" >
   <dimension dim="1">ion</dimension>
   <field type="string">element</field>
   <field type="int">atomtype</field>
   <set>
    <rc><c>Si</c><c>   1</c></rc>
    <rc><c>Si</c><c>   1</c></rc>
   </set>
  </array>
  <array name="atomtypes" >
   <dimension dim="1">type</dimension>
   <field type="int">atomspertype</field>
   <field type="string">element</field>
   <field>mass</field>
   <field>valence</field>
   <field type="string">pseudopotential</field>
   <set>
    <rc><c>   2</c><c>Si</c><c>     28.08500000</c><c>      4.00000000</c><c>  PAW_PBE Si 05Jan2001                  </c></rc>
   </set>
  </array>
 </atominfo>
 <structure name="initialpos" >
  <crystal>
   <varray name="basis" >
    <v>       3.33357300       0.00000000       1.92463900 </v>
    <v>       1.11119100       3.14292400       1.92463900 </v>
    <v>       0.00000000       0.00000000       3.84927800 </v>
   </varray>
   <i name="volume">     40.32952680 </i>
   <varray name="rec_basis" >
    <v>       0.29997843      -0.10605835       0.00000000 </v>
    <v>       0.00000000       0.31817505       0.00000000 </v>
    <v>      -0.14998922      -0.10605835       0.25978898 </v>
   </varray>
  </crystal>
  <varray name="positions" >
   <v>       0.87500000       0.87500000       0.87500000 </v>
   <v>       0.12500000       0.12500000       0.12500000 </v>
  </varray>
 </structure>
 <calculation>
  <scstep>
   <time name="dav">    0.10    0.10</time>
   <time name="total">    0.29    0.29</time>
   <energy>
    <i name="alphaZ">      3.33880742 </i>
    <i name="ewald">   -227.98820653 </i>
    <i name="hartreedc">    -11.11484529 </i>
    <i name="XCdc">    -18.55253271 </i>
    <i name="pawpsdc">    176.18363791 </i>
    <i name="pawaedc">   -391.58776073 </i>
    <i name="eentropy">      0.00000000 </i>
    <i name="bandstr">     13.09124960 </i>
    <i name="atom">    203.99906502 </i>
    <i name="e_fr_energy">   -252.63058531 </i>
    <i name="e_wo_entrp">   -252.63058531 </i>
    <i name="e_0_energy">   -252.63058531 </i>
   </energy>
  </scstep>
  <scstep>
   <time name="dav">    0.13    0.13</time>
   <time name="total">    0.13    0.13</time>
   <energy>
    <i name="e_fr_energy">   -267.15501420 </i>
    <i name="e_wo_entrp">   -267.15501420 </i>
    <i name="e_0_energy">   -267.15501420 </i>
   </energy>
  </scstep>
  <scstep>
   <time name="dav">    0.10    0.12</time>
   <time name="total">    0.11    0.12</time>
   <energy>
    <i name="e_fr_energy">   -267.29642313 </i>
    <i name="e_wo_entrp">   -267.29642313 </i>
    <i name="e_0_energy">   -267.29642313 </i>
   </energy>
  </scstep>
  <scstep>
   <time name="dav">    0.13    0.15</time>
   <time name="total">    0.13    0.15</time>
   <energy>
    <i name="e_fr_energy">   -267.29681916 </i>
    <i name="e_wo_entrp">   -267.29681916 </i>
    <i name="e_0_energy">   -267.29681916 </i>
   </energy>
  </scstep>
  <scstep>
   <time name="dav">   13.87   13.91</time>
   <time name="total">   14.33   14.39</time>
   <energy>
    <i name="e_fr_energy">    -12.81901309 </i>
    <i name="e_wo_entrp">    -12.81901309 </i>
    <i name="e_0_energy">    -12.81901309 </i>
   </energy>
  </scstep>
  <scstep>
   <time name="dav">   14.71   14.74</time>
   <time name="total">   15.16   15.21</time>
   <energy>
    <i name="e_fr_energy">    -12.64285288 </i>
    <i name="e_wo_entrp">    -12.64285288 </i>
    <i name="e_0_energy">    -12.64285288 </i>
   </energy>
  </scstep>
  <scstep>
   <time name="dav">   13.83   13.86</time>
   <time name="total">   14.28   14.33</time>
   <energy>
    <i name="e_fr_energy">    -12.58805332 </i>
    <i name="e_wo_entrp">    -12.58805332 </i>
    <i name="e_0_energy">    -12.58805332 </i>
   </energy>
  </scstep>
  <scstep>
   <time name="dav">   13.91   13.94</time>
   <time name="total">   14.36   14.41</time>
   <energy>
    <i name="e_fr_energy">    -12.57868337 </i>
    <i name="e_wo_entrp">    -12.57868337 </i>
    <i name="e_0_energy">    -12.57868337 </i>
   </energy>
  </scstep>
  <scstep>
   <time name="dav">   14.76   14.80</time>
   <time name="total">   15.21   15.26</time>
   <energy>
    <i name="e_fr_energy">    -12.57813130 </i>
    <i name="e_wo_entrp">    -12.57813130 </i>
    <i name="e_0_energy">    -12.57813130 </i>
   </energy>
  </scstep>
  <scstep>
   <time name="dav">   13.79   13.83</time>
   <time name="total">   14.24   14.33</time>
   <energy>
    <i name="e_fr_energy">    -12.57860288 </i>
    <i name="e_wo_entrp">    -12.57860288 </i>
    <i name="e_0_energy">    -12.57860288 </i>
   </energy>
  </scstep>
  <scstep>
   <time name="dav">   13.95   13.98</time>
   <time name="total">   14.41   14.47</time>
   <energy>
    <i name="e_fr_energy">    -12.57896137 </i>
    <i name="e_wo_entrp">    -12.57896137 </i>
    <i name="e_0_energy">    -12.57896137 </i>
   </energy>
  </scstep>
  <scstep>
   <time name="dav">   14.35   14.38</time>
   <time name="total">   14.81   14.86</time>
   <energy>
    <i name="e_fr_energy">    -12.57915144 </i>
    <i name="e_wo_entrp">    -12.57915144 </i>
    <i name="e_0_energy">    -12.57915144 </i>
   </energy>
  </scstep>
  <scstep>
   <time name="dav">   13.80   13.84</time>
   <time name="total">   14.25   14.31</time>
   <energy>
    <i name="e_fr_energy">    -12.57924404 </i>
    <i name="e_wo_entrp">    -12.57924404 </i>
    <i name="e_0_energy">    -12.57924404 </i>
   </energy>
  </scstep>
  <scstep>
   <time name="dav">   14.64   14.68</time>
   <time name="total">   15.09   15.15</time>
   <energy>
    <i name="e_fr_energy">    -12.57928749 </i>
    <i name="e_wo_entrp">    -12.57928749 </i>
    <i name="e_0_energy">    -12.57928749 </i>
   </energy>
  </scstep>
  <scstep>
   <time name="dav">   13.81   13.85</time>
   <time name="total">   14.26   14.32</time>
   <energy>
    <i name="e_fr_energy">    -12.57930767 </i>
    <i name="e_wo_entrp">    -12.57930767 </i>
    <i name="e_0_energy">    -12.57930767 </i>
   </energy>
  </scstep>
  <scstep>
   <time name="dav">   13.79   13.82</time>
   <time name="total">   14.18   14.23</time>
   <energy>
    <i name="alphaZ">      3.33880742 </i>
    <i name="ewald">   -227.98820653 </i>
    <i name="hartreedc">    -15.06469147 </i>
    <i name="XCdc">    -14.39821022 </i>
    <i name="pawpsdc">   1668.35388884 </i>
    <i name="pawaedc">  -1640.71515650 </i>
    <i name="eentropy">      0.00000000 </i>
    <i name="bandstr">     -1.37850192 </i>
    <i name="atom">    203.99906502 </i>
    <i name="e_fr_energy">    -12.57931709 </i>
    <i name="e_wo_entrp">    -12.57931709 </i>
    <i name="e_0_energy">    -12.57931709 </i>
   </energy>
  </scstep>
  <structure>
   <crystal>
    <varray name="basis" >
     <v>       3.33357300       0.00000000       1.92463900 </v>
     <v>       1.11119100       3.14292400       1.92463900 </v>
     <v>       0.00000000       0.00000000       3.84927800 </v>
    </varray>
    <i name="volume">     40.32952680 </i>
    <varray name="rec_basis" >
     <v>       0.29997843      -0.10605835       0.00000000 </v>
     <v>       0.00000000       0.31817505       0.00000000 </v>
     <v>      -0.14998922      -0.10605835       0.25978898 </v>
    </varray>
   </crystal>
   <varray name="positions" >
    <v>       0.87500000       0.87500000       0.87500000 </v>
    <v>       0.12500000       0.12500000       0.12500000 </v>
   </varray>
  </structure>
  <varray name="forces" >
   <v>      -0.00000000      -0.00000000       0.00000000 </v>
   <v>       0.00000000       0.00000000      -0.00000000 </v>
  </varray>
  <energy>
   <i name="e_fr_energy">    -12.57931709 </i>
   <i name="e_wo_entrp">    -12.57931709 </i>
   <i name="e_0_energy">    -12.57931709 </i>
  </energy>
  <time name="totalsc">  183.70  184.49</time>
  <eigenvalues>
   <array>
    <dimension dim="1">band</dimension>
    <dimension dim="2">kpoint</dimension>
    <dimension dim="3">spin</dimension>
    <field>eigene</field>
    <field>occ</field>
    <set>
     <set comment="spin 1">
      <set comment="kpoint 1">
       <r>   -7.8532    1.0000 </r>
       <r>    5.3932    1.0000 </r>
       <r>    5.3932    1.0000 </r>
       <r>    5.3932    1.0000 </r>
       <r>    8.7308    0.0000 </r>
       <r>    8.7308    0.0000 </r>
       <r>    8.7308    0.0000 </r>
       <r>    9.6408    0.0000 </r>
       <r>   14.1715    0.0000 </r>
       <r>   14.1930    0.0000 </r>
       <r>   14.1930    0.0000 </r>
       <r>   17.7160    0.0000 </r>
      </set>
      <set comment="kpoint 2">
       <r>   -7.5599    1.0000 </r>
       <r>    3.3347    1.0000 </r>
       <r>    5.0224    1.0000 </r>
       <r>    5.0224    1.0000 </r>
       <r>    8.5904    0.0000 </r>
       <r>    9.2801    0.0000 </r>
       <r>    9.2801    0.0000 </r>
       <r>   11.3463    0.0000 </r>
       <r>   13.5755    0.0000 </r>
       <r>   13.5755    0.0000 </r>
       <r>   15.2047    0.0000 </r>
       <r>   17.0304    0.0000 </r>
      </set>
      <set comment="kpoint 3">
       <r>   -6.7135    1.0000 </r>
       <r>    0.4114    1.0000 </r>
       <r>    4.4564    1.0000 </r>
       <r>    4.4564    1.0000 </r>
       <r>    8.0137    0.0000 </r>
       <r>    9.7646    0.0000 </r>
       <r>    9.7646    0.0000 </r>
       <r>   13.8921    0.0000 </r>
       <r>   13.8921    0.0000 </r>
       <r>   13.8989    0.0000 </r>
       <r>   15.2218    0.0000 </r>
       <r>   19.1291    0.0000 </r>
      </set>
      <set comment="kpoint 4">
       <r>   -5.5618    1.0000 </r>
       <r>   -1.8666    1.0000 </r>
       <r>    4.1295    1.0000 </r>
       <r>    4.1295    1.0000 </r>
       <r>    7.6662    0.0000 </r>
       <r>    9.5951    0.0000 </r>
       <r>    9.5951    0.0000 </r>
       <r>   14.0888    0.0000 </r>
       <r>   16.0519    0.0000 </r>
       <r>   16.0519    0.0000 </r>
       <r>   17.1000    0.0000 </r>
       <r>   19.2855    0.0000 </r>
      </set>
      <set comment="kpoint 5">
       <r>   -7.4606    1.0000 </r>
       <r>    3.6573    1.0000 </r>
       <r>    4.3700    1.0000 </r>
       <r>    4.3700    1.0000 </r>
       <r>    7.9755    0.0000 </r>
       <r>   10.2148    0.0000 </r>
       <r>   10.2148    0.0000 </r>
       <r>   10.7210    0.0000 </r>
       <r>   12.8288    0.0000 </r>
       <r>   14.6122    0.0000 </r>
       <r>   15.6433    0.0000 </r>
       <r>   18.3629    0.0000 </r>
      </set>
      <set comment="kpoint 6">
       <r>   -6.7903    1.0000 </r>
       <r>    1.2950    1.0000 </r>
       <r>    3.7549    1.0000 </r>
       <r>    3.7674    1.0000 </r>
       <r>    8.1568    0.0000 </r>
       <r>   10.1940    0.0000 </r>
       <r>   10.7788    0.0000 </r>
       <r>   11.0621    0.0000 </r>
       <r>   14.6865    0.0000 </r>
       <r>   15.0124    0.0000 </r>
       <r>   16.6120    0.0000 </r>
       <r>   18.5558    0.0000 </r>
      </set>
      <set comment="kpoint 7">
       <r>   -5.6734    1.0000 </r>
       <r>   -1.1523    1.0000 </r>
       <r>    2.9990    1.0000 </r>
       <r>    3.5484    1.0000 </r>
       <r>    8.2403    0.0000 </r>
       <r>   10.0501    0.0000 </r>
       <r>   10.8218    0.0000 </r>
       <r>   12.1317    0.0000 </r>
       <r>   15.8701    0.0000 </r>
       <r>   16.8571    0.0000 </r>
       <r>   17.5665    0.0000 </r>
       <r>   18.9644    0.0000 </r>
      </set>
      <set comment="kpoint 8">
       <r>   -5.0538    1.0000 </r>
       <r>   -2.1198    1.0000 </r>
       <r>    2.5385    1.0000 </r>
       <r>    3.7597    1.0000 </r>
       <r>    8.3631    0.0000 </r>
       <r>    9.9266    0.0000 </r>
       <r>   10.4038    0.0000 </r>
       <r>   14.6567    0.0000 </r>
       <r>   15.1724    0.0000 </r>
       <r>   15.5939    0.0000 </r>
       <r>   17.4735    0.0000 </r>
       <r>   19.9144    0.0000 </r>
      </set>
      <set comment="kpoint 9">
       <r>   -6.0817    1.0000 </r>
       <r>   -0.3904    1.0000 </r>
       <r>    2.5471    1.0000 </r>
       <r>    4.3223    1.0000 </r>
       <r>    8.8129    0.0000 </r>
       <r>   10.1207    0.0000 </r>
       <r>   10.1744    0.0000 </r>
       <r>   13.0592    0.0000 </r>
       <r>   13.1344    0.0000 </r>
       <r>   16.2790    0.0000 </r>
       <r>   17.8770    0.0000 </r>
       <r>   18.8572    0.0000 </r>
      </set>
      <set comment="kpoint 10">
       <r>   -7.0784    1.0000 </r>
       <r>    1.9849    1.0000 </r>
       <r>    3.3157    1.0000 </r>
       <r>    4.9656    1.0000 </r>
       <r>    9.2839    0.0000 </r>
       <r>    9.5335    0.0000 </r>
       <r>    9.6930    0.0000 </r>
       <r>   11.9797    0.0000 </r>
       <r>   12.5435    0.0000 </r>
       <r>   15.0522    0.0000 </r>
       <r>   16.4853    0.0000 </r>
       <r>   17.7485    0.0000 </r>
      </set>
      <set comment="kpoint 11">
       <r>   -6.2991    1.0000 </r>
       <r>    0.8364    1.0000 </r>
       <r>    3.0765    1.0000 </r>
       <r>    3.0765    1.0000 </r>
       <r>    6.9437    0.0000 </r>
       <r>    8.7419    0.0000 </r>
       <r>   12.8329    0.0000 </r>
       <r>   12.8329    0.0000 </r>
       <r>   15.3651    0.0000 </r>
       <r>   15.8606    0.0000 </r>
       <r>   18.6388    0.0000 </r>
       <r>   20.0434    0.0000 </r>
      </set>
      <set comment="kpoint 12">
       <r>   -5.2984    1.0000 </r>
       <r>   -0.8516    1.0000 </r>
       <r>    2.0289    1.0000 </r>
       <r>    2.7827    1.0000 </r>
       <r>    7.2424    0.0000 </r>
       <r>    8.8241    0.0000 </r>
       <r>   13.0647    0.0000 </r>
       <r>   13.2378    0.0000 </r>
       <r>   17.5498    0.0000 </r>
       <r>   17.9999    0.0000 </r>
       <r>   18.2745    0.0000 </r>
       <r>   18.9585    0.0000 </r>
      </set>
      <set comment="kpoint 13">
       <r>   -4.2785    1.0000 </r>
       <r>   -2.1698    1.0000 </r>
       <r>    0.9785    1.0000 </r>
       <r>    2.9671    1.0000 </r>
       <r>    7.5087    0.0000 </r>
       <r>   11.2039    0.0000 </r>
       <r>   12.7055    0.0000 </r>
       <r>   12.7927    0.0000 </r>
       <r>   15.6035    0.0000 </r>
       <r>   15.6360    0.0000 </r>
       <r>   19.8683    0.0000 </r>
       <r>   20.5582    0.0000 </r>
      </set>
      <set comment="kpoint 14">
       <r>   -5.0012    1.0000 </r>
       <r>   -1.3295    1.0000 </r>
       <r>    0.8980    1.0000 </r>
       <r>    3.5736    1.0000 </r>
       <r>    8.1680    0.0000 </r>
       <r>   11.8713    0.0000 </r>
       <r>   12.0719    0.0000 </r>
       <r>   13.0699    0.0000 </r>
       <r>   13.2483    0.0000 </r>
       <r>   14.7005    0.0000 </r>
       <r>   19.8608    0.0000 </r>
       <r>   20.4085    0.0000 </r>
      </set>
      <set comment="kpoint 15">
       <r>   -4.4265    1.0000 </r>
       <r>   -1.9710    1.0000 </r>
       <r>    2.3667    1.0000 </r>
       <r>    2.3667    1.0000 </r>
       <r>    6.5621    0.0000 </r>
       <r>    7.1170    0.0000 </r>
       <r>   15.6747    0.0000 </r>
       <r>   15.6747    0.0000 </r>
       <r>   17.9132    0.0000 </r>
       <r>   18.4831    0.0000 </r>
       <r>   18.8011    0.0000 </r>
       <r>   18.8011    0.0000 </r>
      </set>
      <set comment="kpoint 16">
       <r>   -3.3680    1.0000 </r>
       <r>   -3.0437    1.0000 </r>
       <r>    1.4193    1.0000 </r>
       <r>    2.4345    1.0000 </r>
       <r>    6.8872    0.0000 </r>
       <r>    8.2152    0.0000 </r>
       <r>   15.4579    0.0000 </r>
       <r>   15.9327    0.0000 </r>
       <r>   16.0139    0.0000 </r>
       <r>   16.2799    0.0000 </r>
       <r>   20.5269    0.0000 </r>
       <r>   20.5928    0.0000 </r>
      </set>
      <set comment="kpoint 17">
       <r>   -5.9571    1.0000 </r>
       <r>    0.0096    1.0000 </r>
       <r>    2.0412    1.0000 </r>
       <r>    3.4777    1.0000 </r>
       <r>    8.7000    0.0000 </r>
       <r>   10.0424    0.0000 </r>
       <r>   10.3966    0.0000 </r>
       <r>   12.5527    0.0000 </r>
       <r>   14.7492    0.0000 </r>
       <r>   17.5723    0.0000 </r>
       <r>   18.1204    0.0000 </r>
       <r>   19.0491    0.0000 </r>
      </set>
      <set comment="kpoint 18">
       <r>   -4.8006    1.0000 </r>
       <r>   -1.7051    1.0000 </r>
       <r>    1.4042    1.0000 </r>
       <r>    2.8909    1.0000 </r>
       <r>    9.2187    0.0000 </r>
       <r>    9.6715    0.0000 </r>
       <r>   11.8113    0.0000 </r>
       <r>   13.0265    0.0000 </r>
       <r>   14.8675    0.0000 </r>
       <r>   16.5940    0.0000 </r>
       <r>   18.7168    0.0000 </r>
       <r>   20.1197    0.0000 </r>
      </set>
      <set comment="kpoint 19">
       <r>   -4.1984    1.0000 </r>
       <r>   -2.0676    1.0000 </r>
       <r>    1.4968    1.0000 </r>
       <r>    1.9461    1.0000 </r>
       <r>    8.2952    0.0000 </r>
       <r>    8.6884    0.0000 </r>
       <r>   12.5574    0.0000 </r>
       <r>   15.2621    0.0000 </r>
       <r>   15.7205    0.0000 </r>
       <r>   17.7429    0.0000 </r>
       <r>   19.2250    0.0000 </r>
       <r>   20.7525    0.0000 </r>
      </set>
      <set comment="kpoint 20">
       <r>   -3.7118    1.0000 </r>
       <r>   -2.5110    1.0000 </r>
       <r>    0.7943    1.0000 </r>
       <r>    2.0510    1.0000 </r>
       <r>    8.8576    0.0000 </r>
       <r>   11.0752    0.0000 </r>
       <r>   12.0604    0.0000 </r>
       <r>   12.1562    0.0000 </r>
       <r>   15.6813    0.0000 </r>
       <r>   16.8875    0.0000 </r>
       <r>   19.9701    0.0000 </r>
       <r>   21.2473    0.0000 </r>
      </set>
     </set>
     <set comment="spin 2">
      <set comment="kpoint 1">
       <r>   -7.8547    1.0000 </r>
       <r>    5.3920    1.0000 </r>
       <r>    5.3920    1.0000 </r>
       <r>    5.3920    1.0000 </r>
       <r>    8.7294    0.0000 </r>
       <r>    8.7294    0.0000 </r>
       <r>    8.7294    0.0000 </r>
       <r>    9.6396    0.0000 </r>
       <r>   14.1676    0.0000 </r>
       <r>   14.1915    0.0000 </r>
       <r>   14.1915    0.0000 </r>
       <r>   17.7135    0.0000 </r>
      </set>
      <set comment="kpoint 2">
       <r>   -7.5614    1.0000 </r>
       <r>    3.3334    1.0000 </r>
       <r>    5.0212    1.0000 </r>
       <r>    5.0212    1.0000 </r>
       <r>    8.5889    0.0000 </r>
       <r>    9.2787    0.0000 </r>
       <r>    9.2787    0.0000 </r>
       <r>   11.3450    0.0000 </r>
       <r>   13.5738    0.0000 </r>
       <r>   13.5738    0.0000 </r>
       <r>   15.2011    0.0000 </r>
       <r>   17.0273    0.0000 </r>
      </set>
      <set comment="kpoint 3">
       <r>   -6.7149    1.0000 </r>
       <r>    0.4100    1.0000 </r>
       <r>    4.4552    1.0000 </r>
       <r>    4.4552    1.0000 </r>
       <r>    8.0120    0.0000 </r>
       <r>    9.7631    0.0000 </r>
       <r>    9.7631    0.0000 </r>
       <r>   13.8904    0.0000 </r>
       <r>   13.8904    0.0000 </r>
       <r>   13.8969    0.0000 </r>
       <r>   15.2186    0.0000 </r>
       <r>   19.1262    0.0000 </r>
      </set>
      <set comment="kpoint 4">
       <r>   -5.5631    1.0000 </r>
       <r>   -1.8681    1.0000 </r>
       <r>    4.1283    1.0000 </r>
       <r>    4.1283    1.0000 </r>
       <r>    7.6645    0.0000 </r>
       <r>    9.5934    0.0000 </r>
       <r>    9.5934    0.0000 </r>
       <r>   14.0853    0.0000 </r>
       <r>   16.0502    0.0000 </r>
       <r>   16.0502    0.0000 </r>
       <r>   17.0977    0.0000 </r>
       <r>   19.2840    0.0000 </r>
      </set>
      <set comment="kpoint 5">
       <r>   -7.4621    1.0000 </r>
       <r>    3.6561    1.0000 </r>
       <r>    4.3687    1.0000 </r>
       <r>    4.3687    1.0000 </r>
       <r>    7.9738    0.0000 </r>
       <r>   10.2134    0.0000 </r>
       <r>   10.2134    0.0000 </r>
       <r>   10.7195    0.0000 </r>
       <r>   12.8271    0.0000 </r>
       <r>   14.6107    0.0000 </r>
       <r>   15.6397    0.0000 </r>
       <r>   18.3605    0.0000 </r>
      </set>
      <set comment="kpoint 6">
       <r>   -6.7917    1.0000 </r>
       <r>    1.2937    1.0000 </r>
       <r>    3.7536    1.0000 </r>
       <r>    3.7661    1.0000 </r>
       <r>    8.1549    0.0000 </r>
       <r>   10.1927    0.0000 </r>
       <r>   10.7767    0.0000 </r>
       <r>   11.0607    0.0000 </r>
       <r>   14.6851    0.0000 </r>
       <r>   15.0108    0.0000 </r>
       <r>   16.6088    0.0000 </r>
       <r>   18.5527    0.0000 </r>
      </set>
      <set comment="kpoint 7">
       <r>   -5.6747    1.0000 </r>
       <r>   -1.1537    1.0000 </r>
       <r>    2.9976    1.0000 </r>
       <r>    3.5471    1.0000 </r>
       <r>    8.2384    0.0000 </r>
       <r>   10.0485    0.0000 </r>
       <r>   10.8203    0.0000 </r>
       <r>   12.1298    0.0000 </r>
       <r>   15.8671    0.0000 </r>
       <r>   16.8555    0.0000 </r>
       <r>   17.5647    0.0000 </r>
       <r>   18.9628    0.0000 </r>
      </set>
      <set comment="kpoint 8">
       <r>   -5.0551    1.0000 </r>
       <r>   -2.1213    1.0000 </r>
       <r>    2.5370    1.0000 </r>
       <r>    3.7584    1.0000 </r>
       <r>    8.3613    0.0000 </r>
       <r>    9.9247    0.0000 </r>
       <r>   10.4022    0.0000 </r>
       <r>   14.6545    0.0000 </r>
       <r>   15.1701    0.0000 </r>
       <r>   15.5922    0.0000 </r>
       <r>   17.4711    0.0000 </r>
       <r>   19.9129    0.0000 </r>
      </set>
      <set comment="kpoint 9">
       <r>   -6.0830    1.0000 </r>
       <r>   -0.3918    1.0000 </r>
       <r>    2.5456    1.0000 </r>
       <r>    4.3210    1.0000 </r>
       <r>    8.8113    0.0000 </r>
       <r>   10.1188    0.0000 </r>
       <r>   10.1729    0.0000 </r>
       <r>   13.0572    0.0000 </r>
       <r>   13.1325    0.0000 </r>
       <r>   16.2762    0.0000 </r>
       <r>   17.8756    0.0000 </r>
       <r>   18.8551    0.0000 </r>
      </set>
      <set comment="kpoint 10">
       <r>   -7.0798    1.0000 </r>
       <r>    1.9836    1.0000 </r>
       <r>    3.3142    1.0000 </r>
       <r>    4.9644    1.0000 </r>
       <r>    9.2825    0.0000 </r>
       <r>    9.5321    0.0000 </r>
       <r>    9.6912    0.0000 </r>
       <r>   11.9780    0.0000 </r>
       <r>   12.5416    0.0000 </r>
       <r>   15.0507    0.0000 </r>
       <r>   16.4821    0.0000 </r>
       <r>   17.7456    0.0000 </r>
      </set>
      <set comment="kpoint 11">
       <r>   -6.3005    1.0000 </r>
       <r>    0.8352    1.0000 </r>
       <r>    3.0751    1.0000 </r>
       <r>    3.0751    1.0000 </r>
       <r>    6.9417    0.0000 </r>
       <r>    8.7396    0.0000 </r>
       <r>   12.8316    0.0000 </r>
       <r>   12.8316    0.0000 </r>
       <r>   15.3638    0.0000 </r>
       <r>   15.8591    0.0000 </r>
       <r>   18.6355    0.0000 </r>
       <r>   20.0414    0.0000 </r>
      </set>
      <set comment="kpoint 12">
       <r>   -5.2998    1.0000 </r>
       <r>   -0.8529    1.0000 </r>
       <r>    2.0273    1.0000 </r>
       <r>    2.7813    1.0000 </r>
       <r>    7.2403    0.0000 </r>
       <r>    8.8220    0.0000 </r>
       <r>   13.0632    0.0000 </r>
       <r>   13.2363    0.0000 </r>
       <r>   17.5483    0.0000 </r>
       <r>   17.9986    0.0000 </r>
       <r>   18.2723    0.0000 </r>
       <r>   18.9570    0.0000 </r>
      </set>
      <set comment="kpoint 13">
       <r>   -4.2798    1.0000 </r>
       <r>   -2.1711    1.0000 </r>
       <r>    0.9768    1.0000 </r>
       <r>    2.9658    1.0000 </r>
       <r>    7.5065    0.0000 </r>
       <r>   11.2018    0.0000 </r>
       <r>   12.7040    0.0000 </r>
       <r>   12.7912    0.0000 </r>
       <r>   15.6018    0.0000 </r>
       <r>   15.6342    0.0000 </r>
       <r>   19.8653    0.0000 </r>
       <r>   20.5568    0.0000 </r>
      </set>
      <set comment="kpoint 14">
       <r>   -5.0025    1.0000 </r>
       <r>   -1.3308    1.0000 </r>
       <r>    0.8964    1.0000 </r>
       <r>    3.5723    1.0000 </r>
       <r>    8.1660    0.0000 </r>
       <r>   11.8699    0.0000 </r>
       <r>   12.0697    0.0000 </r>
       <r>   13.0682    0.0000 </r>
       <r>   13.2464    0.0000 </r>
       <r>   14.6989    0.0000 </r>
       <r>   19.8579    0.0000 </r>
       <r>   20.4055    0.0000 </r>
      </set>
      <set comment="kpoint 15">
       <r>   -4.4279    1.0000 </r>
       <r>   -1.9722    1.0000 </r>
       <r>    2.3654    1.0000 </r>
       <r>    2.3654    1.0000 </r>
       <r>    6.5599    0.0000 </r>
       <r>    7.1147    0.0000 </r>
       <r>   15.6733    0.0000 </r>
       <r>   15.6733    0.0000 </r>
       <r>   17.9117    0.0000 </r>
       <r>   18.4816    0.0000 </r>
       <r>   18.7996    0.0000 </r>
       <r>   18.7996    0.0000 </r>
      </set>
      <set comment="kpoint 16">
       <r>   -3.3693    1.0000 </r>
       <r>   -3.0450    1.0000 </r>
       <r>    1.4177    1.0000 </r>
       <r>    2.4331    1.0000 </r>
       <r>    6.8850    0.0000 </r>
       <r>    8.2131    0.0000 </r>
       <r>   15.4566    0.0000 </r>
       <r>   15.9314    0.0000 </r>
       <r>   16.0122    0.0000 </r>
       <r>   16.2782    0.0000 </r>
       <r>   20.5257    0.0000 </r>
       <r>   20.5910    0.0000 </r>
      </set>
      <set comment="kpoint 17">
       <r>   -5.9585    1.0000 </r>
       <r>    0.0083    1.0000 </r>
       <r>    2.0396    1.0000 </r>
       <r>    3.4764    1.0000 </r>
       <r>    8.6981    0.0000 </r>
       <r>   10.0402    0.0000 </r>
       <r>   10.3950    0.0000 </r>
       <r>   12.5512    0.0000 </r>
       <r>   14.7476    0.0000 </r>
       <r>   17.5700    0.0000 </r>
       <r>   18.1191    0.0000 </r>
       <r>   19.0462    0.0000 </r>
      </set>
      <set comment="kpoint 18">
       <r>   -4.8019    1.0000 </r>
       <r>   -1.7065    1.0000 </r>
       <r>    1.4026    1.0000 </r>
       <r>    2.8894    1.0000 </r>
       <r>    9.2167    0.0000 </r>
       <r>    9.6696    0.0000 </r>
       <r>   11.8094    0.0000 </r>
       <r>   13.0250    0.0000 </r>
       <r>   14.8658    0.0000 </r>
       <r>   16.5923    0.0000 </r>
       <r>   18.7141    0.0000 </r>
       <r>   20.1177    0.0000 </r>
      </set>
      <set comment="kpoint 19">
       <r>   -4.1997    1.0000 </r>
       <r>   -2.0688    1.0000 </r>
       <r>    1.4952    1.0000 </r>
       <r>    1.9446    1.0000 </r>
       <r>    8.2931    0.0000 </r>
       <r>    8.6863    0.0000 </r>
       <r>   12.5558    0.0000 </r>
       <r>   15.2605    0.0000 </r>
       <r>   15.7190    0.0000 </r>
       <r>   17.7415    0.0000 </r>
       <r>   19.2235    0.0000 </r>
       <r>   20.7504    0.0000 </r>
      </set>
      <set comment="kpoint 20">
       <r>   -3.7130    1.0000 </r>
       <r>   -2.5123    1.0000 </r>
       <r>    0.7927    1.0000 </r>
       <r>    2.0495    1.0000 </r>
       <r>    8.8555    0.0000 </r>
       <r>   11.0730    0.0000 </r>
       <r>   12.0589    0.0000 </r>
       <r>   12.1545    0.0000 </r>
       <r>   15.6798    0.0000 </r>
       <r>   16.8860    0.0000 </r>
       <r>   19.9685    0.0000 </r>
       <r>   21.2456    0.0000 </r>
      </set>
     </set>
    </set>
   </array>
  </eigenvalues>
  <separator name="orbital magnetization" >
   <v name="MAGDIPOLOUT">      0.00000000      0.00000000      0.00000000</v>
  </separator>
  <dos>
   <i name="efermi">      5.48604092 </i>
   <total>
    <array>
     <dimension dim="1">gridpoints</dimension>
     <dimension dim="2">spin</dimension>
     <field>energy</field>
     <field>total</field>
     <field>integrated</field>
     <set>
      <set comment="spin 1">
       <r>    -9.8547     0.0000     0.0000 </r>
       <r>    -9.7443     0.0000     0.0000 </r>
       <r>    -9.6340     0.0000     0.0000 </r>
       <r>    -9.5237     0.0000     0.0000 </r>
       <r>    -9.4133     0.0000     0.0000 </r>
       <r>    -9.3030     0.0000     0.0000 </r>
       <r>    -9.1926     0.0000     0.0000 </r>
       <r>    -9.0823     0.0000     0.0000 </r>
       <r>    -8.9720     0.0000     0.0000 </r>
       <r>    -8.8616     0.0000     0.0000 </r>
       <r>    -8.7513     0.0000     0.0000 </r>
       <r>    -8.6409     0.0000     0.0000 </r>
       <r>    -8.5306     0.0000     0.0000 </r>
       <r>    -8.4203     0.0000     0.0000 </r>
       <r>    -8.3099     0.0000     0.0000 </r>
       <r>    -8.1996     0.0000     0.0000 </r>
       <r>    -8.0892     0.0000     0.0000 </r>
       <r>    -7.9789     0.0000     0.0000 </r>
       <r>    -7.8686     0.0000     0.0000 </r>
       <r>    -7.7582     0.0094     0.0003 </r>
       <r>    -7.6479     0.0437     0.0030 </r>
       <r>    -7.5375     0.0828     0.0106 </r>
       <r>    -7.4272     0.0827     0.0194 </r>
       <r>    -7.3169     0.0967     0.0293 </r>
       <r>    -7.2065     0.1117     0.0407 </r>
       <r>    -7.0962     0.1277     0.0539 </r>
       <r>    -6.9858     0.1423     0.0689 </r>
       <r>    -6.8755     0.1515     0.0851 </r>
       <r>    -6.7652     0.1562     0.1021 </r>
       <r>    -6.6548     0.1660     0.1199 </r>
       <r>    -6.5445     0.1769     0.1388 </r>
       <r>    -6.4341     0.1883     0.1589 </r>
       <r>    -6.3238     0.2000     0.1803 </r>
       <r>    -6.2135     0.2121     0.2031 </r>
       <r>    -6.1031     0.2247     0.2272 </r>
       <r>    -5.9928     0.2354     0.2525 </r>
       <r>    -5.8824     0.2493     0.2793 </r>
       <r>    -5.7721     0.2652     0.3076 </r>
       <r>    -5.6618     0.2829     0.3379 </r>
       <r>    -5.5514     0.3139     0.3705 </r>
       <r>    -5.4411     0.3650     0.4082 </r>
       <r>    -5.3307     0.3929     0.4502 </r>
       <r>    -5.2204     0.3974     0.4940 </r>
       <r>    -5.1101     0.3782     0.5370 </r>
       <r>    -4.9997     0.3870     0.5780 </r>
       <r>    -4.8894     0.4080     0.6225 </r>
       <r>    -4.7790     0.3706     0.6657 </r>
       <r>    -4.6687     0.3440     0.7050 </r>
       <r>    -4.5584     0.3227     0.7418 </r>
       <r>    -4.4480     0.3066     0.7764 </r>
       <r>    -4.3377     0.2981     0.8097 </r>
       <r>    -4.2273     0.2907     0.8423 </r>
       <r>    -4.1170     0.2981     0.8745 </r>
       <r>    -4.0067     0.2950     0.9075 </r>
       <r>    -3.8963     0.2704     0.9388 </r>
       <r>    -3.7860     0.2241     0.9663 </r>
       <r>    -3.6756     0.1190     0.9880 </r>
       <r>    -3.5653     0.0495     0.9957 </r>
       <r>    -3.4550     0.0175     0.9993 </r>
       <r>    -3.3446     0.0000     1.0000 </r>
       <r>    -3.2343     0.0000     1.0000 </r>
       <r>    -3.1239     0.0000     1.0000 </r>
       <r>    -3.0136     0.0043     1.0001 </r>
       <r>    -2.9033     0.0237     1.0015 </r>
       <r>    -2.7929     0.0490     1.0055 </r>
       <r>    -2.6826     0.0804     1.0126 </r>
       <r>    -2.5722     0.1177     1.0235 </r>
       <r>    -2.4619     0.2796     1.0459 </r>
       <r>    -2.3516     0.3135     1.0774 </r>
       <r>    -2.2412     0.3542     1.1144 </r>
       <r>    -2.1309     0.3904     1.1550 </r>
       <r>    -2.0205     0.6457     1.2128 </r>
       <r>    -1.9102     0.6880     1.2887 </r>
       <r>    -1.7999     0.5725     1.3582 </r>
       <r>    -1.6895     0.4002     1.4117 </r>
       <r>    -1.5792     0.3450     1.4527 </r>
       <r>    -1.4688     0.3029     1.4884 </r>
       <r>    -1.3585     0.2738     1.5201 </r>
       <r>    -1.2482     0.2551     1.5492 </r>
       <r>    -1.1378     0.2399     1.5765 </r>
       <r>    -1.0275     0.2264     1.6022 </r>
       <r>    -0.9171     0.2138     1.6265 </r>
       <r>    -0.8068     0.2018     1.6494 </r>
       <r>    -0.6965     0.1903     1.6710 </r>
       <r>    -0.5861     0.1795     1.6914 </r>
       <r>    -0.4758     0.1695     1.7106 </r>
       <r>    -0.3654     0.1575     1.7288 </r>
       <r>    -0.2551     0.1396     1.7451 </r>
       <r>    -0.1448     0.1267     1.7598 </r>
       <r>    -0.0344     0.1187     1.7733 </r>
       <r>     0.0759     0.1148     1.7861 </r>
       <r>     0.1863     0.1114     1.7986 </r>
       <r>     0.2966     0.1082     1.8107 </r>
       <r>     0.4069     0.1050     1.8225 </r>
       <r>     0.5173     0.1019     1.8339 </r>
       <r>     0.6276     0.0988     1.8450 </r>
       <r>     0.7380     0.0957     1.8557 </r>
       <r>     0.8483     0.2531     1.8734 </r>
       <r>     0.9586     0.5184     1.9188 </r>
       <r>     1.0690     0.5374     1.9749 </r>
       <r>     1.1793     0.5673     2.0362 </r>
       <r>     1.2897     0.5498     2.0983 </r>
       <r>     1.4000     0.4876     2.1559 </r>
       <r>     1.5104     0.5059     2.2144 </r>
       <r>     1.6207     0.4491     2.2642 </r>
       <r>     1.7310     0.4431     2.3135 </r>
       <r>     1.8414     0.4348     2.3619 </r>
       <r>     1.9517     0.4509     2.4094 </r>
       <r>     2.0621     0.5886     2.4861 </r>
       <r>     2.1724     0.6013     2.5500 </r>
       <r>     2.2827     0.6664     2.6197 </r>
       <r>     2.3931     0.8643     2.6999 </r>
       <r>     2.5034     0.6912     2.7812 </r>
       <r>     2.6138     0.6888     2.8575 </r>
       <r>     2.7241     0.6817     2.9331 </r>
       <r>     2.8344     0.6700     3.0077 </r>
       <r>     2.9448     0.6781     3.0819 </r>
       <r>     3.0551     0.6742     3.1566 </r>
       <r>     3.1655     0.6688     3.2307 </r>
       <r>     3.2758     0.6598     3.3040 </r>
       <r>     3.3861     0.6451     3.3761 </r>
       <r>     3.4965     0.6281     3.4463 </r>
       <r>     3.6068     0.6118     3.5146 </r>
       <r>     3.7172     0.6223     3.5824 </r>
       <r>     3.8275     0.6084     3.6513 </r>
       <r>     3.9378     0.5501     3.7154 </r>
       <r>     4.0482     0.4682     3.7718 </r>
       <r>     4.1585     0.3785     3.8181 </r>
       <r>     4.2689     0.3156     3.8565 </r>
       <r>     4.3792     0.2442     3.8873 </r>
       <r>     4.4895     0.2040     3.9117 </r>
       <r>     4.5999     0.1770     3.9327 </r>
       <r>     4.7102     0.1548     3.9509 </r>
       <r>     4.8206     0.1371     3.9670 </r>
       <r>     4.9309     0.1241     3.9814 </r>
       <r>     5.0412     0.0622     3.9927 </r>
       <r>     5.1516     0.0293     3.9976 </r>
       <r>     5.2619     0.0087     3.9996 </r>
       <r>     5.3723     0.0002     4.0000 </r>
       <r>     5.4826     0.0000     4.0000 </r>
       <r>     5.5929     0.0000     4.0000 </r>
       <r>     5.7033     0.0000     4.0000 </r>
       <r>     5.8136     0.0000     4.0000 </r>
       <r>     5.9240     0.0000     4.0000 </r>
       <r>     6.0343     0.0000     4.0000 </r>
       <r>     6.1446     0.0000     4.0000 </r>
       <r>     6.2550     0.0000     4.0000 </r>
       <r>     6.3653     0.0000     4.0000 </r>
       <r>     6.4757     0.0000     4.0000 </r>
       <r>     6.5860     0.0077     4.0001 </r>
       <r>     6.6963     0.0372     4.0027 </r>
       <r>     6.8067     0.0569     4.0079 </r>
       <r>     6.9170     0.0732     4.0149 </r>
       <r>     7.0274     0.1037     4.0247 </r>
       <r>     7.1377     0.1268     4.0375 </r>
       <r>     7.2480     0.1454     4.0526 </r>
       <r>     7.3584     0.1742     4.0702 </r>
       <r>     7.4687     0.2029     4.0910 </r>
       <r>     7.5791     0.2319     4.1150 </r>
       <r>     7.6894     0.2681     4.1424 </r>
       <r>     7.7997     0.3293     4.1752 </r>
       <r>     7.9101     0.4066     4.2156 </r>
       <r>     8.0204     0.5013     4.2655 </r>
       <r>     8.1308     0.6585     4.3287 </r>
       <r>     8.2411     0.8386     4.4123 </r>
       <r>     8.3514     0.8980     4.5091 </r>
       <r>     8.4618     0.9376     4.6102 </r>
       <r>     8.5721     0.9645     4.7153 </r>
       <r>     8.6825     0.9085     4.8191 </r>
       <r>     8.7928     0.8636     4.9172 </r>
       <r>     8.9031     0.6935     5.0060 </r>
       <r>     9.0135     0.5085     5.0709 </r>
       <r>     9.1238     0.3517     5.1183 </r>
       <r>     9.2342     0.2221     5.1487 </r>
       <r>     9.3445     0.2738     5.1757 </r>
       <r>     9.4548     0.3445     5.2097 </r>
       <r>     9.5652     0.4231     5.2520 </r>
       <r>     9.6755     0.5926     5.3062 </r>
       <r>     9.7859     1.0186     5.3943 </r>
       <r>     9.8962     1.4822     5.5322 </r>
       <r>    10.0065     1.4726     5.7022 </r>
       <r>    10.1169     1.2177     5.8595 </r>
       <r>    10.2272     0.6415     5.9512 </r>
       <r>    10.3376     0.6283     6.0212 </r>
       <r>    10.4479     0.6212     6.0902 </r>
       <r>    10.5582     0.5886     6.1572 </r>
       <r>    10.6686     0.5274     6.2191 </r>
       <r>    10.7789     0.4397     6.2726 </r>
       <r>    10.8893     0.4151     6.3191 </r>
       <r>    10.9996     0.4180     6.3650 </r>
       <r>    11.1099     0.4382     6.4141 </r>
       <r>    11.2203     0.4311     6.4607 </r>
       <r>    11.3306     0.4040     6.5068 </r>
       <r>    11.4410     0.3686     6.5494 </r>
       <r>    11.5513     0.3419     6.5885 </r>
       <r>    11.6616     0.3258     6.6253 </r>
       <r>    11.7720     0.3202     6.6608 </r>
       <r>    11.8823     0.4898     6.7027 </r>
       <r>    11.9927     0.5999     6.7645 </r>
       <r>    12.1030     0.6396     6.8343 </r>
       <r>    12.2133     0.5935     6.9020 </r>
       <r>    12.3237     0.5414     6.9629 </r>
       <r>    12.4340     0.5411     7.0224 </r>
       <r>    12.5444     0.5661     7.0832 </r>
       <r>    12.6547     0.6309     7.1489 </r>
       <r>    12.7650     0.7403     7.2240 </r>
       <r>    12.8754     0.8392     7.3119 </r>
       <r>    12.9857     0.8779     7.4071 </r>
       <r>    13.0961     0.5972     7.4914 </r>
       <r>    13.2064     0.5842     7.5564 </r>
       <r>    13.3167     0.5719     7.6201 </r>
       <r>    13.4271     0.5588     7.6825 </r>
       <r>    13.5374     0.5427     7.7433 </r>
       <r>    13.6478     0.5298     7.8024 </r>
       <r>    13.7581     0.5165     7.8601 </r>
       <r>    13.8684     0.4997     7.9162 </r>
       <r>    13.9788     0.4814     7.9703 </r>
       <r>    14.0891     0.4663     8.0226 </r>
       <r>    14.1995     0.4709     8.0744 </r>
       <r>    14.3098     0.4660     8.1262 </r>
       <r>    14.4201     0.4536     8.1770 </r>
       <r>    14.5305     0.4338     8.2260 </r>
       <r>    14.6408     0.4068     8.2724 </r>
       <r>    14.7512     0.4467     8.3189 </r>
       <r>    14.8615     0.4775     8.3695 </r>
       <r>    14.9718     0.6524     8.4320 </r>
       <r>    15.0822     0.6732     8.5061 </r>
       <r>    15.1925     0.6863     8.5814 </r>
       <r>    15.3029     0.7124     8.6585 </r>
       <r>    15.4132     0.7350     8.7384 </r>
       <r>    15.5235     0.7761     8.8214 </r>
       <r>    15.6339     0.8473     8.9087 </r>
       <r>    15.7442     1.1537     9.0310 </r>
       <r>    15.8546     0.8499     9.1318 </r>
       <r>    15.9649     0.7176     9.2172 </r>
       <r>    16.0752     0.7002     9.2945 </r>
       <r>    16.1856     0.7151     9.3729 </r>
       <r>    16.2959     0.7023     9.4513 </r>
       <r>    16.4063     0.6715     9.5272 </r>
       <r>    16.5166     0.6325     9.5992 </r>
       <r>    16.6269     0.5995     9.6665 </r>
       <r>    16.7373     0.6017     9.7331 </r>
       <r>    16.8476     0.5698     9.7980 </r>
       <r>    16.9580     0.5911     9.8640 </r>
       <r>    17.0683     0.5320     9.9242 </r>
       <r>    17.1786     0.5515     9.9834 </r>
       <r>    17.2890     0.5908    10.0463 </r>
       <r>    17.3993     0.6341    10.1139 </r>
       <r>    17.5097     0.6091    10.1850 </r>
       <r>    17.6200     0.5291    10.2471 </r>
       <r>    17.7303     0.4884    10.3030 </r>
       <r>    17.8407     0.4743    10.3560 </r>
       <r>    17.9510     0.4535    10.4074 </r>
       <r>    18.0614     0.4251    10.4557 </r>
       <r>    18.1717     0.4187    10.5018 </r>
       <r>    18.2820     0.4917    10.5516 </r>
       <r>    18.3924     0.4868    10.6055 </r>
       <r>    18.5027     0.4781    10.6588 </r>
       <r>    18.6131     0.4731    10.7109 </r>
       <r>    18.7234     0.5245    10.7654 </r>
       <r>    18.8337     0.6433    10.8290 </r>
       <r>    18.9441     0.8034    10.9093 </r>
       <r>    19.0544     0.7638    10.9968 </r>
       <r>    19.1648     0.6829    11.0771 </r>
       <r>    19.2751     0.6447    11.1494 </r>
       <r>    19.3854     0.6654    11.2218 </r>
       <r>    19.4958     0.6713    11.2957 </r>
       <r>    19.6061     0.6601    11.3693 </r>
       <r>    19.7165     0.6319    11.4407 </r>
       <r>    19.8268     0.5867    11.5081 </r>
       <r>    19.9371     0.5772    11.5808 </r>
       <r>    20.0475     0.5268    11.6413 </r>
       <r>    20.1578     0.4421    11.6933 </r>
       <r>    20.2682     0.3933    11.7394 </r>
       <r>    20.3785     0.3411    11.7799 </r>
       <r>    20.4888     0.3044    11.8150 </r>
       <r>    20.5992     0.3722    11.8508 </r>
       <r>    20.7095     0.3921    11.8949 </r>
       <r>    20.8199     0.2822    11.9318 </r>
       <r>    20.9302     0.2005    11.9582 </r>
       <r>    21.0405     0.1376    11.9767 </r>
       <r>    21.1509     0.0936    11.9893 </r>
       <r>    21.2612     0.0264    12.0000 </r>
       <r>    21.3716     0.0000    12.0000 </r>
       <r>    21.4819     0.0000    12.0000 </r>
       <r>    21.5922     0.0000    12.0000 </r>
       <r>    21.7026     0.0000    12.0000 </r>
       <r>    21.8129     0.0000    12.0000 </r>
       <r>    21.9233     0.0000    12.0000 </r>
       <r>    22.0336     0.0000    12.0000 </r>
       <r>    22.1439     0.0000    12.0000 </r>
       <r>    22.2543     0.0000    12.0000 </r>
       <r>    22.3646     0.0000    12.0000 </r>
       <r>    22.4750     0.0000    12.0000 </r>
       <r>    22.5853     0.0000    12.0000 </r>
       <r>    22.6956     0.0000    12.0000 </r>
       <r>    22.8060     0.0000    12.0000 </r>
       <r>    22.9163     0.0000    12.0000 </r>
       <r>    23.0267     0.0000    12.0000 </r>
       <r>    23.1370     0.0000    12.0000 </r>
       <r>    23.2473     0.0000    12.0000 </r>
      </set>
      <set comment="spin 2">
       <r>    -9.8547     0.0000     0.0000 </r>
       <r>    -9.7443     0.0000     0.0000 </r>
       <r>    -9.6340     0.0000     0.0000 </r>
       <r>    -9.5237     0.0000     0.0000 </r>
       <r>    -9.4133     0.0000     0.0000 </r>
       <r>    -9.3030     0.0000     0.0000 </r>
       <r>    -9.1926     0.0000     0.0000 </r>
       <r>    -9.0823     0.0000     0.0000 </r>
       <r>    -8.9720     0.0000     0.0000 </r>
       <r>    -8.8616     0.0000     0.0000 </r>
       <r>    -8.7513     0.0000     0.0000 </r>
       <r>    -8.6409     0.0000     0.0000 </r>
       <r>    -8.5306     0.0000     0.0000 </r>
       <r>    -8.4203     0.0000     0.0000 </r>
       <r>    -8.3099     0.0000     0.0000 </r>
       <r>    -8.1996     0.0000     0.0000 </r>
       <r>    -8.0892     0.0000     0.0000 </r>
       <r>    -7.9789     0.0000     0.0000 </r>
       <r>    -7.8686     0.0000     0.0000 </r>
       <r>    -7.7582     0.0096     0.0003 </r>
       <r>    -7.6479     0.0443     0.0031 </r>
       <r>    -7.5375     0.0825     0.0108 </r>
       <r>    -7.4272     0.0828     0.0195 </r>
       <r>    -7.3169     0.0969     0.0294 </r>
       <r>    -7.2065     0.1119     0.0409 </r>
       <r>    -7.0962     0.1279     0.0541 </r>
       <r>    -6.9858     0.1425     0.0691 </r>
       <r>    -6.8755     0.1516     0.0854 </r>
       <r>    -6.7652     0.1563     0.1023 </r>
       <r>    -6.6548     0.1661     0.1201 </r>
       <r>    -6.5445     0.1771     0.1390 </r>
       <r>    -6.4341     0.1884     0.1592 </r>
       <r>    -6.3238     0.2001     0.1806 </r>
       <r>    -6.2135     0.2122     0.2034 </r>
       <r>    -6.1031     0.2248     0.2275 </r>
       <r>    -5.9928     0.2355     0.2529 </r>
       <r>    -5.8824     0.2495     0.2796 </r>
       <r>    -5.7721     0.2654     0.3080 </r>
       <r>    -5.6618     0.2832     0.3382 </r>
       <r>    -5.5514     0.3147     0.3709 </r>
       <r>    -5.4411     0.3655     0.4087 </r>
       <r>    -5.3307     0.3930     0.4507 </r>
       <r>    -5.2204     0.3973     0.4945 </r>
       <r>    -5.1101     0.3779     0.5375 </r>
       <r>    -4.9997     0.3876     0.5785 </r>
       <r>    -4.8894     0.4078     0.6230 </r>
       <r>    -4.7790     0.3703     0.6661 </r>
       <r>    -4.6687     0.3437     0.7055 </r>
       <r>    -4.5584     0.3224     0.7422 </r>
       <r>    -4.4480     0.3064     0.7768 </r>
       <r>    -4.3377     0.2980     0.8101 </r>
       <r>    -4.2273     0.2905     0.8427 </r>
       <r>    -4.1170     0.2982     0.8749 </r>
       <r>    -4.0067     0.2949     0.9078 </r>
       <r>    -3.8963     0.2700     0.9392 </r>
       <r>    -3.7860     0.2235     0.9666 </r>
       <r>    -3.6756     0.1184     0.9881 </r>
       <r>    -3.5653     0.0491     0.9958 </r>
       <r>    -3.4550     0.0172     0.9993 </r>
       <r>    -3.3446     0.0000     1.0000 </r>
       <r>    -3.2343     0.0000     1.0000 </r>
       <r>    -3.1239     0.0000     1.0000 </r>
       <r>    -3.0136     0.0045     1.0001 </r>
       <r>    -2.9033     0.0239     1.0016 </r>
       <r>    -2.7929     0.0494     1.0056 </r>
       <r>    -2.6826     0.0808     1.0127 </r>
       <r>    -2.5722     0.1182     1.0236 </r>
       <r>    -2.4619     0.2804     1.0462 </r>
       <r>    -2.3516     0.3141     1.0778 </r>
       <r>    -2.2412     0.3545     1.1148 </r>
       <r>    -2.1309     0.3918     1.1555 </r>
       <r>    -2.0205     0.6479     1.2137 </r>
       <r>    -1.9102     0.6868     1.2897 </r>
       <r>    -1.7999     0.5708     1.3590 </r>
       <r>    -1.6895     0.3994     1.4123 </r>
       <r>    -1.5792     0.3444     1.4532 </r>
       <r>    -1.4688     0.3024     1.4888 </r>
       <r>    -1.3585     0.2735     1.5204 </r>
       <r>    -1.2482     0.2548     1.5495 </r>
       <r>    -1.1378     0.2397     1.5768 </r>
       <r>    -1.0275     0.2263     1.6025 </r>
       <r>    -0.9171     0.2137     1.6267 </r>
       <r>    -0.8068     0.2016     1.6497 </r>
       <r>    -0.6965     0.1901     1.6713 </r>
       <r>    -0.5861     0.1794     1.6916 </r>
       <r>    -0.4758     0.1694     1.7109 </r>
       <r>    -0.3654     0.1573     1.7290 </r>
       <r>    -0.2551     0.1394     1.7453 </r>
       <r>    -0.1448     0.1266     1.7600 </r>
       <r>    -0.0344     0.1186     1.7734 </r>
       <r>     0.0759     0.1148     1.7863 </r>
       <r>     0.1863     0.1114     1.7988 </r>
       <r>     0.2966     0.1081     1.8109 </r>
       <r>     0.4069     0.1050     1.8226 </r>
       <r>     0.5173     0.1019     1.8341 </r>
       <r>     0.6276     0.0988     1.8451 </r>
       <r>     0.7380     0.0956     1.8559 </r>
       <r>     0.8483     0.2576     1.8738 </r>
       <r>     0.9586     0.5164     1.9196 </r>
       <r>     1.0690     0.5381     1.9757 </r>
       <r>     1.1793     0.5673     2.0371 </r>
       <r>     1.2897     0.5491     2.0992 </r>
       <r>     1.4000     0.4864     2.1567 </r>
       <r>     1.5104     0.5058     2.2151 </r>
       <r>     1.6207     0.4490     2.2649 </r>
       <r>     1.7310     0.4429     2.3141 </r>
       <r>     1.8414     0.4346     2.3626 </r>
       <r>     1.9517     0.4579     2.4101 </r>
       <r>     2.0621     0.5889     2.4869 </r>
       <r>     2.1724     0.6019     2.5509 </r>
       <r>     2.2827     0.6673     2.6207 </r>
       <r>     2.3931     0.8659     2.7011 </r>
       <r>     2.5034     0.6911     2.7822 </r>
       <r>     2.6138     0.6887     2.8584 </r>
       <r>     2.7241     0.6815     2.9340 </r>
       <r>     2.8344     0.6699     3.0087 </r>
       <r>     2.9448     0.6780     3.0829 </r>
       <r>     3.0551     0.6740     3.1575 </r>
       <r>     3.1655     0.6686     3.2316 </r>
       <r>     3.2758     0.6596     3.3049 </r>
       <r>     3.3861     0.6448     3.3770 </r>
       <r>     3.4965     0.6279     3.4472 </r>
       <r>     3.6068     0.6117     3.5154 </r>
       <r>     3.7172     0.6225     3.5832 </r>
       <r>     3.8275     0.6078     3.6520 </r>
       <r>     3.9378     0.5493     3.7161 </r>
       <r>     4.0482     0.4671     3.7724 </r>
       <r>     4.1585     0.3778     3.8185 </r>
       <r>     4.2689     0.3148     3.8569 </r>
       <r>     4.3792     0.2435     3.8876 </r>
       <r>     4.4895     0.2036     3.9120 </r>
       <r>     4.5999     0.1767     3.9329 </r>
       <r>     4.7102     0.1545     3.9511 </r>
       <r>     4.8206     0.1369     3.9672 </r>
       <r>     4.9309     0.1240     3.9815 </r>
       <r>     5.0412     0.0618     3.9928 </r>
       <r>     5.1516     0.0290     3.9977 </r>
       <r>     5.2619     0.0085     3.9996 </r>
       <r>     5.3723     0.0002     4.0000 </r>
       <r>     5.4826     0.0000     4.0000 </r>
       <r>     5.5929     0.0000     4.0000 </r>
       <r>     5.7033     0.0000     4.0000 </r>
       <r>     5.8136     0.0000     4.0000 </r>
       <r>     5.9240     0.0000     4.0000 </r>
       <r>     6.0343     0.0000     4.0000 </r>
       <r>     6.1446     0.0000     4.0000 </r>
       <r>     6.2550     0.0000     4.0000 </r>
       <r>     6.3653     0.0000     4.0000 </r>
       <r>     6.4757     0.0000     4.0000 </r>
       <r>     6.5860     0.0084     4.0001 </r>
       <r>     6.6963     0.0377     4.0027 </r>
       <r>     6.8067     0.0571     4.0081 </r>
       <r>     6.9170     0.0738     4.0151 </r>
       <r>     7.0274     0.1042     4.0250 </r>
       <r>     7.1377     0.1272     4.0378 </r>
       <r>     7.2480     0.1459     4.0529 </r>
       <r>     7.3584     0.1748     4.0706 </r>
       <r>     7.4687     0.2034     4.0914 </r>
       <r>     7.5791     0.2325     4.1155 </r>
       <r>     7.6894     0.2690     4.1429 </r>
       <r>     7.7997     0.3304     4.1759 </r>
       <r>     7.9101     0.4081     4.2164 </r>
       <r>     8.0204     0.5031     4.2665 </r>
       <r>     8.1308     0.6619     4.3299 </r>
       <r>     8.2411     0.8404     4.4139 </r>
       <r>     8.3514     0.8980     4.5108 </r>
       <r>     8.4618     0.9381     4.6120 </r>
       <r>     8.5721     0.9647     4.7171 </r>
       <r>     8.6825     0.9078     4.8208 </r>
       <r>     8.7928     0.8626     4.9189 </r>
       <r>     8.9031     0.6909     5.0073 </r>
       <r>     9.0135     0.5058     5.0719 </r>
       <r>     9.1238     0.3490     5.1190 </r>
       <r>     9.2342     0.2226     5.1492 </r>
       <r>     9.3445     0.2747     5.1762 </r>
       <r>     9.4548     0.3455     5.2103 </r>
       <r>     9.5652     0.4242     5.2527 </r>
       <r>     9.6755     0.5985     5.3073 </r>
       <r>     9.7859     1.0259     5.3960 </r>
       <r>     9.8962     1.4897     5.5348 </r>
       <r>    10.0065     1.4702     5.7048 </r>
       <r>    10.1169     1.1967     5.8616 </r>
       <r>    10.2272     0.6412     5.9524 </r>
       <r>    10.3376     0.6282     6.0223 </r>
       <r>    10.4479     0.6209     6.0913 </r>
       <r>    10.5582     0.5879     6.1583 </r>
       <r>    10.6686     0.5262     6.2200 </r>
       <r>    10.7789     0.4383     6.2734 </r>
       <r>    10.8893     0.4149     6.3199 </r>
       <r>    10.9996     0.4180     6.3657 </r>
       <r>    11.1099     0.4384     6.4148 </r>
       <r>    11.2203     0.4306     6.4615 </r>
       <r>    11.3306     0.4035     6.5075 </r>
       <r>    11.4410     0.3681     6.5501 </r>
       <r>    11.5513     0.3416     6.5891 </r>
       <r>    11.6616     0.3256     6.6258 </r>
       <r>    11.7720     0.3202     6.6614 </r>
       <r>    11.8823     0.4928     6.7035 </r>
       <r>    11.9927     0.5999     6.7655 </r>
       <r>    12.1030     0.6385     6.8353 </r>
       <r>    12.2133     0.5930     6.9029 </r>
       <r>    12.3237     0.5413     6.9638 </r>
       <r>    12.4340     0.5413     7.0233 </r>
       <r>    12.5444     0.5666     7.0841 </r>
       <r>    12.6547     0.6321     7.1499 </r>
       <r>    12.7650     0.7423     7.2252 </r>
       <r>    12.8754     0.8402     7.3132 </r>
       <r>    12.9857     0.8783     7.4085 </r>
       <r>    13.0961     0.5969     7.4924 </r>
       <r>    13.2064     0.5842     7.5574 </r>
       <r>    13.3167     0.5718     7.6211 </r>
       <r>    13.4271     0.5587     7.6835 </r>
       <r>    13.5374     0.5425     7.7443 </r>
       <r>    13.6478     0.5296     7.8033 </r>
       <r>    13.7581     0.5163     7.8611 </r>
       <r>    13.8684     0.4993     7.9171 </r>
       <r>    13.9788     0.4811     7.9712 </r>
       <r>    14.0891     0.4669     8.0234 </r>
       <r>    14.1995     0.4710     8.0753 </r>
       <r>    14.3098     0.4658     8.1270 </r>
       <r>    14.4201     0.4532     8.1778 </r>
       <r>    14.5305     0.4332     8.2267 </r>
       <r>    14.6408     0.4062     8.2731 </r>
       <r>    14.7512     0.4470     8.3196 </r>
       <r>    14.8615     0.4784     8.3703 </r>
       <r>    14.9718     0.6550     8.4331 </r>
       <r>    15.0822     0.6742     8.5074 </r>
       <r>    15.1925     0.6869     8.5827 </r>
       <r>    15.3029     0.7130     8.6599 </r>
       <r>    15.4132     0.7354     8.7399 </r>
       <r>    15.5235     0.7765     8.8229 </r>
       <r>    15.6339     0.8504     8.9103 </r>
       <r>    15.7442     1.1524     9.0328 </r>
       <r>    15.8546     0.8478     9.1334 </r>
       <r>    15.9649     0.7168     9.2186 </r>
       <r>    16.0752     0.7007     9.2959 </r>
       <r>    16.1856     0.7152     9.3743 </r>
       <r>    16.2959     0.7017     9.4527 </r>
       <r>    16.4063     0.6708     9.5285 </r>
       <r>    16.5166     0.6315     9.6005 </r>
       <r>    16.6269     0.5996     9.6676 </r>
       <r>    16.7373     0.6013     9.7342 </r>
       <r>    16.8476     0.5690     9.7991 </r>
       <r>    16.9580     0.5904     9.8650 </r>
       <r>    17.0683     0.5318     9.9252 </r>
       <r>    17.1786     0.5525     9.9844 </r>
       <r>    17.2890     0.5917    10.0475 </r>
       <r>    17.3993     0.6350    10.1151 </r>
       <r>    17.5097     0.6062    10.1862 </r>
       <r>    17.6200     0.5282    10.2481 </r>
       <r>    17.7303     0.4880    10.3040 </r>
       <r>    17.8407     0.4741    10.3570 </r>
       <r>    17.9510     0.4533    10.4083 </r>
       <r>    18.0614     0.4251    10.4566 </r>
       <r>    18.1717     0.4196    10.5027 </r>
       <r>    18.2820     0.4921    10.5527 </r>
       <r>    18.3924     0.4870    10.6067 </r>
       <r>    18.5027     0.4778    10.6600 </r>
       <r>    18.6131     0.4736    10.7121 </r>
       <r>    18.7234     0.5263    10.7666 </r>
       <r>    18.8337     0.6461    10.8305 </r>
       <r>    18.9441     0.8046    10.9111 </r>
       <r>    19.0544     0.7627    10.9984 </r>
       <r>    19.1648     0.6810    11.0785 </r>
       <r>    19.2751     0.6445    11.1508 </r>
       <r>    19.3854     0.6653    11.2231 </r>
       <r>    19.4958     0.6710    11.2970 </r>
       <r>    19.6061     0.6596    11.3705 </r>
       <r>    19.7165     0.6312    11.4419 </r>
       <r>    19.8268     0.5858    11.5092 </r>
       <r>    19.9371     0.5733    11.5818 </r>
       <r>    20.0475     0.5262    11.6422 </r>
       <r>    20.1578     0.4413    11.6941 </r>
       <r>    20.2682     0.3925    11.7401 </r>
       <r>    20.3785     0.3401    11.7806 </r>
       <r>    20.4888     0.3044    11.8156 </r>
       <r>    20.5992     0.3742    11.8514 </r>
       <r>    20.7095     0.3907    11.8956 </r>
       <r>    20.8199     0.2807    11.9323 </r>
       <r>    20.9302     0.1992    11.9586 </r>
       <r>    21.0405     0.1367    11.9769 </r>
       <r>    21.1509     0.0930    11.9894 </r>
       <r>    21.2612     0.0264    12.0000 </r>
       <r>    21.3716     0.0000    12.0000 </r>
       <r>    21.4819     0.0000    12.0000 </r>
       <r>    21.5922     0.0000    12.0000 </r>
       <r>    21.7026     0.0000    12.0000 </r>
       <r>    21.8129     0.0000    12.0000 </r>
       <r>    21.9233     0.0000    12.0000 </r>
       <r>    22.0336     0.0000    12.0000 </r>
       <r>    22.1439     0.0000    12.0000 </r>
       <r>    22.2543     0.0000    12.0000 </r>
       <r>    22.3646     0.0000    12.0000 </r>
       <r>    22.4750     0.0000    12.0000 </r>
       <r>    22.5853     0.0000    12.0000 </r>
       <r>    22.6956     0.0000    12.0000 </r>
       <r>    22.8060     0.0000    12.0000 </r>
       <r>    22.9163     0.0000    12.0000 </r>
       <r>    23.0267     0.0000    12.0000 </r>
       <r>    23.1370     0.0000    12.0000 </r>
       <r>    23.2473     0.0000    12.0000 </r>
      </set>
     </set>
    </array>
   </total>
   <partial>
    <array>
     <dimension dim="1">gridpoints</dimension>
     <dimension dim="2">spin</dimension>
     <dimension dim="3">ion</dimension>
     <field>energy</field>
     <field>    s</field>
     <field>   py</field>
     <field>   pz</field>
     <field>   px</field>
[...]
        <r>  0.0000  0.0000  0.0489  0.0000  0.0000  0.0000  0.0000  0.0000  0.0000 </r>
       </set>
      </set>
      <set comment="kpoint 14">
       <set comment="band 1">
        <r>  0.2155  0.0141  0.0000  0.0096  0.0000  0.0000  0.0000  0.0000  0.0000 </r>
        <r>  0.2155  0.0141  0.0000  0.0096  0.0000  0.0000  0.0000  0.0000  0.0000 </r>
       </set>
       <set comment="band 2">
        <r>  0.1659  0.0367  0.0000  0.0392  0.0000  0.0000  0.0000  0.0000  0.0000 </r>
        <r>  0.1659  0.0367  0.0000  0.0392  0.0000  0.0000  0.0000  0.0000  0.0000 </r>
       </set>
       <set comment="band 3">
        <r>  0.0100  0.0777  0.0000  0.0766  0.0000  0.0000  0.0000  0.0000  0.0000 </r>
        <r>  0.0100  0.0777  0.0000  0.0766  0.0000  0.0000  0.0000  0.0000  0.0000 </r>
       </set>
       <set comment="band 4">
        <r>  0.0000  0.0000  0.2090  0.0000  0.0000  0.0000  0.0000  0.0000  0.0000 </r>
        <r>  0.0000  0.0000  0.2090  0.0000  0.0000  0.0000  0.0000  0.0000  0.0000 </r>
       </set>
       <set comment="band 5">
        <r>  0.0583  0.0187  0.0000  0.0336  0.0000  0.0000  0.0000  0.0000  0.0000 </r>
        <r>  0.0583  0.0187  0.0000  0.0336  0.0000  0.0000  0.0000  0.0000  0.0000 </r>
       </set>
       <set comment="band 6">
        <r>  0.0000  0.0000  0.1481  0.0000  0.0000  0.0000  0.0000  0.0000  0.0000 </r>
        <r>  0.0000  0.0000  0.1481  0.0000  0.0000  0.0000  0.0000  0.0000  0.0000 </r>
       </set>
       <set comment="band 7">
        <r>  0.0251  0.0294  0.0000  0.0577  0.0000  0.0000  0.0000  0.0000  0.0000 </r>
        <r>  0.0251  0.0294  0.0000  0.0577  0.0000  0.0000  0.0000  0.0000  0.0000 </r>
       </set>
       <set comment="band 8">
        <r>  0.0767  0.0773  0.0000  0.0554  0.0000  0.0000  0.0000  0.0000  0.0000 </r>
        <r>  0.0767  0.0773  0.0000  0.0554  0.0000  0.0000  0.0000  0.0000  0.0000 </r>
       </set>
       <set comment="band 9">
        <r>  0.0000  0.0000  0.0101  0.0000  0.0000  0.0000  0.0000  0.0000  0.0000 </r>
        <r>  0.0000  0.0000  0.0101  0.0000  0.0000  0.0000  0.0000  0.0000  0.0000 </r>
       </set>
       <set comment="band 10">
        <r>  0.0202  0.0780  0.0000  0.0615  0.0000  0.0000  0.0000  0.0000  0.0000 </r>
        <r>  0.0202  0.0780  0.0000  0.0615  0.0000  0.0000  0.0000  0.0000  0.0000 </r>
       </set>
       <set comment="band 11">
        <r>  0.0242  0.0107  0.0000  0.0088  0.0000  0.0000  0.0000  0.0000  0.0000 </r>
        <r>  0.0242  0.0107  0.0000  0.0088  0.0000  0.0000  0.0000  0.0000  0.0000 </r>
       </set>
       <set comment="band 12">
        <r>  0.0249  0.0145  0.0000  0.0161  0.0000  0.0000  0.0000  0.0000  0.0000 </r>
        <r>  0.0249  0.0145  0.0000  0.0161  0.0000  0.0000  0.0000  0.0000  0.0000 </r>
       </set>
      </set>
      <set comment="kpoint 15">
       <set comment="band 1">
        <r>  0.2025  0.0115  0.0000  0.0229  0.0000  0.0000  0.0000  0.0000  0.0000 </r>
        <r>  0.2025  0.0115  0.0000  0.0229  0.0000  0.0000  0.0000  0.0000  0.0000 </r>
       </set>
       <set comment="band 2">
        <r>  0.1892  0.0200  0.0000  0.0400  0.0000  0.0000  0.0000  0.0000  0.0000 </r>
        <r>  0.1892  0.0200  0.0000  0.0400  0.0000  0.0000  0.0000  0.0000  0.0000 </r>
       </set>
       <set comment="band 3">
        <r>  0.0000  0.1321  0.0000  0.0661  0.0000  0.0000  0.0000  0.0000  0.0000 </r>
        <r>  0.0000  0.1321  0.0000  0.0661  0.0000  0.0000  0.0000  0.0000  0.0000 </r>
       </set>
       <set comment="band 4">
        <r>  0.0000  0.0000  0.1982  0.0000  0.0000  0.0000  0.0000  0.0000  0.0000 </r>
        <r>  0.0000  0.0000  0.1982  0.0000  0.0000  0.0000  0.0000  0.0000  0.0000 </r>
       </set>
       <set comment="band 5">
        <r>  0.0541  0.0136  0.0000  0.0271  0.0000  0.0000  0.0000  0.0000  0.0000 </r>
        <r>  0.0541  0.0136  0.0000  0.0271  0.0000  0.0000  0.0000  0.0000  0.0000 </r>
       </set>
       <set comment="band 6">
        <r>  0.0487  0.0098  0.0000  0.0195  0.0000  0.0000  0.0000  0.0000  0.0000 </r>
        <r>  0.0487  0.0098  0.0000  0.0195  0.0000  0.0000  0.0000  0.0000  0.0000 </r>
       </set>
       <set comment="band 7">
        <r>  0.0000  0.0000  0.1663  0.0000  0.0000  0.0000  0.0000  0.0000  0.0000 </r>
        <r>  0.0000  0.0000  0.1663  0.0000  0.0000  0.0000  0.0000  0.0000  0.0000 </r>
       </set>
       <set comment="band 8">
        <r>  0.0000  0.1109  0.0000  0.0554  0.0000  0.0000  0.0000  0.0000  0.0000 </r>
        <r>  0.0000  0.1109  0.0000  0.0554  0.0000  0.0000  0.0000  0.0000  0.0000 </r>
       </set>
       <set comment="band 9">
        <r>  0.0000  0.0000  0.0000  0.0000  0.0000  0.0000  0.0000  0.0000  0.0000 </r>
        <r>  0.0000  0.0000  0.0000  0.0000  0.0000  0.0000  0.0000  0.0000  0.0000 </r>
       </set>
       <set comment="band 10">
        <r>  0.1007  0.0601  0.0000  0.1203  0.0000  0.0000  0.0000  0.0000  0.0000 </r>
        <r>  0.1007  0.0601  0.0000  0.1203  0.0000  0.0000  0.0000  0.0000  0.0000 </r>
       </set>
       <set comment="band 11">
        <r>  0.0000  0.0000  0.0803  0.0000  0.0000  0.0000  0.0000  0.0000  0.0000 </r>
        <r>  0.0000  0.0000  0.0803  0.0000  0.0000  0.0000  0.0000  0.0000  0.0000 </r>
       </set>
       <set comment="band 12">
        <r>  0.0000  0.0535  0.0000  0.0267  0.0000  0.0000  0.0000  0.0000  0.0000 </r>
        <r>  0.0000  0.0535  0.0000  0.0267  0.0000  0.0000  0.0000  0.0000  0.0000 </r>
       </set>
      </set>
      <set comment="kpoint 16">
       <set comment="band 1">
        <r>  0.2061  0.0147  0.0000  0.0267  0.0000  0.0000  0.0000  0.0000  0.0000 </r>
        <r>  0.2061  0.0147  0.0000  0.0267  0.0000  0.0000  0.0000  0.0000  0.0000 </r>
       </set>
       <set comment="band 2">
        <r>  0.1932  0.0179  0.0000  0.0319  0.0000  0.0000  0.0000  0.0000  0.0000 </r>
        <r>  0.1932  0.0179  0.0000  0.0319  0.0000  0.0000  0.0000  0.0000  0.0000 </r>
       </set>
       <set comment="band 3">
        <r>  0.0020  0.1074  0.0000  0.0634  0.0000  0.0000  0.0000  0.0000  0.0000 </r>
        <r>  0.0020  0.1074  0.0000  0.0634  0.0000  0.0000  0.0000  0.0000  0.0000 </r>
       </set>
       <set comment="band 4">
        <r>  0.0000  0.0000  0.1992  0.0000  0.0000  0.0000  0.0000  0.0000  0.0000 </r>
        <r>  0.0000  0.0000  0.1992  0.0000  0.0000  0.0000  0.0000  0.0000  0.0000 </r>
       </set>
       <set comment="band 5">
        <r>  0.0525  0.0119  0.0000  0.0232  0.0000  0.0000  0.0000  0.0000  0.0000 </r>
        <r>  0.0525  0.0119  0.0000  0.0232  0.0000  0.0000  0.0000  0.0000  0.0000 </r>
       </set>
       <set comment="band 6">
        <r>  0.0386  0.0360  0.0000  0.0289  0.0000  0.0000  0.0000  0.0000  0.0000 </r>
        <r>  0.0386  0.0360  0.0000  0.0289  0.0000  0.0000  0.0000  0.0000  0.0000 </r>
       </set>
       <set comment="band 7">
        <r>  0.0000  0.0000  0.1742  0.0000  0.0000  0.0000  0.0000  0.0000  0.0000 </r>
        <r>  0.0000  0.0000  0.1742  0.0000  0.0000  0.0000  0.0000  0.0000  0.0000 </r>
       </set>
       <set comment="band 8">
        <r>  0.0302  0.1292  0.0000  0.0784  0.0000  0.0000  0.0000  0.0000  0.0000 </r>
        <r>  0.0302  0.1292  0.0000  0.0784  0.0000  0.0000  0.0000  0.0000  0.0000 </r>
       </set>
       <set comment="band 9">
        <r>  0.0243  0.0276  0.0000  0.0521  0.0000  0.0000  0.0000  0.0000  0.0000 </r>
        <r>  0.0243  0.0276  0.0000  0.0521  0.0000  0.0000  0.0000  0.0000  0.0000 </r>
       </set>
       <set comment="band 10">
        <r>  0.0000  0.0000  0.0126  0.0000  0.0000  0.0000  0.0000  0.0000  0.0000 </r>
        <r>  0.0000  0.0000  0.0126  0.0000  0.0000  0.0000  0.0000  0.0000  0.0000 </r>
       </set>
       <set comment="band 11">
        <r>  0.0000  0.0000  0.0002  0.0000  0.0000  0.0000  0.0000  0.0000  0.0000 </r>
        <r>  0.0000  0.0000  0.0002  0.0000  0.0000  0.0000  0.0000  0.0000  0.0000 </r>
       </set>
       <set comment="band 12">
        <r>  0.0289  0.0949  0.0000  0.1393  0.0000  0.0000  0.0000  0.0000  0.0000 </r>
        <r>  0.0289  0.0949  0.0000  0.1393  0.0000  0.0000  0.0000  0.0000  0.0000 </r>
       </set>
      </set>
      <set comment="kpoint 17">
       <set comment="band 1">
        <r>  0.2123  0.0018  0.0018  0.0141  0.0000  0.0000  0.0000  0.0000  0.0000 </r>
        <r>  0.2123  0.0018  0.0018  0.0141  0.0000  0.0000  0.0000  0.0000  0.0000 </r>
       </set>
       <set comment="band 2">
        <r>  0.1551  0.0127  0.0213  0.0576  0.0000  0.0000  0.0000  0.0000  0.0000 </r>
        <r>  0.1551  0.0127  0.0213  0.0576  0.0000  0.0000  0.0000  0.0000  0.0000 </r>
       </set>
       <set comment="band 3">
        <r>  0.0110  0.0349  0.0742  0.0590  0.0000  0.0000  0.0000  0.0000  0.0000 </r>
        <r>  0.0110  0.0349  0.0742  0.0590  0.0000  0.0000  0.0000  0.0000  0.0000 </r>
       </set>
       <set comment="band 4">
        <r>  0.0063  0.1185  0.0677  0.0094  0.0000  0.0000  0.0000  0.0000  0.0000 </r>
        <r>  0.0063  0.1185  0.0677  0.0094  0.0000  0.0000  0.0000  0.0000  0.0000 </r>
       </set>
       <set comment="band 5">
        <r>  0.0306  0.0563  0.0257  0.0186  0.0000  0.0000  0.0000  0.0000  0.0000 </r>
        <r>  0.0306  0.0563  0.0257  0.0186  0.0000  0.0000  0.0000  0.0000  0.0000 </r>
       </set>
       <set comment="band 6">
        <r>  0.0348  0.0020  0.0145  0.0307  0.0000  0.0000  0.0000  0.0000  0.0000 </r>
        <r>  0.0348  0.0020  0.0145  0.0307  0.0000  0.0000  0.0000  0.0000  0.0000 </r>
       </set>
       <set comment="band 7">
        <r>  0.0584  0.0488  0.0460  0.0097  0.0000  0.0000  0.0000  0.0000  0.0000 </r>
        <r>  0.0584  0.0488  0.0460  0.0097  0.0000  0.0000  0.0000  0.0000  0.0000 </r>
       </set>
       <set comment="band 8">
        <r>  0.0065  0.0676  0.0674  0.0130  0.0000  0.0000  0.0000  0.0000  0.0000 </r>
        <r>  0.0065  0.0676  0.0674  0.0130  0.0000  0.0000  0.0000  0.0000  0.0000 </r>
       </set>
       <set comment="band 9">
        <r>  0.0435  0.0066  0.0056  0.0437  0.0000  0.0000  0.0000  0.0000  0.0000 </r>
        <r>  0.0435  0.0066  0.0056  0.0437  0.0000  0.0000  0.0000  0.0000  0.0000 </r>
       </set>
       <set comment="band 10">
        <r>  0.0007  0.0144  0.0327  0.0943  0.0000  0.0000  0.0000  0.0000  0.0000 </r>
        <r>  0.0007  0.0144  0.0327  0.0943  0.0000  0.0000  0.0000  0.0000  0.0000 </r>
       </set>
       <set comment="band 11">
        <r>  0.0572  0.0083  0.0301  0.0778  0.0000  0.0000  0.0000  0.0000  0.0000 </r>
        <r>  0.0572  0.0083  0.0301  0.0778  0.0000  0.0000  0.0000  0.0000  0.0000 </r>
       </set>
       <set comment="band 12">
        <r>  0.0114  0.0010  0.0018  0.0009  0.0000  0.0000  0.0000  0.0000  0.0000 </r>
        <r>  0.0114  0.0010  0.0018  0.0009  0.0000  0.0000  0.0000  0.0000  0.0000 </r>
       </set>
      </set>
      <set comment="kpoint 18">
       <set comment="band 1">
        <r>  0.2168  0.0037  0.0023  0.0186  0.0000  0.0000  0.0000  0.0000  0.0000 </r>
        <r>  0.2168  0.0037  0.0023  0.0186  0.0000  0.0000  0.0000  0.0000  0.0000 </r>
       </set>
       <set comment="band 2">
        <r>  0.1545  0.0113  0.0036  0.0625  0.0000  0.0000  0.0000  0.0000  0.0000 </r>
        <r>  0.1545  0.0113  0.0036  0.0625  0.0000  0.0000  0.0000  0.0000  0.0000 </r>
       </set>
       <set comment="band 3">
        <r>  0.0263  0.0642  0.0540  0.0363  0.0000  0.0000  0.0000  0.0000  0.0000 </r>
        <r>  0.0263  0.0642  0.0540  0.0363  0.0000  0.0000  0.0000  0.0000  0.0000 </r>
       </set>
       <set comment="band 4">
        <r>  0.0021  0.0731  0.1064  0.0102  0.0000  0.0000  0.0000  0.0000  0.0000 </r>
        <r>  0.0021  0.0731  0.1064  0.0102  0.0000  0.0000  0.0000  0.0000  0.0000 </r>
       </set>
       <set comment="band 5">
        <r>  0.0323  0.0281  0.0409  0.0107  0.0000  0.0000  0.0000  0.0000  0.0000 </r>
        <r>  0.0323  0.0281  0.0409  0.0107  0.0000  0.0000  0.0000  0.0000  0.0000 </r>
       </set>
       <set comment="band 6">
        <r>  0.0466  0.0405  0.0384  0.0036  0.0000  0.0000  0.0000  0.0000  0.0000 </r>
        <r>  0.0466  0.0405  0.0384  0.0036  0.0000  0.0000  0.0000  0.0000  0.0000 </r>
       </set>
       <set comment="band 7">
        <r>  0.0331  0.0522  0.0003  0.0358  0.0000  0.0000  0.0000  0.0000  0.0000 </r>
        <r>  0.0331  0.0522  0.0003  0.0358  0.0000  0.0000  0.0000  0.0000  0.0000 </r>
       </set>
       <set comment="band 8">
        <r>  0.0189  0.0641  0.0540  0.0023  0.0000  0.0000  0.0000  0.0000  0.0000 </r>
        <r>  0.0189  0.0641  0.0540  0.0023  0.0000  0.0000  0.0000  0.0000  0.0000 </r>
       </set>
       <set comment="band 9">
        <r>  0.0153  0.0117  0.0359  0.0720  0.0000  0.0000  0.0000  0.0000  0.0000 </r>
        <r>  0.0153  0.0117  0.0359  0.0720  0.0000  0.0000  0.0000  0.0000  0.0000 </r>
       </set>
       <set comment="band 10">
        <r>  0.0169  0.0010  0.0192  0.0659  0.0000  0.0000  0.0000  0.0000  0.0000 </r>
        <r>  0.0169  0.0010  0.0192  0.0659  0.0000  0.0000  0.0000  0.0000  0.0000 </r>
       </set>
       <set comment="band 11">
        <r>  0.0228  0.0096  0.0089  0.0156  0.0000  0.0000  0.0000  0.0000  0.0000 </r>
        <r>  0.0228  0.0096  0.0089  0.0156  0.0000  0.0000  0.0000  0.0000  0.0000 </r>
       </set>
       <set comment="band 12">
        <r>  0.0177  0.0097  0.0358  0.0602  0.0000  0.0000  0.0000  0.0000  0.0000 </r>
        <r>  0.0177  0.0097  0.0358  0.0602  0.0000  0.0000  0.0000  0.0000  0.0000 </r>
       </set>
      </set>
      <set comment="kpoint 19">
       <set comment="band 1">
        <r>  0.2072  0.0081  0.0021  0.0239  0.0000  0.0000  0.0000  0.0000  0.0000 </r>
        <r>  0.2072  0.0081  0.0021  0.0239  0.0000  0.0000  0.0000  0.0000  0.0000 </r>
       </set>
       <set comment="band 2">
        <r>  0.1943  0.0155  0.0064  0.0358  0.0000  0.0000  0.0000  0.0000  0.0000 </r>
        <r>  0.1943  0.0155  0.0064  0.0358  0.0000  0.0000  0.0000  0.0000  0.0000 </r>
       </set>
       <set comment="band 3">
        <r>  0.0060  0.0331  0.0756  0.0598  0.0000  0.0000  0.0000  0.0000  0.0000 </r>
        <r>  0.0060  0.0331  0.0756  0.0598  0.0000  0.0000  0.0000  0.0000  0.0000 </r>
       </set>
       <set comment="band 4">
        <r>  0.0000  0.0917  0.0756  0.0105  0.0000  0.0000  0.0000  0.0000  0.0000 </r>
        <r>  0.0000  0.0917  0.0756  0.0105  0.0000  0.0000  0.0000  0.0000  0.0000 </r>
       </set>
       <set comment="band 5">
        <r>  0.0376  0.0442  0.0237  0.0081  0.0000  0.0000  0.0000  0.0000  0.0000 </r>
        <r>  0.0376  0.0442  0.0237  0.0081  0.0000  0.0000  0.0000  0.0000  0.0000 </r>
       </set>
       <set comment="band 6">
        <r>  0.0363  0.0043  0.0200  0.0341  0.0000  0.0000  0.0000  0.0000  0.0000 </r>
        <r>  0.0363  0.0043  0.0200  0.0341  0.0000  0.0000  0.0000  0.0000  0.0000 </r>
       </set>
       <set comment="band 7">
        <r>  0.0342  0.0605  0.0425  0.0072  0.0000  0.0000  0.0000  0.0000  0.0000 </r>
        <r>  0.0342  0.0605  0.0425  0.0072  0.0000  0.0000  0.0000  0.0000  0.0000 </r>
       </set>
       <set comment="band 8">
        <r>  0.0177  0.0163  0.0537  0.0693  0.0000  0.0000  0.0000  0.0000  0.0000 </r>
        <r>  0.0177  0.0163  0.0537  0.0693  0.0000  0.0000  0.0000  0.0000  0.0000 </r>
       </set>
       <set comment="band 9">
        <r>  0.0000  0.0560  0.0474  0.0146  0.0000  0.0000  0.0000  0.0000  0.0000 </r>
        <r>  0.0000  0.0560  0.0474  0.0146  0.0000  0.0000  0.0000  0.0000  0.0000 </r>
       </set>
       <set comment="band 10">
        <r>  0.0304  0.0104  0.0058  0.0730  0.0000  0.0000  0.0000  0.0000  0.0000 </r>
        <r>  0.0304  0.0104  0.0058  0.0730  0.0000  0.0000  0.0000  0.0000  0.0000 </r>
       </set>
       <set comment="band 11">
        <r>  0.0074  0.0401  0.0546  0.0155  0.0000  0.0000  0.0000  0.0000  0.0000 </r>
        <r>  0.0074  0.0401  0.0546  0.0155  0.0000  0.0000  0.0000  0.0000  0.0000 </r>
       </set>
       <set comment="band 12">
        <r>  0.0048  0.0490  0.0051  0.0684  0.0000  0.0000  0.0000  0.0000  0.0000 </r>
        <r>  0.0047  0.0490  0.0051  0.0686  0.0000  0.0000  0.0000  0.0000  0.0000 </r>
       </set>
      </set>
      <set comment="kpoint 20">
       <set comment="band 1">
        <r>  0.2154  0.0148  0.0034  0.0163  0.0000  0.0000  0.0000  0.0000  0.0000 </r>
        <r>  0.2154  0.0148  0.0034  0.0163  0.0000  0.0000  0.0000  0.0000  0.0000 </r>
       </set>
       <set comment="band 2">
        <r>  0.1930  0.0223  0.0030  0.0293  0.0000  0.0000  0.0000  0.0000  0.0000 </r>
        <r>  0.1930  0.0223  0.0030  0.0293  0.0000  0.0000  0.0000  0.0000  0.0000 </r>
       </set>
       <set comment="band 3">
        <r>  0.0008  0.0878  0.0006  0.0700  0.0000  0.0000  0.0000  0.0000  0.0000 </r>
        <r>  0.0008  0.0878  0.0006  0.0700  0.0000  0.0000  0.0000  0.0000  0.0000 </r>
       </set>
       <set comment="band 4">
        <r>  0.0025  0.0072  0.1553  0.0142  0.0000  0.0000  0.0000  0.0000  0.0000 </r>
        <r>  0.0025  0.0072  0.1553  0.0142  0.0000  0.0000  0.0000  0.0000  0.0000 </r>
       </set>
       <set comment="band 5">
        <r>  0.0352  0.0107  0.0434  0.0174  0.0000  0.0000  0.0000  0.0000  0.0000 </r>
        <r>  0.0352  0.0107  0.0434  0.0174  0.0000  0.0000  0.0000  0.0000  0.0000 </r>
       </set>
       <set comment="band 6">
        <r>  0.0025  0.0394  0.0228  0.0198  0.0000  0.0000  0.0000  0.0000  0.0000 </r>
        <r>  0.0025  0.0394  0.0228  0.0198  0.0000  0.0000  0.0000  0.0000  0.0000 </r>
       </set>
       <set comment="band 7">
        <r>  0.0483  0.0272  0.0523  0.0387  0.0000  0.0000  0.0000  0.0000  0.0000 </r>
        <r>  0.0483  0.0272  0.0523  0.0387  0.0000  0.0000  0.0000  0.0000  0.0000 </r>
       </set>
       <set comment="band 8">
        <r>  0.0405  0.0493  0.0009  0.0399  0.0000  0.0000  0.0000  0.0000  0.0000 </r>
        <r>  0.0405  0.0493  0.0009  0.0399  0.0000  0.0000  0.0000  0.0000  0.0000 </r>
       </set>
       <set comment="band 9">
        <r>  0.0071  0.0229  0.0717  0.0457  0.0000  0.0000  0.0000  0.0000  0.0000 </r>
        <r>  0.0071  0.0229  0.0717  0.0457  0.0000  0.0000  0.0000  0.0000  0.0000 </r>
       </set>
       <set comment="band 10">
        <r>  0.0206  0.0577  0.0110  0.0301  0.0000  0.0000  0.0000  0.0000  0.0000 </r>
        <r>  0.0206  0.0577  0.0110  0.0301  0.0000  0.0000  0.0000  0.0000  0.0000 </r>
       </set>
       <set comment="band 11">
        <r>  0.0110  0.0446  0.0059  0.0750  0.0000  0.0000  0.0000  0.0000  0.0000 </r>
        <r>  0.0110  0.0446  0.0059  0.0750  0.0000  0.0000  0.0000  0.0000  0.0000 </r>
       </set>
       <set comment="band 12">
        <r>  0.0066  0.0316  0.0594  0.0327  0.0000  0.0000  0.0000  0.0000  0.0000 </r>
        <r>  0.0066  0.0316  0.0594  0.0327  0.0000  0.0000  0.0000  0.0000  0.0000 </r>
       </set>
      </set>
     </set>
    </set>
   </array>
  </projected>
 </calculation>
 <structure name="finalpos" >
  <crystal>
   <varray name="basis" >
    <v>       3.33357300       0.00000000       1.92463900 </v>
    <v>       1.11119100       3.14292400       1.92463900 </v>
    <v>       0.00000000       0.00000000       3.84927800 </v>
   </varray>
   <i name="volume">     40.32952680 </i>
   <varray name="rec_basis" >
    <v>       0.29997843      -0.10605835       0.00000000 </v>
    <v>       0.00000000       0.31817505       0.00000000 </v>
    <v>      -0.14998922      -0.10605835       0.25978898 </v>
   </varray>
  </crystal>
  <varray name="positions" >
   <v>       0.87500000       0.87500000       0.87500000 </v>
   <v>       0.12500000       0.12500000       0.12500000 </v>
  </varray>
 </structure>
</modeling>
