 vasp.6.4.2 20Jul23 (build Mar 15 2024 16:31:38) complex                        
  
 executed on             LinuxIFC date 2025.03.25  16:47:40
 running  120 mpi-ranks, on    3 nodes
 distrk:  each k-point on  120 cores,    1 groups
 distr:  one band on NCORE=  10 cores,   12 groups


--------------------------------------------------------------------------------------------------------


 INCAR:
   ALGO = Normal
   CSHIFT = 1e-05
   EDIFF = 1e-05
   ENAUG = 1360
   ENCUT = 680
   GGA = Pe
   HFSCREEN = 0.2
   ISMEAR = -5
   ISPIN = 1
   LAECHG = True
   LASPH = True
   LCHARG = False
   LDAU = False
   LELF = False
   LHFCALC = True
   LMAXMIX = 4
   LMIXTAU = True
   LOPTICS = True
   LORBIT = 11
   LREAL = False
   LVTOT = True
   LWAVE = False
   NBANDS = 101
   NCORE = 10
   NEDOS = 1122
   NELM = 200
   NELMIN = 5
   NSW = 0
   PREC = Accurate
   PRECFOCK = Fast
   SIGMA = 0.05

 POTCAR:    PAW_PBE Sb 06Sep2000                  
 POTCAR:    PAW_PBE Se 06Sep2000                  
 WARNING: For LVTOT=.TRUE., VASP.5.x writes the TOTAL local potential to the
     file LOCPOT. If you want only the Hartree contributions, use LVHAR=.TRUE.
     instead. 

 POTCAR:    PAW_PBE Sb 06Sep2000                  
   VRHFIN =Sb: s2p3                                                                                 
   LEXCH  = PE                                                                                      
   EATOM  =   149.9515 eV,   11.0211 Ry                                                             
                                                                                                    
   TITEL  = PAW_PBE Sb 06Sep2000                                                                    
   LULTRA =        F    use ultrasoft PP ?                                                          
   IUNSCR =        1    unscreen: 0-lin 1-nonlin 2-no                                               
   RPACOR =    2.200    partial core radius                                                         
   POMASS =  121.750; ZVAL   =    5.000    mass and valenz                                          
   RCORE  =    2.300    outmost cutoff radius                                                       
   RWIGS  =    2.980; RWIGS  =    1.577    wigner-seitz radius (au A)                               
   ENMAX  =  172.069; ENMIN  =  129.052 eV                                                          
   ICORE  =        3    local potential                                                             
   LCOR   =        T    correct aug charges                                                         
   LPAW   =        T    paw PP                                                                      
   EAUG   =  380.513                                                                                
   DEXC   =    0.000                                                                                
   RMAX   =    2.346    core radius for proj-oper                                                   
   RAUG   =    1.300    factor for augmentation sphere                                              
   RDEP   =    2.360    radius for radial grids                                                     
   RDEPT  =    2.192    core radius for aug-charge                                                  
                                                                                                    
   Atomic configuration                                                                             
   13 entries                                                                                       
     n  l   j            E        occ.                                                              
     1  0  0.50    -30298.2797   2.0000                                                             
     2  0  0.50     -4610.2252   2.0000                                                             
     2  1  1.50     -4138.3407   6.0000                                                             
     3  0  0.50      -903.8815   2.0000                                                             
     3  1  1.50      -750.1337   6.0000                                                             
     3  2  2.50      -515.7092  10.0000                                                             
     4  0  0.50      -148.8034   2.0000                                                             
     4  1  1.50      -101.7581   6.0000                                                             
     4  2  2.50       -33.5048  10.0000                                                             
     5  0  0.50       -12.8298   2.0000                                                             
     5  1  0.50        -4.8276   3.0000                                                             
     5  2  1.50        -4.0817   0.0000                                                             
     4  3  2.50        -4.0817   0.0000                                                             
   Description                                                                                      
     l       E           TYP  RCUT    TYP  RCUT                                                     
     0    -12.8297861     23  2.300                                                                 
     0     13.6058260     23  2.300                                                                 
     1     -4.8275512     23  2.300                                                                 
     1     -0.7245443     23  2.300                                                                 
     2     -4.0817478     23  2.300                                                                 
     3     -1.3605826     23  2.300                                                                 
  local pseudopotential read in
  partial core-charges read in
  partial kinetic energy density read in
  atomic valenz-charges read in
  non local Contribution for L=           0  read in
    real space projection operators read in
  non local Contribution for L=           0  read in
    real space projection operators read in
  non local Contribution for L=           1  read in
    real space projection operators read in
  non local Contribution for L=           1  read in
    real space projection operators read in
  non local Contribution for L=           2  read in
    real space projection operators read in
    PAW grid and wavefunctions read in
 
   number of l-projection  operators is LMAX  =           5
   number of lm-projection operators is LMMAX =          13
 
 POTCAR:    PAW_PBE Se 06Sep2000                  
   VRHFIN =Se: s2p4                                                                                 
   LEXCH  = PE                                                                                      
   EATOM  =   257.1286 eV,   18.8984 Ry                                                             
                                                                                                    
   TITEL  = PAW_PBE Se 06Sep2000                                                                    
   LULTRA =        F    use ultrasoft PP ?                                                          
   IUNSCR =        1    unscreen: 0-lin 1-nonlin 2-no                                               
   RPACOR =    1.900    partial core radius                                                         
   POMASS =   78.960; ZVAL   =    6.000    mass and valenz                                          
   RCORE  =    2.100    outmost cutoff radius                                                       
   RWIGS  =    2.200; RWIGS  =    1.164    wigner-seitz radius (au A)                               
   ENMAX  =  211.555; ENMIN  =  158.666 eV                                                          
   ICORE  =        3    local potential                                                             
   LCOR   =        T    correct aug charges                                                         
   LPAW   =        T    paw PP                                                                      
   EAUG   =  446.842                                                                                
   DEXC   =    0.000                                                                                
   RMAX   =    2.147    core radius for proj-oper                                                   
   RAUG   =    1.300    factor for augmentation sphere                                              
   RDEP   =    2.177    radius for radial grids                                                     
   RDEPT  =    1.928    core radius for aug-charge                                                  
                                                                                                    
   Atomic configuration                                                                             
   10 entries                                                                                       
     n  l   j            E        occ.                                                              
     1  0  0.50    -12503.4787   2.0000                                                             
     2  0  0.50     -1606.9547   2.0000                                                             
     2  1  1.50     -1413.3140   6.0000                                                             
     3  0  0.50      -213.4885   2.0000                                                             
     3  1  1.50      -152.9538   6.0000                                                             
     3  2  2.50       -53.1221  10.0000                                                             
     4  0  0.50       -17.2865   2.0000                                                             
     4  1  0.50        -6.5110   4.0000                                                             
     4  2  2.50        -6.8029   0.0000                                                             
     4  3  2.50        -6.8029   0.0000                                                             
   Description                                                                                      
     l       E           TYP  RCUT    TYP  RCUT                                                     
     0    -17.2865377     23  2.100                                                                 
     0    -15.3094411     23  2.100                                                                 
     1     -6.5110275     23  2.100                                                                 
     1     -0.0695192     23  2.100                                                                 
     2     -6.8029130     23  2.100                                                                 
     3     -1.3605826      7  2.100                                                                 
  local pseudopotential read in
  partial core-charges read in
  partial kinetic energy density read in
  atomic valenz-charges read in
  non local Contribution for L=           0  read in
    real space projection operators read in
  non local Contribution for L=           0  read in
    real space projection operators read in
  non local Contribution for L=           1  read in
    real space projection operators read in
  non local Contribution for L=           1  read in
    real space projection operators read in
  non local Contribution for L=           2  read in
    real space projection operators read in
    PAW grid and wavefunctions read in
 
   number of l-projection  operators is LMAX  =           5
   number of lm-projection operators is LMMAX =          13
 
 -----------------------------------------------------------------------------
|                                                                             |
|               ----> ADVICE to this user running VASP <----                  |
|                                                                             |
|     You have a (more or less) 'large supercell' and for larger cells it     |
|     might be more efficient to use real-space projection operators.         |
|     Therefore, try LREAL= Auto in the INCAR file.                           |
|     Mind: For very accurate calculation, you might also keep the            |
|     reciprocal projection scheme (i.e. LREAL=.FALSE.).                      |
|                                                                             |
 -----------------------------------------------------------------------------

  PAW_PBE Sb 06Sep2000                  :
 energy of atom  1       EATOM= -149.9515
 kinetic energy error for atom=    0.0002 (will be added to EATOM!!)
  PAW_PBE Se 06Sep2000                  :
 energy of atom  2       EATOM= -257.1286
 kinetic energy error for atom=    0.0004 (will be added to EATOM!!)
 
 
 POSCAR: Sb8 Se12
  positions in direct lattice
  No initial velocities read in
 exchange correlation table for  LEXCH =        8
   RHO(1)=    0.500       N(1)  =     2000
   RHO(2)=  100.500       N(2)  =     4000
 


--------------------------------------------------------------------------------------------------------


 ion  position               nearest neighbor table
   1  0.750  0.038  0.140-   9 2.59  13 2.81  13 2.81  10 2.99  10 2.99
   2  0.250  0.962  0.860-  10 2.59  14 2.81  14 2.81   9 2.99   9 2.99
   3  0.250  0.538  0.360-  11 2.59  15 2.81  15 2.81  12 2.99  12 2.99
   4  0.750  0.462  0.640-  12 2.59  16 2.81  16 2.81  11 2.99  11 2.99
   5  0.250  0.330  0.034-  13 2.66  20 2.68  20 2.68   9 3.27   9 3.27
   6  0.750  0.670  0.966-  14 2.66  19 2.68  19 2.68  10 3.27  10 3.27
   7  0.750  0.830  0.466-  15 2.66  18 2.68  18 2.68  11 3.27  11 3.27
   8  0.250  0.170  0.534-  16 2.66  17 2.68  17 2.68  12 3.27  12 3.27
   9  0.750  0.128  0.948-   1 2.59   2 2.99   2 2.99   5 3.27   5 3.27
  10  0.250  0.872  0.052-   2 2.59   1 2.99   1 2.99   6 3.27   6 3.27
  11  0.250  0.628  0.552-   3 2.59   4 2.99   4 2.99   7 3.27   7 3.27
  12  0.750  0.372  0.448-   4 2.59   3 2.99   3 2.99   8 3.27   8 3.27
  13  0.250  0.192  0.205-   5 2.66   1 2.81   1 2.81
  14  0.750  0.808  0.795-   6 2.66   2 2.81   2 2.81
  15  0.750  0.692  0.295-   7 2.66   3 2.81   3 2.81
  16  0.250  0.308  0.705-   8 2.66   4 2.81   4 2.81
  17  0.750  0.054  0.627-   8 2.68   8 2.68
  18  0.250  0.946  0.373-   7 2.68   7 2.68
  19  0.250  0.554  0.873-   6 2.68   6 2.68
  20  0.750  0.446  0.127-   5 2.68   5 2.68
 
  LATTYP: Found a simple orthorhombic cell.
 ALAT       =     4.0015568700
 B/A-ratio  =     2.9272680835
 C/A-ratio  =     3.0893158842
  
  Lattice vectors:
  
 A1 = (   4.0015568700,   0.0000000000,   0.0000000000)
 A2 = (  -0.0000000000,  11.7136297100,   0.0000000000)
 A3 = (   0.0000000000,   0.0000000000,  12.3620732000)


Analysis of symmetry for initial positions (statically):
=====================================================================
 Subroutine PRICEL returns:
 Original cell was already a primitive cell.
 

 Routine SETGRP: Setting up the symmetry group for a 
 simple orthorhombic supercell.


 Subroutine GETGRP returns: Found  8 space group operations
 (whereof  2 operations were pure point group operations)
 out of a pool of  8 trial point group operations.


The static configuration has the point symmetry S_2 .
 The point group associated with its full space group is D_2h.


Analysis of symmetry for dynamics (positions and initial velocities):
=====================================================================
 Subroutine PRICEL returns:
 Original cell was already a primitive cell.
 

 Routine SETGRP: Setting up the symmetry group for a 
 simple orthorhombic supercell.


 Subroutine GETGRP returns: Found  8 space group operations
 (whereof  2 operations were pure point group operations)
 out of a pool of  8 trial point group operations.


The dynamic configuration has the point symmetry S_2 .
 The point group associated with its full space group is D_2h.


 Subroutine INISYM returns: Found  8 space group operations
 (whereof  2 operations are pure point group operations),
 and found     1 'primitive' translations


----------------------------------------------------------------------------------------

                                     Primitive cell                                     

  volume of cell :     579.4444

  direct lattice vectors                    reciprocal lattice vectors
     4.001556870  0.000000000  0.000000000     0.249902733  0.000000000  0.000000000
    -0.000000000 11.713629710  0.000000000     0.000000000  0.085370634  0.000000000
     0.000000000  0.000000000 12.362073200    -0.000000000 -0.000000000  0.080892580

  length of vectors
     4.001556870 11.713629710 12.362073200     0.249902733  0.085370634  0.080892580

  position of ions in fractional coordinates (direct lattice)
     0.750000000  0.038094600  0.140322370
     0.250000000  0.961905400  0.859677630
     0.250000000  0.538094600  0.359677630
     0.750000000  0.461905400  0.640322370
     0.250000000  0.329591380  0.033812840
     0.750000000  0.670408620  0.966187160
     0.750000000  0.829591380  0.466187160
     0.250000000  0.170408620  0.533812840
     0.750000000  0.127525360  0.948345200
     0.250000000  0.872474640  0.051654800
     0.250000000  0.627525360  0.551654800
     0.750000000  0.372474640  0.448345200
     0.250000000  0.192100670  0.205331320
     0.750000000  0.807899330  0.794668680
     0.750000000  0.692100670  0.294668680
     0.250000000  0.307899330  0.705331320
     0.750000000  0.054098690  0.627349150
     0.250000000  0.945901310  0.372650850
     0.250000000  0.554098690  0.872650850
     0.750000000  0.445901310  0.127349150

  ion indices of the primitive-cell ions
   primitive index   ion index
                 1           1
                 2           2
                 3           3
                 4           4
                 5           5
                 6           6
                 7           7
                 8           8
                 9           9
                10          10
                11          11
                12          12
                13          13
                14          14
                15          15
                16          16
                17          17
                18          18
                19          19
                20          20

----------------------------------------------------------------------------------------

 
 
 KPOINTS: pymatgen with grid density = 548 / numbe

Automatic generation of k-mesh.
 Grid dimensions read from file:
 generate k-points for:    6    2    2

 Generating k-lattice:

  Cartesian coordinates                     Fractional coordinates (reciprocal lattice)
     0.041650456  0.000000000  0.000000000     0.166666667 -0.000000000  0.000000000
     0.000000000  0.042685317  0.000000000     0.000000000  0.500000000  0.000000000
    -0.000000000 -0.000000000  0.040446290    -0.000000000 -0.000000000  0.500000000

  Length of vectors
     0.041650456  0.042685317  0.040446290

  Shift w.r.t. Gamma in fractional coordinates (k-lattice)
     0.000000000  0.000000000  0.000000000

 TETIRR: Found     72 inequivalent tetrahedra from      144
 
 Subroutine IBZKPT returns following result:
 ===========================================
 
 Found     16 irreducible k-points:
 
 Following reciprocal coordinates:
            Coordinates               Weight
  0.000000  0.000000  0.000000      1.000000
  0.166667  0.000000  0.000000      2.000000
  0.333333 -0.000000  0.000000      2.000000
  0.500000  0.000000  0.000000      1.000000
  0.000000  0.500000  0.000000      1.000000
  0.166667  0.500000  0.000000      2.000000
  0.333333  0.500000  0.000000      2.000000
  0.500000  0.500000  0.000000      1.000000
  0.000000  0.000000  0.500000      1.000000
  0.166667 -0.000000  0.500000      2.000000
  0.333333 -0.000000  0.500000      2.000000
  0.500000 -0.000000  0.500000      1.000000
  0.000000  0.500000  0.500000      1.000000
  0.166667  0.500000  0.500000      2.000000
  0.333333  0.500000  0.500000      2.000000
  0.500000  0.500000  0.500000      1.000000
 
 Following cartesian coordinates:
            Coordinates               Weight
  0.000000  0.000000  0.000000      1.000000
  0.041650  0.000000  0.000000      2.000000
  0.083301  0.000000  0.000000      2.000000
  0.124951  0.000000  0.000000      1.000000
  0.000000  0.042685  0.000000      1.000000
  0.041650  0.042685  0.000000      2.000000
  0.083301  0.042685  0.000000      2.000000
  0.124951  0.042685  0.000000      1.000000
 -0.000000 -0.000000  0.040446      1.000000
  0.041650  0.000000  0.040446      2.000000
  0.083301  0.000000  0.040446      2.000000
  0.124951  0.000000  0.040446      1.000000
 -0.000000  0.042685  0.040446      1.000000
  0.041650  0.042685  0.040446      2.000000
  0.083301  0.042685  0.040446      2.000000
  0.124951  0.042685  0.040446      1.000000
 
 
 Subroutine IBZKPT_HF returns following result:
 ==============================================
 
 Found     24 k-points in 1st BZ
 the following     24 k-points will be used (e.g. in the exchange kernel)
 Following reciprocal coordinates:   # in IRBZ
  0.000000  0.000000  0.000000    0.04166667   1 t-inv F
  0.166667  0.000000  0.000000    0.04166667   2 t-inv F
  0.333333 -0.000000  0.000000    0.04166667   3 t-inv F
  0.500000  0.000000  0.000000    0.04166667   4 t-inv F
  0.000000  0.500000  0.000000    0.04166667   5 t-inv F
  0.166667  0.500000  0.000000    0.04166667   6 t-inv F
  0.333333  0.500000  0.000000    0.04166667   7 t-inv F
  0.500000  0.500000  0.000000    0.04166667   8 t-inv F
  0.000000  0.000000  0.500000    0.04166667   9 t-inv F
  0.166667 -0.000000  0.500000    0.04166667  10 t-inv F
  0.333333 -0.000000  0.500000    0.04166667  11 t-inv F
  0.500000 -0.000000  0.500000    0.04166667  12 t-inv F
  0.000000  0.500000  0.500000    0.04166667  13 t-inv F
  0.166667  0.500000  0.500000    0.04166667  14 t-inv F
  0.333333  0.500000  0.500000    0.04166667  15 t-inv F
  0.500000  0.500000  0.500000    0.04166667  16 t-inv F
 -0.166667 -0.000000  0.000000    0.04166667   2 t-inv F
 -0.333333  0.000000  0.000000    0.04166667   3 t-inv F
 -0.166667 -0.500000  0.000000    0.04166667   6 t-inv F
 -0.333333 -0.500000  0.000000    0.04166667   7 t-inv F
 -0.166667  0.000000 -0.500000    0.04166667  10 t-inv F
 -0.333333  0.000000 -0.500000    0.04166667  11 t-inv F
 -0.166667 -0.500000 -0.500000    0.04166667  14 t-inv F
 -0.333333 -0.500000 -0.500000    0.04166667  15 t-inv F
 -----------------------------------------------------------------------------
|                                                                             |
|           W    W    AA    RRRRR   N    N  II  N    N   GGGG   !!!           |
|           W    W   A  A   R    R  NN   N  II  NN   N  G    G  !!!           |
|           W    W  A    A  R    R  N N  N  II  N N  N  G       !!!           |
|           W WW W  AAAAAA  RRRRR   N  N N  II  N  N N  G  GGG   !            |
|           WW  WW  A    A  R   R   N   NN  II  N   NN  G    G                |
|           W    W  A    A  R    R  N    N  II  N    N   GGGG   !!!           |
|                                                                             |
|     The number of bands has been changed from the values supplied in        |
|     the INCAR file. This is a result of running the parallel version.       |
|     The orbitals not found in the WAVECAR file will be initialized with     |
|     random numbers, which is usually adequate. For correlated               |
|     calculations, however, you should redo the groundstate calculation.     |
|     I found NBANDS = 101. Now, NBANDS = 108.                                |
|                                                                             |
 -----------------------------------------------------------------------------



--------------------------------------------------------------------------------------------------------




 Dimension of arrays:
   k-points           NKPTS =     16   k-points in BZ     NKDIM =     24   number of bands    NBANDS=    108
   number of dos      NEDOS =   1122   number of ions     NIONS =     20
   non local maximal  LDIM  =      5   non local SUM 2l+1 LMDIM =     13
   total plane-waves  NPLWV = 388800
   max r-space proj   IRMAX =      1   max aug-charges    IRDMAX=  37433
   dimension x,y,z NGX =    36 NGY =  100 NGZ =  108
   dimension x,y,z NGXF=    72 NGYF=  200 NGZF=  216
   support grid    NGXF=    72 NGYF=  200 NGZF=  216
   ions per type =               8  12
   NGX,Y,Z   is equivalent  to a cutoff of  14.96, 14.19, 14.52 a.u.
   NGXF,Y,Z  is equivalent  to a cutoff of  29.91, 28.39, 29.05 a.u.

 SYSTEM =  unknown system                          
 POSCAR =  Sb8 Se12                                

 Startparameter for this run:
   NWRITE =      2    write-flag & timer
   PREC   = accura    normal or accurate (medium, high low for compatibility)
   ISTART =      0    job   : 0-new  1-cont  2-samecut
   ICHARG =      2    charge: 1-file 2-atom 10-const
   ISPIN  =      1    spin polarized calculation?
   LNONCOLLINEAR =      F non collinear calculations
   LSORBIT =      F    spin-orbit coupling
   INIWAV =      1    electr: 0-lowe 1-rand  2-diag
   LASPH  =      T    aspherical Exc in radial PAW
 Electronic Relaxation 1
   ENCUT  =  680.0 eV  49.98 Ry    7.07 a.u.   8.51 24.91 26.28*2*pi/ulx,y,z
   ENINI  =  680.0     initial cutoff
   ENAUG  = 1360.0 eV  augmentation charge cutoff
   NELM   =    200;   NELMIN=  5; NELMDL=  0     # of ELM steps 
   EDIFF  = 0.1E-04   stopping-criterion for ELM
   LREAL  =      F    real-space projection
   NLSPLINE    = F    spline interpolate recip. space projectors
   LCOMPAT=      F    compatible to vasp.4.4
   GGA_COMPAT  = T    GGA compatible to vasp.4.4-vasp.4.6
   LMAXPAW     = -100 max onsite density
   LMAXMIX     =    4 max onsite mixed and CHGCAR
   VOSKOWN=      0    Vosko Wilk Nusair interpolation
   ROPT   =    0.00000   0.00000
 Ionic relaxation
   EDIFFG = 0.1E-03   stopping-criterion for IOM
   NSW    =      0    number of steps for IOM
   NBLOCK =      1;   KBLOCK =      1    inner block; outer block 
   IBRION =     -1    ionic relax: 0-MD 1-quasi-New 2-CG
   NFREE  =      0    steps in history (QN), initial steepest desc. (CG)
   ISIF   =      0    stress and relaxation
   IWAVPR =     10    prediction:  0-non 1-charg 2-wave 3-comb
   ISYM   =      3    0-nonsym 1-usesym 2-fastsym
   LCORR  =      T    Harris-Foulkes like correction to forces

   POTIM  = 0.5000    time-step for ionic-motion
   TEIN   =    0.0    initial temperature
   TEBEG  =    0.0;   TEEND  =   0.0 temperature during run
   SMASS  =  -3.00    Nose mass-parameter (am)
   estimated Nose-frequenzy (Omega)   =  0.10E-29 period in steps = 0.13E+47 mass=  -0.366E-27a.u.
   SCALEE = 1.0000    scale energy and forces
   NPACO  =    256;   APACO  = 10.0  distance and # of slots for P.C.
   PSTRESS=    0.0 pullay stress

  Mass of Ions in am
   POMASS = 121.75 78.96
  Ionic Valenz
   ZVAL   =   5.00  6.00
  Atomic Wigner-Seitz radii
   RWIGS  =  -1.00 -1.00
  virtual crystal weights 
   VCA    =   1.00  1.00
   NELECT =     112.0000    total number of electrons
   NUPDOWN=      -1.0000    fix difference up-down

 DOS related values:
   EMIN   =  10.00;   EMAX   =-10.00  energy-range for DOS
   EFERMI =   0.00;   METHOD = LEGACY      
   ISMEAR =    -5;   SIGMA  =   0.05  broadening in eV -4-tet -1-fermi 0-gaus

 Electronic relaxation 2 (details)
   IALGO  =     38    algorithm
   LDIAG  =      T    sub-space diagonalisation (order eigenvalues)
   LSUBROT=      F    optimize rotation matrix (better conditioning)
   TURBO    =      0    0=normal 1=particle mesh
   IRESTART =      0    0=no restart 2=restart with 2 vectors
   NREBOOT  =      0    no. of reboots
   NMIN     =      0    reboot dimension
   EREF     =   0.00    reference energy to select bands
   IMIX   =      1    mixing-type and parameters
     AMIX     =   0.40;   BMIX     =  1.00
     AMIX_MAG =   1.60;   BMIX_MAG =  1.00
     AMIN     =   0.10
     WC   =   100.;   INIMIX=   1;  MIXPRE=   1;  MAXMIX= -45

 Intra band minimization:
   WEIMIN = 0.0000     energy-eigenvalue tresh-hold
   EBREAK =  0.23E-07  absolut break condition
   DEPER  =   0.30     relativ break condition  

   TIME   =   0.40     timestep for ELM

  volume/ion in A,a.u.               =      28.97       195.51
  Fermi-wavevector in a.u.,A,eV,Ry     =   0.946550  1.788720 12.190234  0.895957
  Thomas-Fermi vector in A             =   2.074558
 
 Write flags
   LWAVE        =      F    write WAVECAR
   LDOWNSAMPLE  =      F    k-point downsampling of WAVECAR
   LCHARG       =      F    write CHGCAR
   LVTOT        =      T    write LOCPOT, total local potential
   LVHAR        =      F    write LOCPOT, Hartree potential only
   LELF         =      F    write electronic localiz. function (ELF)
   LORBIT       =     11    0 simple, 1 ext, 2 COOP (PROOUT), +10 PAW based schemes


 Dipole corrections
   LMONO  =      F    monopole corrections only (constant potential shift)
   LDIPOL =      F    correct potential (dipole corrections)
   IDIPOL =      0    1-x, 2-y, 3-z, 4-all directions 
   EPSILON=  1.0000000 bulk dielectric constant

 Exchange correlation treatment:
   GGA     =    PE    GGA type
   LEXCH   =     8    internal setting for exchange type
   LIBXC   =     F    Libxc                    
   VOSKOWN =     0    Vosko Wilk Nusair interpolation
   EXXOEP  =     0    0=HF, 1=EXX-LHF (local Hartree Fock) 2=EXX OEP
   LHFCALC =     T    Hartree Fock is set to
   LSYMGRAD=     F    symmetrize gradient (conserves proper symmetry)
   PRECFOCK=fast      Normal, Fast or Accurate (Low or Medium for compatibility)
   LRHFCALC=     F    long range Hartree Fock
   LRSCOR  =     F    long range correlation only (use DFT for short range part)
   LTHOMAS =     F    Thomas Fermi screening in HF
   LMODELHF=     F    short range full HF, long range fraction AEXX
   FOCKCORR=     1    mode to apply convergence corrections
   LFOCKACE=     T    use Adeptively-Compressed-Exchange operator
   ENCUT4O =  -1.0   cutoff for four orbital integrals eV
   LMAXFOCK=     4    L truncation for augmentation on plane wave grid
   LMAXFOCKAE=  -1    L truncation for all-electron charge restoration on plane wave grid
   NMAXFOCKAE=   1    number of basis functions for all-electron charge restoration
   LFOCKAEDFT=     F  apply the AE augmentation even for DFT
   NKREDX  =     1    reduce k-point grid by
   NKREDY  =     1    reduce k-point grid by
   NKREDZ  =     1    reduce k-point grid by
   SHIFTRED=     F    shift reduced grid of Gamma
   HFKIDENT=     F    idential grid for each k-point
   ODDONLY =     F    use only odd q-grid points
   EVENONLY=     F    use only even q-grid points
   HFALPHA =   -1.0000 decay constant for conv. correction
   MCALPHA =    0.0000 extent of test-charge in conv. correction in multipole expansion
   AEXX    =    0.2500 exact exchange contribution
   HFSCREEN=    0.2000 screening length (either q_TF or 0.3 A-1)
   HFSCREENC=   0.2000 screening length for correlation (either q_TF or 0.3 A-1)
   HFRCUT  =    0.0000 spherical cutoff for potential kernel
   ALDAX   =    0.7500 LDA exchange part
   AGGAX   =    0.7500 GGA exchange part
   ALDAC   =    1.0000 LDA correlation
   AGGAC   =    1.0000 GGA correlation
   ENCUTFOCK=  -1.0 apply spherical cutoff to Coloumb kernel
   NBANDSGWLOW=     1    first orbital included in HF term
   NBLOCK_FOCK=    64    blocking factor in FOCK_ACC

 Linear response parameters
   LEPSILON=     F    determine dielectric tensor
   LRPA    =     F    only Hartree local field effects (RPA)
   LNABLA  =     F    use nabla operator in PAW spheres
   LVEL    =     F    velocity operator in full k-point grid
   CSHIFT  =0.0000    complex shift for real part using Kramers Kronig
   OMEGAMAX=  -1.0    maximum frequency
   DEG_THRESHOLD= 0.2000000E-02 threshold for treating states as degnerate
   RTIME   =   -0.100 relaxation time in fs
  (WPLASMAI=    0.000 imaginary part of plasma frequency in eV, 0.658/RTIME)
   DFIELD  = 0.0000000 0.0000000 0.0000000 field for delta impulse in time
 
  Optional k-point grid parameters
   LKPOINTS_OPT  =     F    use optional k-point grid
   KPOINTS_OPT_MODE=     1    mode for optional k-point grid
 
 Orbital magnetization related:
   ORBITALMAG=     F  switch on orbital magnetization
   LCHIMAG   =     F  perturbation theory with respect to B field
   DQ        =  0.001000  dq finite difference perturbation B field
   LLRAUG    =     F  two centre corrections for induced B field
   LBONE     =     F  B-component reconstruction in AE one-centre
   LVGVCALC  =     T  calculate vGv susceptibility
   LVGVAPPL  =     F  apply vGv susceptibility instead of pGv for G=0

 Random number generation:
   RANDOM_GENERATOR = DEFAULT
   PCG_SEED         = not used


--------------------------------------------------------------------------------------------------------


 Static calculation
 charge density and potential will be updated during run
 non-spin polarized calculation
 Variant of blocked Davidson
 Davidson routine will perform the subspace rotation
 perform sub-space diagonalisation
    after iterative eigenvector-optimisation
 Kerker-like  mixing scheme
 using additional bands           52
 reciprocal scheme for non local part
 use partial core corrections
 calculate Harris-corrections to forces 
   (improved forces if not selfconsistent)
 use gradient corrections 
 use of overlap-Matrix (Vanderbilt PP)
 Fermi weights with tetrahedron method with Bloechl corrections


--------------------------------------------------------------------------------------------------------


  energy-cutoff  :      680.00
  volume of cell :      579.44
      direct lattice vectors                 reciprocal lattice vectors
     4.001556870  0.000000000  0.000000000     0.249902733  0.000000000  0.000000000
    -0.000000000 11.713629710  0.000000000     0.000000000  0.085370634  0.000000000
     0.000000000  0.000000000 12.362073200    -0.000000000 -0.000000000  0.080892580

  length of vectors
     4.001556870 11.713629710 12.362073200     0.249902733  0.085370634  0.080892580


 
 k-points in units of 2pi/SCALE and weight: pymatgen with grid density = 548 / numbe
   0.00000000  0.00000000  0.00000000       0.042
   0.04165046  0.00000000  0.00000000       0.083
   0.08330091  0.00000000  0.00000000       0.083
   0.12495137  0.00000000  0.00000000       0.042
   0.00000000  0.04268532  0.00000000       0.042
   0.04165046  0.04268532  0.00000000       0.083
   0.08330091  0.04268532  0.00000000       0.083
   0.12495137  0.04268532  0.00000000       0.042
  -0.00000000 -0.00000000  0.04044629       0.042
   0.04165046  0.00000000  0.04044629       0.083
   0.08330091  0.00000000  0.04044629       0.083
   0.12495137  0.00000000  0.04044629       0.042
  -0.00000000  0.04268532  0.04044629       0.042
   0.04165046  0.04268532  0.04044629       0.083
   0.08330091  0.04268532  0.04044629       0.083
   0.12495137  0.04268532  0.04044629       0.042
 
 k-points in reciprocal lattice and weights: pymatgen with grid density = 548 / numbe
   0.00000000  0.00000000  0.00000000       0.042
   0.16666667  0.00000000  0.00000000       0.083
   0.33333333 -0.00000000  0.00000000       0.083
   0.50000000  0.00000000  0.00000000       0.042
   0.00000000  0.50000000  0.00000000       0.042
   0.16666667  0.50000000  0.00000000       0.083
   0.33333333  0.50000000  0.00000000       0.083
   0.50000000  0.50000000  0.00000000       0.042
   0.00000000  0.00000000  0.50000000       0.042
   0.16666667 -0.00000000  0.50000000       0.083
   0.33333333 -0.00000000  0.50000000       0.083
   0.50000000 -0.00000000  0.50000000       0.042
   0.00000000  0.50000000  0.50000000       0.042
   0.16666667  0.50000000  0.50000000       0.083
   0.33333333  0.50000000  0.50000000       0.083
   0.50000000  0.50000000  0.50000000       0.042
 
 position of ions in fractional coordinates (direct lattice) 
   0.75000000  0.03809460  0.14032237
   0.25000000  0.96190540  0.85967763
   0.25000000  0.53809460  0.35967763
   0.75000000  0.46190540  0.64032237
   0.25000000  0.32959138  0.03381284
   0.75000000  0.67040862  0.96618716
   0.75000000  0.82959138  0.46618716
   0.25000000  0.17040862  0.53381284
   0.75000000  0.12752536  0.94834520
   0.25000000  0.87247464  0.05165480
   0.25000000  0.62752536  0.55165480
   0.75000000  0.37247464  0.44834520
   0.25000000  0.19210067  0.20533132
   0.75000000  0.80789933  0.79466868
   0.75000000  0.69210067  0.29466868
   0.25000000  0.30789933  0.70533132
   0.75000000  0.05409869  0.62734915
   0.25000000  0.94590131  0.37265085
   0.25000000  0.55409869  0.87265085
   0.75000000  0.44590131  0.12734915
 
 position of ions in cartesian coordinates  (Angst):
   3.00116765  0.44622604  1.73467541
   1.00038922 11.26740367 10.62739779
   1.00038922  6.30304089  4.44636119
   3.00116765  5.41058882  7.91571201
   1.00038922  3.86071138  0.41799680
   3.00116765  7.85291833 11.94407640
   3.00116765  9.71752624  5.76303980
   1.00038922  1.99610347  6.59903340
   3.00116765  1.49378485 11.72351278
   1.00038922 10.21984486  0.63856042
   1.00038922  7.35059970  6.81959702
   3.00116765  4.36303001  5.54247618
   1.00038922  2.25019612  2.53832081
   3.00116765  9.46343359  9.82375239
   3.00116765  8.10701097  3.64271579
   1.00038922  3.60661874  8.71935741
   3.00116765  0.63369202  7.75533611
   1.00038922 11.07993769  4.60673709
   1.00038922  6.49050688 10.78777369
   3.00116765  5.22312283  1.57429951
 


--------------------------------------------------------------------------------------------------------


 k-point   1 :   0.0000 0.0000 0.0000  plane waves:   23349
 k-point   2 :   0.1667 0.0000 0.0000  plane waves:   23365
 k-point   3 :   0.3333-0.0000 0.0000  plane waves:   23321
 k-point   4 :   0.5000 0.0000 0.0000  plane waves:   23238
 k-point   5 :   0.0000 0.5000 0.0000  plane waves:   23390
 k-point   6 :   0.1667 0.5000 0.0000  plane waves:   23370
 k-point   7 :   0.3333 0.5000 0.0000  plane waves:   23302
 k-point   8 :   0.5000 0.5000 0.0000  plane waves:   23240
 k-point   9 :   0.0000 0.0000 0.5000  plane waves:   23420
 k-point  10 :   0.1667-0.0000 0.5000  plane waves:   23362
 k-point  11 :   0.3333-0.0000 0.5000  plane waves:   23308
 k-point  12 :   0.5000-0.0000 0.5000  plane waves:   23260
 k-point  13 :   0.0000 0.5000 0.5000  plane waves:   23332
 k-point  14 :   0.1667 0.5000 0.5000  plane waves:   23368
 k-point  15 :   0.3333 0.5000 0.5000  plane waves:   23324
 k-point  16 :   0.5000 0.5000 0.5000  plane waves:   23272

 maximum and minimum number of plane-waves per node :      2356     2302

 maximum number of plane-waves:     23420
 maximum index in each direction: 
   IXMAX=    8   IYMAX=   24   IZMAX=   26
   IXMIN=   -9   IYMIN=  -25   IZMIN=  -26


 parallel 3D FFT for wavefunctions:
    minimum data exchange during FFTs selected (reduces bandwidth)
 parallel 3D FFT for charge:
    minimum data exchange during FFTs selected (reduces bandwidth)


 FFT grid for exact exchange (Hartree Fock) 
  NGX = 20; NGY = 60; NGZ = 64

 
 Radii for the augmentation spheres in the non-local exchange
 for species   1 augmentation radius   1.581 (default was   1.171)
       energy cutoff for augmentation   2720.0
 for species   2 augmentation radius   1.459 (default was   1.081)
       energy cutoff for augmentation   2720.0

 real space projection operators:
  total allocation   :       7471.88 KBytes
  max/ min on nodes  :        834.38        687.50

 Maximum index for augmentation-charges in exchange          252
  SETUP_FOCK is finished

 total amount of memory used by VASP MPI-rank0    53323. kBytes
=======================================================================

   base      :      30000. kBytes
   nonl-proj :       8623. kBytes
   fftplans  :       3122. kBytes
   grid      :       4169. kBytes
   one-center:         16. kBytes
   HF        :         67. kBytes
   nonlr-proj:       1797. kBytes
   wavefun   :       5529. kBytes
 
     INWAV:  cpu time      0.0001: real time      0.0005
 initial charge density was supplied:
 charge density of overlapping atoms calculated
 number of electron     112.0000000 magnetization 
 keeping initial charge density in first step


--------------------------------------------------------------------------------------------------------


 Maximum index for augmentation-charges          349 (set IRDMAX)


--------------------------------------------------------------------------------------------------------


 First call to EWALD:  gamma=   0.213
 Maximum number of real-space cells 5x 2x 2
 Maximum number of reciprocal cells 2x 4x 4

    FEWALD:  cpu time      0.0018: real time      0.0018


--------------------------------------- Ionic step        1  -------------------------------------------




--------------------------------------- Iteration      1(   1)  ---------------------------------------


    POTLOK:  cpu time      0.0465: real time      0.1275
    SETDIJ:  cpu time      0.1320: real time      0.1327
     EDDAV:  cpu time      2.0543: real time      3.4140
 BZINTS: Fermi energy:   12.764334;  112.000000 electrons
         Band energy: 0.485447E+03;  BLOECHL correction:   -0.106050
       DOS:  cpu time      0.0174: real time      0.0176
    --------------------------------------------
      LOOP:  cpu time      2.2502: real time      3.6918

 eigenvalue-minimisations  :  3456
 total energy-change (2. order) :-0.1500059E+05  (-0.4708016E+04)
 number of electron     112.0000000 magnetization 
 augmentation part      112.0000000 magnetization 

 Free energy of the ion-electron system (eV)
  ---------------------------------------------------
  alpha Z        PSCENC =       116.37456510
  Ewald energy   TEWEN  =     -4031.12465643
  -Hartree energ DENC   =      -480.58316384
  -exchange      EXHF   =         0.00000000
  -V(xc)+E(xc)   XCENC  =      -376.84992709
  PAW double counting   =      3833.04129494   -18800.35134749
  entropy T*S    EENTRO =         0.00000000
  eigenvalues    EBANDS =       485.44677838
  atomic energy  EATOM  =      4253.45924273
  Solvation  Ediel_sol  =         0.00000000
  ---------------------------------------------------
  free energy    TOTEN  =    -15000.58721372 eV

  energy without entropy =   -15000.58721372  energy(sigma->0) =   -15000.58721372
  exchange ACFDT corr.  =         0.00000000  see jH, gK, PRB 81, 115126


--------------------------------------------------------------------------------------------------------




--------------------------------------- Iteration      1(   2)  ---------------------------------------


     EDDAV:  cpu time      1.9944: real time      2.0319
 BZINTS: Fermi energy:    4.130521;  112.000000 electrons
         Band energy:-0.208499E+03;  BLOECHL correction:    0.000000
       DOS:  cpu time      0.0088: real time      0.0088
    --------------------------------------------
      LOOP:  cpu time      2.0032: real time      2.0407

 eigenvalue-minimisations  :  4500
 total energy-change (2. order) :-0.6939461E+03  (-0.6532755E+03)
 number of electron     112.0000000 magnetization 
 augmentation part      112.0000000 magnetization 

 Free energy of the ion-electron system (eV)
  ---------------------------------------------------
  alpha Z        PSCENC =       116.37456510
  Ewald energy   TEWEN  =     -4031.12465643
  -Hartree energ DENC   =      -480.58316384
  -exchange      EXHF   =         0.00000000
  -V(xc)+E(xc)   XCENC  =      -376.84992709
  PAW double counting   =      3833.04129494   -18800.35134749
  entropy T*S    EENTRO =         0.00000000
  eigenvalues    EBANDS =      -208.49936558
  atomic energy  EATOM  =      4253.45924273
  Solvation  Ediel_sol  =         0.00000000
  ---------------------------------------------------
  free energy    TOTEN  =    -15694.53335767 eV

  energy without entropy =   -15694.53335767  energy(sigma->0) =   -15694.53335767
  exchange ACFDT corr.  =         0.00000000  see jH, gK, PRB 81, 115126


--------------------------------------------------------------------------------------------------------




--------------------------------------- Iteration      1(   3)  ---------------------------------------


     EDDAV:  cpu time      1.9197: real time      1.9410
 BZINTS: Fermi energy:    2.710958;  112.000000 electrons
         Band energy:-0.287926E+03;  BLOECHL correction:    0.000000
       DOS:  cpu time      0.0085: real time      0.0085
    --------------------------------------------
      LOOP:  cpu time      1.9281: real time      1.9495

 eigenvalue-minimisations  :  4284
 total energy-change (2. order) :-0.7942650E+02  (-0.7782575E+02)
 number of electron     112.0000000 magnetization 
 augmentation part      112.0000000 magnetization 

 Free energy of the ion-electron system (eV)
  ---------------------------------------------------
  alpha Z        PSCENC =       116.37456510
  Ewald energy   TEWEN  =     -4031.12465643
  -Hartree energ DENC   =      -480.58316384
  -exchange      EXHF   =         0.00000000
  -V(xc)+E(xc)   XCENC  =      -376.84992709
  PAW double counting   =      3833.04129494   -18800.35134749
  entropy T*S    EENTRO =         0.00000000
  eigenvalues    EBANDS =      -287.92586679
  atomic energy  EATOM  =      4253.45924273
  Solvation  Ediel_sol  =         0.00000000
  ---------------------------------------------------
  free energy    TOTEN  =    -15773.95985888 eV

  energy without entropy =   -15773.95985888  energy(sigma->0) =   -15773.95985888
  exchange ACFDT corr.  =         0.00000000  see jH, gK, PRB 81, 115126


--------------------------------------------------------------------------------------------------------




--------------------------------------- Iteration      1(   4)  ---------------------------------------


     EDDAV:  cpu time      1.8639: real time      1.8912
 BZINTS: Fermi energy:    2.686156;  112.000000 electrons
         Band energy:-0.289537E+03;  BLOECHL correction:    0.000000
       DOS:  cpu time      0.0099: real time      0.0099
    --------------------------------------------
      LOOP:  cpu time      1.8738: real time      1.9011

 eigenvalue-minimisations  :  4128
 total energy-change (2. order) :-0.1610683E+01  (-0.1606319E+01)
 number of electron     112.0000000 magnetization 
 augmentation part      112.0000000 magnetization 

 Free energy of the ion-electron system (eV)
  ---------------------------------------------------
  alpha Z        PSCENC =       116.37456510
  Ewald energy   TEWEN  =     -4031.12465643
  -Hartree energ DENC   =      -480.58316384
  -exchange      EXHF   =         0.00000000
  -V(xc)+E(xc)   XCENC  =      -376.84992709
  PAW double counting   =      3833.04129494   -18800.35134749
  entropy T*S    EENTRO =         0.00000000
  eigenvalues    EBANDS =      -289.53655010
  atomic energy  EATOM  =      4253.45924273
  Solvation  Ediel_sol  =         0.00000000
  ---------------------------------------------------
  free energy    TOTEN  =    -15775.57054219 eV

  energy without entropy =   -15775.57054219  energy(sigma->0) =   -15775.57054219
  exchange ACFDT corr.  =         0.00000000  see jH, gK, PRB 81, 115126


--------------------------------------------------------------------------------------------------------




--------------------------------------- Iteration      1(   5)  ---------------------------------------


    POTLOK:  cpu time      0.0668: real time      0.0849
    SETDIJ:  cpu time      0.3284: real time      0.3293
     EDDAV:  cpu time    115.5260: real time    115.9963
 BZINTS: Fermi energy:    3.143405;  112.000000 electrons
         Band energy:-0.310621E+03;  BLOECHL correction:    0.000000
       DOS:  cpu time      0.0083: real time      0.0084
    CHARGE:  cpu time      0.0837: real time      0.1360
    MIXING:  cpu time      0.0011: real time      0.0012
    --------------------------------------------
      LOOP:  cpu time    116.0143: real time    116.5561

 eigenvalue-minimisations  :  3456
 total energy-change (2. order) : 0.1567314E+05  (-0.5152648E+01)
 number of electron     111.9999998 magnetization 
 augmentation part      -20.0056661 magnetization 

 Free energy of the ion-electron system (eV)
  ---------------------------------------------------
  alpha Z        PSCENC =       116.37456510
  Ewald energy   TEWEN  =     -4031.12465643
  -Hartree energ DENC   =      -480.58316384
  -exchange      EXHF   =       177.03378048
  -V(xc)+E(xc)   XCENC  =      -307.10712172
  PAW double counting   =      3757.85873904    -3277.71918021
  entropy T*S    EENTRO =         0.00000000
  eigenvalues    EBANDS =      -310.62112603
  atomic energy  EATOM  =      4253.45924273
  Solvation  Ediel_sol  =         0.00000000
  ---------------------------------------------------
  free energy    TOTEN  =      -102.42892089 eV

  energy without entropy =     -102.42892089  energy(sigma->0) =     -102.42892089
  exchange ACFDT corr.  =         0.00000000  see jH, gK, PRB 81, 115126


--------------------------------------------------------------------------------------------------------




--------------------------------------- Iteration      1(   6)  ---------------------------------------


    POTLOK:  cpu time      0.0727: real time      0.0837
    SETDIJ:  cpu time      0.3305: real time      0.3313
     EDDAV:  cpu time    116.7182: real time    117.0203
 BZINTS: Fermi energy:    3.413084;  112.000000 electrons
         Band energy:-0.281833E+03;  BLOECHL correction:    0.000000
       DOS:  cpu time      0.0085: real time      0.0086
    CHARGE:  cpu time      0.0818: real time      0.0820
    MIXING:  cpu time      0.0006: real time      0.0006
    --------------------------------------------
      LOOP:  cpu time    117.2123: real time    117.5265

 eigenvalue-minimisations  :  3984
 total energy-change (2. order) : 0.3400868E+01  (-0.5000953E+00)
 number of electron     111.9999998 magnetization 
 augmentation part      -19.4879365 magnetization 

 Free energy of the ion-electron system (eV)
  ---------------------------------------------------
  alpha Z        PSCENC =       116.37456510
  Ewald energy   TEWEN  =     -4031.12465643
  -Hartree energ DENC   =      -504.72001949
  -exchange      EXHF   =       174.74015882
  -V(xc)+E(xc)   XCENC  =      -305.32182791
  PAW double counting   =      7142.25226306    -6662.85456581
  entropy T*S    EENTRO =         0.00000000
  eigenvalues    EBANDS =      -281.83321325
  atomic energy  EATOM  =      4253.45924273
  Solvation  Ediel_sol  =         0.00000000
  ---------------------------------------------------
  free energy    TOTEN  =       -99.02805319 eV

  energy without entropy =      -99.02805319  energy(sigma->0) =      -99.02805319
  exchange ACFDT corr.  =         0.00000000  see jH, gK, PRB 81, 115126


--------------------------------------------------------------------------------------------------------




--------------------------------------- Iteration      1(   7)  ---------------------------------------


    POTLOK:  cpu time      0.0713: real time      0.0888
    SETDIJ:  cpu time      0.3307: real time      0.3316
     EDDAV:  cpu time    116.3359: real time    116.6329
 BZINTS: Fermi energy:    3.519315;  112.000000 electrons
         Band energy:-0.273148E+03;  BLOECHL correction:    0.000000
       DOS:  cpu time      0.0113: real time      0.0114
    CHARGE:  cpu time      0.0795: real time      0.0797
    MIXING:  cpu time      0.0005: real time      0.0005
    --------------------------------------------
      LOOP:  cpu time    116.8291: real time    117.1448

 eigenvalue-minimisations  :  3948
 total energy-change (2. order) :-0.2662110E+00  (-0.2381248E+00)
 number of electron     111.9999997 magnetization 
 augmentation part      -19.3246423 magnetization 

 Free energy of the ion-electron system (eV)
  ---------------------------------------------------
  alpha Z        PSCENC =       116.37456510
  Ewald energy   TEWEN  =     -4031.12465643
  -Hartree energ DENC   =      -510.80368834
  -exchange      EXHF   =       171.28361717
  -V(xc)+E(xc)   XCENC  =      -304.48930616
  PAW double counting   =     11758.84097400   -11279.68659300
  entropy T*S    EENTRO =         0.00000000
  eigenvalues    EBANDS =      -273.14841927
  atomic energy  EATOM  =      4253.45924273
  Solvation  Ediel_sol  =         0.00000000
  ---------------------------------------------------
  free energy    TOTEN  =       -99.29426421 eV

  energy without entropy =      -99.29426421  energy(sigma->0) =      -99.29426421
  exchange ACFDT corr.  =         0.00000000  see jH, gK, PRB 81, 115126


--------------------------------------------------------------------------------------------------------




--------------------------------------- Iteration      1(   8)  ---------------------------------------


    POTLOK:  cpu time      0.0782: real time      0.0961
    SETDIJ:  cpu time      0.3306: real time      0.3314
     EDDAV:  cpu time    116.3929: real time    116.6893
 BZINTS: Fermi energy:    3.533523;  112.000000 electrons
         Band energy:-0.273434E+03;  BLOECHL correction:    0.000000
       DOS:  cpu time      0.0083: real time      0.0084
    CHARGE:  cpu time      0.0714: real time      0.0715
    MIXING:  cpu time      0.0010: real time      0.0010
    --------------------------------------------
      LOOP:  cpu time    116.8824: real time    117.1977

 eigenvalue-minimisations  :  4008
 total energy-change (2. order) : 0.8150475E-02  (-0.1312033E-01)
 number of electron     111.9999997 magnetization 
 augmentation part      -19.3503514 magnetization 

 Free energy of the ion-electron system (eV)
  ---------------------------------------------------
  alpha Z        PSCENC =       116.37456510
  Ewald energy   TEWEN  =     -4031.12465643
  -Hartree energ DENC   =      -508.97224764
  -exchange      EXHF   =       169.54740039
  -V(xc)+E(xc)   XCENC  =      -304.22782260
  PAW double counting   =     15799.84012671   -15320.74895195
  entropy T*S    EENTRO =         0.00000000
  eigenvalues    EBANDS =      -273.43377004
  atomic energy  EATOM  =      4253.45924273
  Solvation  Ediel_sol  =         0.00000000
  ---------------------------------------------------
  free energy    TOTEN  =       -99.28611374 eV

  energy without entropy =      -99.28611374  energy(sigma->0) =      -99.28611374
  exchange ACFDT corr.  =         0.00000000  see jH, gK, PRB 81, 115126


--------------------------------------------------------------------------------------------------------




--------------------------------------- Iteration      1(   9)  ---------------------------------------


    POTLOK:  cpu time      0.0714: real time      0.0874
    SETDIJ:  cpu time      0.3325: real time      0.3333
     EDDAV:  cpu time    116.8285: real time    117.1322
 BZINTS: Fermi energy:    3.524860;  112.000000 electrons
         Band energy:-0.274825E+03;  BLOECHL correction:    0.000000
       DOS:  cpu time      0.0080: real time      0.0081
    CHARGE:  cpu time      0.0828: real time      0.0831
    MIXING:  cpu time      0.0004: real time      0.0004
    --------------------------------------------
      LOOP:  cpu time    117.3236: real time    117.6444

 eigenvalue-minimisations  :  3876
 total energy-change (2. order) : 0.5070981E-01  (-0.4180343E-02)
 number of electron     111.9999996 magnetization 
 augmentation part      -19.3914946 magnetization 

 Free energy of the ion-electron system (eV)
  ---------------------------------------------------
  alpha Z        PSCENC =       116.37456510
  Ewald energy   TEWEN  =     -4031.12465643
  -Hartree energ DENC   =      -507.51399667
  -exchange      EXHF   =       169.43004840
  -V(xc)+E(xc)   XCENC  =      -304.08729576
  PAW double counting   =     18398.04352447   -17918.99189980
  entropy T*S    EENTRO =         0.00000000
  eigenvalues    EBANDS =      -274.82493597
  atomic energy  EATOM  =      4253.45924273
  Solvation  Ediel_sol  =         0.00000000
  ---------------------------------------------------
  free energy    TOTEN  =       -99.23540393 eV

  energy without entropy =      -99.23540393  energy(sigma->0) =      -99.23540393
  exchange ACFDT corr.  =         0.00000000  see jH, gK, PRB 81, 115126


--------------------------------------------------------------------------------------------------------




--------------------------------------- Iteration      1(  10)  ---------------------------------------


    POTLOK:  cpu time      0.0710: real time      0.0870
    SETDIJ:  cpu time      0.3312: real time      0.3322
     EDDAV:  cpu time    116.5702: real time    116.8740
 BZINTS: Fermi energy:    3.513157;  112.000000 electrons
         Band energy:-0.275209E+03;  BLOECHL correction:    0.000000
       DOS:  cpu time      0.0089: real time      0.0089
    CHARGE:  cpu time      0.0721: real time      0.0722
    MIXING:  cpu time      0.0009: real time      0.0009
    --------------------------------------------
      LOOP:  cpu time    117.0543: real time    117.3752

 eigenvalue-minimisations  :  3948
 total energy-change (2. order) : 0.3102431E-02  (-0.2646537E-02)
 number of electron     111.9999996 magnetization 
 augmentation part      -19.4200392 magnetization 

 Free energy of the ion-electron system (eV)
  ---------------------------------------------------
  alpha Z        PSCENC =       116.37456510
  Ewald energy   TEWEN  =     -4031.12465643
  -Hartree energ DENC   =      -507.43589927
  -exchange      EXHF   =       169.65853456
  -V(xc)+E(xc)   XCENC  =      -303.96625318
  PAW double counting   =     19873.74855811   -19394.73718185
  entropy T*S    EENTRO =         0.00000000
  eigenvalues    EBANDS =      -275.20921126
  atomic energy  EATOM  =      4253.45924273
  Solvation  Ediel_sol  =         0.00000000
  ---------------------------------------------------
  free energy    TOTEN  =       -99.23230150 eV

  energy without entropy =      -99.23230150  energy(sigma->0) =      -99.23230150
  exchange ACFDT corr.  =         0.00000000  see jH, gK, PRB 81, 115126


--------------------------------------------------------------------------------------------------------




--------------------------------------- Iteration      1(  11)  ---------------------------------------


    POTLOK:  cpu time      0.0683: real time      0.0839
    SETDIJ:  cpu time      0.3315: real time      0.3322
     EDDAV:  cpu time    116.8233: real time    117.1275
 BZINTS: Fermi energy:    3.521612;  112.000000 electrons
         Band energy:-0.274864E+03;  BLOECHL correction:    0.000000
       DOS:  cpu time      0.0101: real time      0.0102
    CHARGE:  cpu time      0.0694: real time      0.0696
    MIXING:  cpu time      0.0003: real time      0.0003
    --------------------------------------------
      LOOP:  cpu time    117.3029: real time    117.6237

 eigenvalue-minimisations  :  3804
 total energy-change (2. order) : 0.1423640E-02  (-0.2139031E-03)
 number of electron     111.9999996 magnetization 
 augmentation part      -19.4266260 magnetization 

 Free energy of the ion-electron system (eV)
  ---------------------------------------------------
  alpha Z        PSCENC =       116.37456510
  Ewald energy   TEWEN  =     -4031.12465643
  -Hartree energ DENC   =      -507.99178423
  -exchange      EXHF   =       169.80425803
  -V(xc)+E(xc)   XCENC  =      -303.86962232
  PAW double counting   =     20742.16937492   -20263.18866749
  entropy T*S    EENTRO =         0.00000000
  eigenvalues    EBANDS =      -274.86358816
  atomic energy  EATOM  =      4253.45924273
  Solvation  Ediel_sol  =         0.00000000
  ---------------------------------------------------
  free energy    TOTEN  =       -99.23087786 eV

  energy without entropy =      -99.23087786  energy(sigma->0) =      -99.23087786
  exchange ACFDT corr.  =         0.00000000  see jH, gK, PRB 81, 115126


--------------------------------------------------------------------------------------------------------




--------------------------------------- Iteration      1(  12)  ---------------------------------------


    POTLOK:  cpu time      0.0697: real time      0.0845
    SETDIJ:  cpu time      0.3307: real time      0.3317
     EDDAV:  cpu time    116.5139: real time    116.8178
 BZINTS: Fermi energy:    3.538626;  112.000000 electrons
         Band energy:-0.274464E+03;  BLOECHL correction:    0.000000
       DOS:  cpu time      0.0086: real time      0.0087
    CHARGE:  cpu time      0.0693: real time      0.0695
    MIXING:  cpu time      0.0003: real time      0.0003
    --------------------------------------------
      LOOP:  cpu time    116.9926: real time    117.3124

 eigenvalue-minimisations  :  3768
 total energy-change (2. order) : 0.6483795E-03  (-0.9445310E-04)
 number of electron     111.9999996 magnetization 
 augmentation part      -19.4284630 magnetization 

 Free energy of the ion-electron system (eV)
  ---------------------------------------------------
  alpha Z        PSCENC =       116.37456510
  Ewald energy   TEWEN  =     -4031.12465643
  -Hartree energ DENC   =      -508.44134657
  -exchange      EXHF   =       169.81123046
  -V(xc)+E(xc)   XCENC  =      -303.80792418
  PAW double counting   =     21287.33119478   -20808.36881511
  entropy T*S    EENTRO =         0.00000000
  eigenvalues    EBANDS =      -274.46372024
  atomic energy  EATOM  =      4253.45924273
  Solvation  Ediel_sol  =         0.00000000
  ---------------------------------------------------
  free energy    TOTEN  =       -99.23022948 eV

  energy without entropy =      -99.23022948  energy(sigma->0) =      -99.23022948
  exchange ACFDT corr.  =         0.00000000  see jH, gK, PRB 81, 115126


--------------------------------------------------------------------------------------------------------




--------------------------------------- Iteration      1(  13)  ---------------------------------------


    POTLOK:  cpu time      0.0686: real time      0.0857
    SETDIJ:  cpu time      0.3307: real time      0.3315
     EDDAV:  cpu time    116.9899: real time    117.2949
 BZINTS: Fermi energy:    3.535123;  112.000000 electrons
         Band energy:-0.274223E+03;  BLOECHL correction:    0.000000
       DOS:  cpu time      0.0103: real time      0.0104
    CHARGE:  cpu time      0.0695: real time      0.0697
    MIXING:  cpu time      0.0003: real time      0.0003
    --------------------------------------------
      LOOP:  cpu time    117.4694: real time    117.7925

 eigenvalue-minimisations  :  3804
 total energy-change (2. order) :-0.1828916E-04  (-0.3784385E-04)
 number of electron     111.9999996 magnetization 
 augmentation part      -19.4290748 magnetization 

 Free energy of the ion-electron system (eV)
  ---------------------------------------------------
  alpha Z        PSCENC =       116.37456510
  Ewald energy   TEWEN  =     -4031.12465643
  -Hartree energ DENC   =      -508.68085821
  -exchange      EXHF   =       169.78528137
  -V(xc)+E(xc)   XCENC  =      -303.77368722
  PAW double counting   =     21630.80631474   -21151.85351438
  entropy T*S    EENTRO =         0.00000000
  eigenvalues    EBANDS =      -274.22293545
  atomic energy  EATOM  =      4253.45924273
  Solvation  Ediel_sol  =         0.00000000
  ---------------------------------------------------
  free energy    TOTEN  =       -99.23024777 eV

  energy without entropy =      -99.23024777  energy(sigma->0) =      -99.23024777
  exchange ACFDT corr.  =         0.00000000  see jH, gK, PRB 81, 115126


--------------------------------------------------------------------------------------------------------




--------------------------------------- Iteration      1(  14)  ---------------------------------------


    POTLOK:  cpu time      0.0676: real time      0.0848
    SETDIJ:  cpu time      0.3309: real time      0.3318
     EDDAV:  cpu time    116.9839: real time    117.2888
 BZINTS: Fermi energy:    3.533573;  112.000000 electrons
         Band energy:-0.274105E+03;  BLOECHL correction:    0.000000
       DOS:  cpu time      0.0119: real time      0.0119
    CHARGE:  cpu time      0.0708: real time      0.0709
    MIXING:  cpu time      0.0004: real time      0.0004
    --------------------------------------------
      LOOP:  cpu time    117.4654: real time    117.7887

 eigenvalue-minimisations  :  3756
 total energy-change (2. order) :-0.7744102E-04  (-0.9175445E-05)
 number of electron     111.9999996 magnetization 
 augmentation part      -19.4297825 magnetization 

 Free energy of the ion-electron system (eV)
  ---------------------------------------------------
  alpha Z        PSCENC =       116.37456510
  Ewald energy   TEWEN  =     -4031.12465643
  -Hartree energ DENC   =      -508.79599364
  -exchange      EXHF   =       169.76886599
  -V(xc)+E(xc)   XCENC  =      -303.75488002
  PAW double counting   =     21840.34301204   -21361.39529293
  entropy T*S    EENTRO =         0.00000000
  eigenvalues    EBANDS =      -274.10518804
  atomic energy  EATOM  =      4253.45924273
  Solvation  Ediel_sol  =         0.00000000
  ---------------------------------------------------
  free energy    TOTEN  =       -99.23032521 eV

  energy without entropy =      -99.23032521  energy(sigma->0) =      -99.23032521
  exchange ACFDT corr.  =         0.00000000  see jH, gK, PRB 81, 115126


--------------------------------------------------------------------------------------------------------




--------------------------------------- Iteration      1(  15)  ---------------------------------------


    POTLOK:  cpu time      0.0673: real time      0.1149
    SETDIJ:  cpu time      0.3296: real time      0.3305
     EDDAV:  cpu time    117.3231: real time    117.6287
 BZINTS: Fermi energy:    3.532989;  112.000000 electrons
         Band energy:-0.274039E+03;  BLOECHL correction:    0.000000
       DOS:  cpu time      0.0109: real time      0.0110
    CHARGE:  cpu time      0.0699: real time      0.0700
    MIXING:  cpu time      0.0004: real time      0.0004
    --------------------------------------------
      LOOP:  cpu time    117.8012: real time    118.1555

 eigenvalue-minimisations  :  3804
 total energy-change (2. order) :-0.6340824E-04  (-0.3782155E-05)
 number of electron     111.9999996 magnetization 
 augmentation part      -19.4304715 magnetization 

 Free energy of the ion-electron system (eV)
  ---------------------------------------------------
  alpha Z        PSCENC =       116.37456510
  Ewald energy   TEWEN  =     -4031.12465643
  -Hartree energ DENC   =      -508.86720847
  -exchange      EXHF   =       169.76541842
  -V(xc)+E(xc)   XCENC  =      -303.74351594
  PAW double counting   =     21964.23085458   -21485.28607023
  entropy T*S    EENTRO =         0.00000000
  eigenvalues    EBANDS =      -274.03901837
  atomic energy  EATOM  =      4253.45924273
  Solvation  Ediel_sol  =         0.00000000
  ---------------------------------------------------
  free energy    TOTEN  =       -99.23038862 eV

  energy without entropy =      -99.23038862  energy(sigma->0) =      -99.23038862
  exchange ACFDT corr.  =         0.00000000  see jH, gK, PRB 81, 115126


--------------------------------------------------------------------------------------------------------




--------------------------------------- Iteration      1(  16)  ---------------------------------------


    POTLOK:  cpu time      0.0693: real time      0.0857
    SETDIJ:  cpu time      0.3288: real time      0.3298
     EDDAV:  cpu time    117.1084: real time    117.4135
 BZINTS: Fermi energy:    3.532879;  112.000000 electrons
         Band energy:-0.273991E+03;  BLOECHL correction:    0.000000
       DOS:  cpu time      0.0085: real time      0.0086
    CHARGE:  cpu time      0.0710: real time      0.0711
    MIXING:  cpu time      0.0003: real time      0.0003
    --------------------------------------------
      LOOP:  cpu time    117.5863: real time    117.9090

 eigenvalue-minimisations  :  3264
 total energy-change (2. order) :-0.4313929E-04  (-0.1547879E-05)
 number of electron     111.9999996 magnetization 
 augmentation part      -19.4308120 magnetization 

 Free energy of the ion-electron system (eV)
  ---------------------------------------------------
  alpha Z        PSCENC =       116.37456510
  Ewald energy   TEWEN  =     -4031.12465643
  -Hartree energ DENC   =      -508.92164863
  -exchange      EXHF   =       169.76621363
  -V(xc)+E(xc)   XCENC  =      -303.73617947
  PAW double counting   =     22036.71599791   -21557.77293497
  entropy T*S    EENTRO =         0.00000000
  eigenvalues    EBANDS =      -273.99103163
  atomic energy  EATOM  =      4253.45924273
  Solvation  Ediel_sol  =         0.00000000
  ---------------------------------------------------
  free energy    TOTEN  =       -99.23043176 eV

  energy without entropy =      -99.23043176  energy(sigma->0) =      -99.23043176
  exchange ACFDT corr.  =         0.00000000  see jH, gK, PRB 81, 115126


--------------------------------------------------------------------------------------------------------




--------------------------------------- Iteration      1(  17)  ---------------------------------------


    POTLOK:  cpu time      0.0685: real time      0.0856
    SETDIJ:  cpu time      0.3318: real time      0.3327
     EDDAV:  cpu time    116.8150: real time    117.1201
 BZINTS: Fermi energy:    3.532965;  112.000000 electrons
         Band energy:-0.273954E+03;  BLOECHL correction:    0.000000
       DOS:  cpu time      0.0090: real time      0.0091
    CHARGE:  cpu time      0.0898: real time      0.0900
    MIXING:  cpu time      0.0006: real time      0.0006
    --------------------------------------------
      LOOP:  cpu time    117.3147: real time    117.6382

 eigenvalue-minimisations  :  3072
 total energy-change (2. order) :-0.2620017E-04  (-0.8485387E-06)
 number of electron     111.9999996 magnetization 
 augmentation part      -19.4310237 magnetization 

 Free energy of the ion-electron system (eV)
  ---------------------------------------------------
  alpha Z        PSCENC =       116.37456510
  Ewald energy   TEWEN  =     -4031.12465643
  -Hartree energ DENC   =      -508.96303399
  -exchange      EXHF   =       169.76681809
  -V(xc)+E(xc)   XCENC  =      -303.73135272
  PAW double counting   =     22079.82844419   -21600.88644253
  entropy T*S    EENTRO =         0.00000000
  eigenvalues    EBANDS =      -273.95404239
  atomic energy  EATOM  =      4253.45924273
  Solvation  Ediel_sol  =         0.00000000
  ---------------------------------------------------
  free energy    TOTEN  =       -99.23045796 eV

  energy without entropy =      -99.23045796  energy(sigma->0) =      -99.23045796
  exchange ACFDT corr.  =         0.00000000  see jH, gK, PRB 81, 115126


--------------------------------------------------------------------------------------------------------




--------------------------------------- Iteration      1(  18)  ---------------------------------------


    POTLOK:  cpu time      0.0703: real time      0.1328
    SETDIJ:  cpu time      0.3323: real time      0.3331
     EDDAV:  cpu time    116.3504: real time    116.6537
 BZINTS: Fermi energy:    3.533101;  112.000000 electrons
         Band energy:-0.273927E+03;  BLOECHL correction:    0.000000
       DOS:  cpu time      0.0110: real time      0.0111
    CHARGE:  cpu time      0.0792: real time      0.0794
    MIXING:  cpu time      0.0005: real time      0.0005
    --------------------------------------------
      LOOP:  cpu time    116.8437: real time    117.2106

 eigenvalue-minimisations  :  2844
 total energy-change (2. order) :-0.1530877E-04  (-0.3996171E-06)
 number of electron     111.9999996 magnetization 
 augmentation part      -19.4310908 magnetization 

 Free energy of the ion-electron system (eV)
  ---------------------------------------------------
  alpha Z        PSCENC =       116.37456510
  Ewald energy   TEWEN  =     -4031.12465643
  -Hartree energ DENC   =      -508.99235569
  -exchange      EXHF   =       169.76669005
  -V(xc)+E(xc)   XCENC  =      -303.72828112
  PAW double counting   =     22105.65061776   -21626.70917906
  entropy T*S    EENTRO =         0.00000000
  eigenvalues    EBANDS =      -273.92711659
  atomic energy  EATOM  =      4253.45924273
  Solvation  Ediel_sol  =         0.00000000
  ---------------------------------------------------
  free energy    TOTEN  =       -99.23047327 eV

  energy without entropy =      -99.23047327  energy(sigma->0) =      -99.23047327
  exchange ACFDT corr.  =         0.00000000  see jH, gK, PRB 81, 115126


--------------------------------------------------------------------------------------------------------




--------------------------------------- Iteration      1(  19)  ---------------------------------------


    POTLOK:  cpu time      0.0740: real time      0.0913
    SETDIJ:  cpu time      0.3408: real time      0.3418
     EDDAV:  cpu time    116.1628: real time    116.4654
 BZINTS: Fermi energy:    3.533229;  112.000000 electrons
         Band energy:-0.273909E+03;  BLOECHL correction:    0.000000
       DOS:  cpu time      0.0085: real time      0.0086
    --------------------------------------------
      LOOP:  cpu time    116.5861: real time    116.9071

 eigenvalue-minimisations  :  2736
 total energy-change (2. order) :-0.8676745E-05  (-0.1938669E-06)
 number of electron     111.9999996 magnetization 
 augmentation part      -19.4310908 magnetization 

 Free energy of the ion-electron system (eV)
  ---------------------------------------------------
  alpha Z        PSCENC =       116.37456510
  Ewald energy   TEWEN  =     -4031.12465643
  -Hartree energ DENC   =      -509.01197189
  -exchange      EXHF   =       169.76630793
  -V(xc)+E(xc)   XCENC  =      -303.72634714
  PAW double counting   =     22121.31907336   -21642.37794200
  entropy T*S    EENTRO =         0.00000000
  eigenvalues    EBANDS =      -273.90875359
  atomic energy  EATOM  =      4253.45924273
  Solvation  Ediel_sol  =         0.00000000
  ---------------------------------------------------
  free energy    TOTEN  =       -99.23048194 eV

  energy without entropy =      -99.23048194  energy(sigma->0) =      -99.23048194
  exchange ACFDT corr.  =         0.00000000  see jH, gK, PRB 81, 115126


--------------------------------------------------------------------------------------------------------




 average (electrostatic) potential at core
  the test charge radii are     1.1712  1.0808
  (the norm of the test charge is              1.0000)
       1 -85.3767       2 -85.3767       3 -85.3767       4 -85.3767       5 -85.4260
       6 -85.4260       7 -85.4260       8 -85.4260       9 -50.2115      10 -50.2115
      11 -50.2115      12 -50.2115      13 -50.3575      14 -50.3575      15 -50.3575
      16 -50.3575      17 -50.2432      18 -50.2432      19 -50.2432      20 -50.2432
 
 
 
 E-fermi :   3.5332     XC(G=0):  -7.5003     alpha+bet : -9.3892

 Fermi energy:         3.5332294110

 k-point     1 :       0.0000    0.0000    0.0000
  band No.  band energies     occupation 
      1     -11.8986      2.00000
      2     -11.6682      2.00000
      3     -11.3181      2.00000
      4     -11.1933      2.00000
      5     -11.0618      2.00000
      6     -10.8924      2.00000
      7     -10.3353      2.00000
      8     -10.1623      2.00000
      9     -10.0539      2.00000
     10      -9.9224      2.00000
     11      -9.8703      2.00000
     12      -9.8017      2.00000
     13      -6.2609      2.00000
     14      -6.0628      2.00000
     15      -5.9587      2.00000
     16      -5.4998      2.00000
     17      -5.4189      2.00000
     18      -5.3670      2.00000
     19      -4.2878      2.00000
     20      -3.9554      2.00000
     21      -1.4642      2.00000
     22      -1.3531      2.00000
     23      -0.8710      2.00000
     24      -0.6842      2.00000
     25      -0.3926      2.00000
     26      -0.2387      2.00000
     27      -0.0989      2.00000
     28      -0.0286      2.00000
     29       0.2543      2.00000
     30       0.2599      2.00000
     31       0.6199      2.00000
     32       0.7564      2.00000
     33       0.7887      2.00000
     34       0.7994      2.00000
     35       1.0398      2.00000
     36       1.0949      2.00000
     37       1.0981      2.00000
     38       1.1444      2.00000
     39       1.3746      2.00000
     40       1.5077      2.00000
     41       1.8037      2.00000
     42       1.9944      2.00000
     43       2.0171      2.00000
     44       2.2200      2.00000
     45       2.2938      2.00000
     46       2.4068      2.00000
     47       2.4546      2.00000
     48       2.5955      2.00000
     49       2.6035      2.00000
     50       2.6607      2.00000
     51       2.8271      2.00000
     52       2.9277      2.00000
     53       3.1639      2.00000
     54       3.3933      2.00000
     55       3.4317      2.00000
     56       3.4717      2.00000
     57       5.2346      0.00000
     58       5.3143      0.00000
     59       5.3547      0.00000
     60       5.4825      0.00000
     61       5.8228      0.00000
     62       5.8880      0.00000
     63       6.3416      0.00000
     64       6.3820      0.00000
     65       6.5301      0.00000
     66       6.5388      0.00000
     67       6.6566      0.00000
     68       6.9240      0.00000
     69       6.9379      0.00000
     70       6.9711      0.00000
     71       7.0376      0.00000
     72       7.1698      0.00000
     73       7.3332      0.00000
     74       7.4022      0.00000
     75       7.8447      0.00000
     76       7.8724      0.00000
     77       8.0504      0.00000
     78       8.5640      0.00000
     79       8.6426      0.00000
     80       8.9153      0.00000
     81       8.9662      0.00000
     82       9.1772      0.00000
     83      10.2854      0.00000
     84      10.5565      0.00000
     85      10.6340      0.00000
     86      10.9918      0.00000
     87      11.2354      0.00000
     88      11.2573      0.00000
     89      11.6864      0.00000
     90      11.6905      0.00000
     91      11.7027      0.00000
     92      11.8485      0.00000
     93      12.1879      0.00000
     94      12.2237      0.00000
     95      12.2419      0.00000
     96      12.3316      0.00000
     97      12.4171      0.00000
     98      12.4369      0.00000
     99      12.7594      0.00000
    100      12.7782      0.00000
    101      12.8948      0.00000
    102      13.1264      0.00000
    103      13.2442      0.00000
    104      13.3257      0.00000
    105      13.5399      0.00000
    106      13.6591      0.00000
    107      13.6749      0.00000
    108      13.7748      0.00000

 k-point     2 :       0.1667    0.0000    0.0000
  band No.  band energies     occupation 
      1     -11.7001      2.00000
      2     -11.4782      2.00000
      3     -11.1425      2.00000
      4     -11.0226      2.00000
      5     -10.8805      2.00000
      6     -10.7310      2.00000
      7     -10.2079      2.00000
      8     -10.0958      2.00000
      9      -9.9792      2.00000
     10      -9.8655      2.00000
     11      -9.8009      2.00000
     12      -9.7809      2.00000
     13      -6.3528      2.00000
     14      -6.1897      2.00000
     15      -5.9230      2.00000
[...]
   26.503325    0.619813    0.617497    0.611662    0.000000   -0.000000   -0.000000
   26.532196    0.620735    0.618427    0.612614    0.000000   -0.000000   -0.000000
   26.561067    0.621654    0.619352    0.613563    0.000000   -0.000000   -0.000000
   26.589937    0.622569    0.620274    0.614508    0.000000   -0.000000   -0.000000
   26.618808    0.623481    0.621192    0.615449    0.000000   -0.000000   -0.000000
   26.647679    0.624389    0.622106    0.616386    0.000000   -0.000000   -0.000000
   26.676549    0.625293    0.623017    0.617319    0.000000   -0.000000   -0.000000
   26.705420    0.626194    0.623924    0.618249    0.000000   -0.000000   -0.000000
   26.734291    0.627091    0.624827    0.619175    0.000000   -0.000000   -0.000000
   26.763162    0.627985    0.625727    0.620097    0.000000   -0.000000   -0.000000
   26.792032    0.628875    0.626624    0.621016    0.000000   -0.000000   -0.000000
   26.820903    0.629762    0.627517    0.621931    0.000000   -0.000000   -0.000000
   26.849774    0.630645    0.628406    0.622842    0.000000   -0.000000   -0.000000
   26.878645    0.631525    0.629292    0.623750    0.000000   -0.000000   -0.000000
   26.907515    0.632401    0.630175    0.624654    0.000000   -0.000000   -0.000000
   26.936386    0.633274    0.631054    0.625555    0.000000   -0.000000   -0.000000
   26.965257    0.634144    0.631930    0.626452    0.000000   -0.000000   -0.000000
   26.994127    0.635011    0.632803    0.627346    0.000000   -0.000000   -0.000000
   27.022998    0.635874    0.633672    0.628237    0.000000   -0.000000   -0.000000
   27.051869    0.636734    0.634537    0.629124    0.000000   -0.000000   -0.000000
   27.080740    0.637590    0.635400    0.630007    0.000000   -0.000000   -0.000000
   27.109610    0.638444    0.636259    0.630887    0.000000   -0.000000   -0.000000
   27.138481    0.639294    0.637115    0.631764    0.000000   -0.000000   -0.000000
   27.167352    0.640141    0.637968    0.632637    0.000000   -0.000000   -0.000000
   27.196223    0.640984    0.638817    0.633507    0.000000   -0.000000   -0.000000
   27.225093    0.641825    0.639664    0.634374    0.000000   -0.000000   -0.000000
   27.253964    0.642662    0.640507    0.635238    0.000000   -0.000000   -0.000000
   27.282835    0.643496    0.641347    0.636098    0.000000   -0.000000   -0.000000
   27.311705    0.644327    0.642183    0.636955    0.000000   -0.000000   -0.000000
   27.340576    0.645155    0.643017    0.637808    0.000000   -0.000000   -0.000000
   27.369447    0.645980    0.643848    0.638659    0.000000   -0.000000   -0.000000
   27.398318    0.646802    0.644675    0.639506    0.000000   -0.000000   -0.000000
   27.427188    0.647621    0.645499    0.640350    0.000000   -0.000000   -0.000000
   27.456059    0.648437    0.646321    0.641191    0.000000   -0.000000   -0.000000
   27.484930    0.649250    0.647139    0.642029    0.000000   -0.000000   -0.000000
   27.513800    0.650059    0.647954    0.642864    0.000000   -0.000000   -0.000000
   27.542671    0.650866    0.648767    0.643695    0.000000   -0.000000   -0.000000
   27.571542    0.651670    0.649576    0.644524    0.000000   -0.000000   -0.000000
   27.600413    0.652471    0.650382    0.645349    0.000000   -0.000000   -0.000000
   27.629283    0.653269    0.651186    0.646172    0.000000   -0.000000   -0.000000
   27.658154    0.654064    0.651986    0.646991    0.000000   -0.000000   -0.000000
   27.687025    0.654856    0.652783    0.647807    0.000000   -0.000000   -0.000000
   27.715896    0.655646    0.653578    0.648621    0.000000   -0.000000   -0.000000
   27.744766    0.656432    0.654370    0.649431    0.000000   -0.000000   -0.000000
   27.773637    0.657216    0.655159    0.650238    0.000000   -0.000000   -0.000000
   27.802508    0.657996    0.655945    0.651043    0.000000   -0.000000   -0.000000
   27.831378    0.658774    0.656728    0.651844    0.000000   -0.000000   -0.000000
   27.860249    0.659549    0.657508    0.652643    0.000000   -0.000000   -0.000000
   27.889120    0.660322    0.658286    0.653438    0.000000   -0.000000   -0.000000
   27.917991    0.661091    0.659060    0.654231    0.000000   -0.000000   -0.000000
   27.946861    0.661858    0.659832    0.655021    0.000000   -0.000000   -0.000000
   27.975732    0.662622    0.660601    0.655808    0.000000   -0.000000   -0.000000
   28.004603    0.663384    0.661368    0.656592    0.000000   -0.000000   -0.000000
   28.033474    0.664142    0.662131    0.657373    0.000000   -0.000000   -0.000000
   28.062344    0.664898    0.662892    0.658152    0.000000   -0.000000   -0.000000
   28.091215    0.665651    0.663651    0.658928    0.000000   -0.000000   -0.000000
   28.120086    0.666402    0.664406    0.659701    0.000000   -0.000000   -0.000000
   28.148956    0.667150    0.665159    0.660471    0.000000   -0.000000   -0.000000
   28.177827    0.667895    0.665909    0.661238    0.000000   -0.000000   -0.000000
   28.206698    0.668638    0.666657    0.662003    0.000000   -0.000000   -0.000000
   28.235569    0.669378    0.667402    0.662765    0.000000   -0.000000   -0.000000
   28.264439    0.670115    0.668144    0.663524    0.000000   -0.000000   -0.000000
   28.293310    0.670850    0.668884    0.664281    0.000000   -0.000000   -0.000000
   28.322181    0.671582    0.669621    0.665035    0.000000   -0.000000   -0.000000
   28.351051    0.672312    0.670355    0.665786    0.000000   -0.000000   -0.000000
   28.379922    0.673039    0.671087    0.666534    0.000000   -0.000000   -0.000000
   28.408793    0.673764    0.671816    0.667280    0.000000   -0.000000   -0.000000
   28.437664    0.674486    0.672543    0.668023    0.000000   -0.000000   -0.000000
   28.466534    0.675205    0.673268    0.668764    0.000000   -0.000000   -0.000000
   28.495405    0.675923    0.673989    0.669502    0.000000   -0.000000   -0.000000
   28.524276    0.676637    0.674709    0.670238    0.000000   -0.000000   -0.000000
   28.553147    0.677349    0.675425    0.670970    0.000000   -0.000000   -0.000000
   28.582017    0.678059    0.676140    0.671701    0.000000   -0.000000   -0.000000
   28.610888    0.678766    0.676851    0.672429    0.000000   -0.000000   -0.000000
   28.639759    0.679471    0.677561    0.673154    0.000000   -0.000000   -0.000000
   28.668629    0.680173    0.678268    0.673876    0.000000   -0.000000   -0.000000
   28.697500    0.680873    0.678972    0.674597    0.000000   -0.000000   -0.000000
   28.726371    0.681571    0.679674    0.675314    0.000000   -0.000000   -0.000000
   28.755242    0.682266    0.680374    0.676030    0.000000   -0.000000   -0.000000
   28.784112    0.682958    0.681071    0.676742    0.000000   -0.000000   -0.000000
   28.812983    0.683649    0.681766    0.677453    0.000000   -0.000000   -0.000000
   28.841854    0.684337    0.682458    0.678160    0.000000   -0.000000   -0.000000
   28.870725    0.685022    0.683148    0.678866    0.000000   -0.000000   -0.000000
   28.899595    0.685706    0.683836    0.679569    0.000000   -0.000000   -0.000000
   28.928466    0.686387    0.684522    0.680269    0.000000   -0.000000   -0.000000
   28.957337    0.687065    0.685205    0.680967    0.000000   -0.000000   -0.000000
   28.986207    0.687742    0.685886    0.681663    0.000000   -0.000000   -0.000000
   29.015078    0.688416    0.686564    0.682357    0.000000   -0.000000   -0.000000
   29.043949    0.689088    0.687240    0.683048    0.000000   -0.000000   -0.000000
   29.072820    0.689757    0.687914    0.683736    0.000000   -0.000000   -0.000000
   29.101690    0.690425    0.688586    0.684423    0.000000   -0.000000   -0.000000
   29.130561    0.691090    0.689255    0.685107    0.000000   -0.000000   -0.000000
   29.159432    0.691753    0.689922    0.685788    0.000000   -0.000000   -0.000000
   29.188303    0.692413    0.690587    0.686468    0.000000   -0.000000   -0.000000
   29.217173    0.693072    0.691250    0.687145    0.000000   -0.000000   -0.000000
   29.246044    0.693728    0.691910    0.687819    0.000000   -0.000000   -0.000000
   29.274915    0.694382    0.692568    0.688492    0.000000   -0.000000   -0.000000
   29.303785    0.695034    0.693224    0.689162    0.000000   -0.000000   -0.000000
   29.332656    0.695683    0.693878    0.689830    0.000000   -0.000000   -0.000000
   29.361527    0.696331    0.694530    0.690496    0.000000   -0.000000   -0.000000
   29.390398    0.696976    0.695179    0.691159    0.000000   -0.000000   -0.000000
   29.419268    0.697620    0.695827    0.691821    0.000000   -0.000000   -0.000000
   29.448139    0.698261    0.696472    0.692480    0.000000   -0.000000   -0.000000
   29.477010    0.698900    0.697115    0.693136    0.000000   -0.000000   -0.000000
   29.505880    0.699536    0.697756    0.693791    0.000000   -0.000000   -0.000000
   29.534751    0.700171    0.698395    0.694444    0.000000   -0.000000   -0.000000
   29.563622    0.700804    0.699032    0.695094    0.000000   -0.000000   -0.000000
   29.592493    0.701434    0.699666    0.695742    0.000000   -0.000000   -0.000000
   29.621363    0.702063    0.700299    0.696388    0.000000   -0.000000   -0.000000
   29.650234    0.702689    0.700929    0.697032    0.000000   -0.000000   -0.000000
   29.679105    0.703314    0.701558    0.697674    0.000000   -0.000000   -0.000000
   29.707976    0.703936    0.702184    0.698313    0.000000   -0.000000   -0.000000
   29.736846    0.704557    0.702808    0.698951    0.000000   -0.000000   -0.000000
   29.765717    0.705175    0.703430    0.699586    0.000000   -0.000000   -0.000000
   29.794588    0.705791    0.704051    0.700219    0.000000   -0.000000   -0.000000
   29.823458    0.706405    0.704669    0.700851    0.000000   -0.000000   -0.000000
   29.852329    0.707018    0.705285    0.701480    0.000000   -0.000000   -0.000000
   29.881200    0.707628    0.705899    0.702107    0.000000   -0.000000   -0.000000
   29.910071    0.708236    0.706511    0.702732    0.000000   -0.000000   -0.000000
   29.938941    0.708843    0.707122    0.703355    0.000000   -0.000000   -0.000000
   29.967812    0.709447    0.707730    0.703976    0.000000   -0.000000   -0.000000
   29.996683    0.710050    0.708336    0.704595    0.000000   -0.000000   -0.000000
   30.025554    0.710650    0.708940    0.705212    0.000000   -0.000000   -0.000000
   30.054424    0.711249    0.709543    0.705826    0.000000   -0.000000   -0.000000
   30.083295    0.711845    0.710143    0.706439    0.000000   -0.000000   -0.000000
   30.112166    0.712440    0.710742    0.707050    0.000000   -0.000000   -0.000000
   30.141036    0.713033    0.711338    0.707659    0.000000   -0.000000   -0.000000
   30.169907    0.713624    0.711933    0.708266    0.000000   -0.000000   -0.000000
   30.198778    0.714213    0.712526    0.708871    0.000000   -0.000000   -0.000000
   30.227649    0.714800    0.713117    0.709474    0.000000   -0.000000   -0.000000
   30.256519    0.715385    0.713706    0.710075    0.000000   -0.000000   -0.000000
   30.285390    0.715969    0.714293    0.710675    0.000000   -0.000000   -0.000000
   30.314261    0.716550    0.714878    0.711272    0.000000   -0.000000   -0.000000
   30.343131    0.717130    0.715461    0.711867    0.000000   -0.000000   -0.000000
   30.372002    0.717708    0.716043    0.712461    0.000000   -0.000000   -0.000000
   30.400873    0.718284    0.716622    0.713052    0.000000   -0.000000   -0.000000
   30.429744    0.718858    0.717200    0.713642    0.000000   -0.000000   -0.000000
   30.458614    0.719430    0.717776    0.714230    0.000000   -0.000000   -0.000000
   30.487485    0.720001    0.718350    0.714815    0.000000   -0.000000   -0.000000
   30.516356    0.720570    0.718923    0.715399    0.000000   -0.000000   -0.000000
   30.545227    0.721137    0.719493    0.715982    0.000000   -0.000000   -0.000000
   30.574097    0.721702    0.720062    0.716562    0.000000   -0.000000   -0.000000
   30.602968    0.722265    0.720629    0.717140    0.000000   -0.000000   -0.000000
   30.631839    0.722827    0.721194    0.717717    0.000000   -0.000000   -0.000000
   30.660709    0.723387    0.721758    0.718292    0.000000   -0.000000   -0.000000
   30.689580    0.723945    0.722319    0.718865    0.000000   -0.000000   -0.000000
   30.718451    0.724502    0.722879    0.719436    0.000000   -0.000000   -0.000000
   30.747322    0.725056    0.723438    0.720005    0.000000   -0.000000   -0.000000
   30.776192    0.725609    0.723994    0.720573    0.000000   -0.000000   -0.000000
   30.805063    0.726160    0.724549    0.721139    0.000000   -0.000000   -0.000000
   30.833934    0.726710    0.725102    0.721703    0.000000   -0.000000   -0.000000
   30.862805    0.727258    0.725653    0.722265    0.000000   -0.000000   -0.000000
   30.891675    0.727804    0.726202    0.722826    0.000000   -0.000000   -0.000000
   30.920546    0.728348    0.726750    0.723384    0.000000   -0.000000   -0.000000
   30.949417    0.728891    0.727296    0.723941    0.000000   -0.000000   -0.000000
   30.978287    0.729432    0.727841    0.724497    0.000000   -0.000000   -0.000000
   31.007158    0.729971    0.728383    0.725050    0.000000   -0.000000   -0.000000
   31.036029    0.730509    0.728924    0.725602    0.000000   -0.000000   -0.000000
   31.064900    0.731045    0.729464    0.726152    0.000000   -0.000000   -0.000000
   31.093770    0.731580    0.730002    0.726700    0.000000   -0.000000   -0.000000
   31.122641    0.732112    0.730538    0.727247    0.000000   -0.000000   -0.000000
   31.151512    0.732643    0.731072    0.727792    0.000000   -0.000000   -0.000000
   31.180382    0.733173    0.731605    0.728335    0.000000   -0.000000   -0.000000
   31.209253    0.733701    0.732136    0.728877    0.000000   -0.000000   -0.000000
   31.238124    0.734227    0.732666    0.729417    0.000000   -0.000000   -0.000000
   31.266995    0.734752    0.733194    0.729955    0.000000   -0.000000   -0.000000
   31.295865    0.735275    0.733720    0.730492    0.000000   -0.000000   -0.000000
   31.324736    0.735796    0.734245    0.731027    0.000000   -0.000000   -0.000000
   31.353607    0.736316    0.734768    0.731560    0.000000   -0.000000   -0.000000
   31.382478    0.736834    0.735289    0.732092    0.000000   -0.000000   -0.000000
   31.411348    0.737351    0.735809    0.732622    0.000000   -0.000000   -0.000000
   31.440219    0.737866    0.736327    0.733150    0.000000   -0.000000   -0.000000
   31.469090    0.738380    0.736844    0.733677    0.000000   -0.000000   -0.000000
   31.497960    0.738892    0.737359    0.734202    0.000000   -0.000000   -0.000000
   31.526831    0.739402    0.737873    0.734726    0.000000   -0.000000   -0.000000
   31.555702    0.739911    0.738385    0.735248    0.000000   -0.000000   -0.000000
   31.584573    0.740419    0.738896    0.735768    0.000000   -0.000000   -0.000000
   31.613443    0.740924    0.739405    0.736287    0.000000   -0.000000   -0.000000
   31.642314    0.741429    0.739912    0.736804    0.000000   -0.000000   -0.000000
   31.671185    0.741932    0.740418    0.737320    0.000000   -0.000000   -0.000000
   31.700056    0.742433    0.740923    0.737834    0.000000   -0.000000   -0.000000
   31.728926    0.742933    0.741426    0.738347    0.000000   -0.000000   -0.000000
   31.757797    0.743431    0.741927    0.738858    0.000000   -0.000000   -0.000000
   31.786668    0.743928    0.742427    0.739367    0.000000   -0.000000   -0.000000
   31.815538    0.744423    0.742925    0.739875    0.000000   -0.000000   -0.000000
   31.844409    0.744917    0.743422    0.740381    0.000000   -0.000000   -0.000000
   31.873280    0.745410    0.743918    0.740886    0.000000   -0.000000   -0.000000
   31.902151    0.745900    0.744412    0.741390    0.000000   -0.000000   -0.000000
   31.931021    0.746390    0.744904    0.741892    0.000000   -0.000000   -0.000000
   31.959892    0.746878    0.745395    0.742392    0.000000   -0.000000   -0.000000
   31.988763    0.747365    0.745885    0.742891    0.000000   -0.000000   -0.000000
   32.017634    0.747850    0.746373    0.743388    0.000000   -0.000000   -0.000000
   32.046504    0.748333    0.746860    0.743884    0.000000   -0.000000   -0.000000
   32.075375    0.748816    0.747345    0.744378    0.000000   -0.000000   -0.000000
   32.104246    0.749296    0.747829    0.744871    0.000000   -0.000000   -0.000000
   32.133116    0.749776    0.748311    0.745363    0.000000   -0.000000   -0.000000
   32.161987    0.750254    0.748792    0.745853    0.000000   -0.000000   -0.000000
   32.190858    0.750730    0.749272    0.746341    0.000000   -0.000000   -0.000000
   32.219729    0.751206    0.749750    0.746828    0.000000   -0.000000   -0.000000
   32.248599    0.751679    0.750226    0.747314    0.000000   -0.000000   -0.000000
   32.277470    0.752152    0.750702    0.747798    0.000000   -0.000000   -0.000000
   32.306341    0.752623    0.751176    0.748281    0.000000   -0.000000   -0.000000
   32.335211    0.753092    0.751648    0.748762    0.000000   -0.000000   -0.000000
   32.364082    0.753561    0.752119    0.749242    0.000000   -0.000000   -0.000000
 
 The outermost node in the dielectric function lies at epsilon=  17.6


--------------------------------------------------------------------------------------------------------


    OPTICS:  cpu time     12.0632: real time     12.1380
    4ORBIT:  cpu time      0.0000: real time      0.0000



 total charge

# of ion       s       p       d       tot
------------------------------------------
    1        1.323   1.026   0.066   2.415
    2        1.323   1.026   0.066   2.415
    3        1.323   1.026   0.066   2.415
    4        1.323   1.026   0.066   2.415
    5        1.315   1.046   0.062   2.422
    6        1.315   1.046   0.062   2.422
    7        1.315   1.046   0.062   2.422
    8        1.315   1.046   0.062   2.422
    9        1.492   2.334   0.028   3.854
   10        1.492   2.334   0.028   3.854
   11        1.492   2.334   0.028   3.854
   12        1.492   2.334   0.028   3.854
   13        1.496   2.321   0.028   3.846
   14        1.496   2.321   0.028   3.846
   15        1.496   2.321   0.028   3.846
   16        1.496   2.321   0.028   3.846
   17        1.491   2.330   0.024   3.846
   18        1.491   2.330   0.024   3.846
   19        1.491   2.330   0.024   3.846
   20        1.491   2.330   0.024   3.846
--------------------------------------------------
tot         28.470  36.231   0.831  65.533
 
 BZINTS: Fermi energy:    3.533229;  112.000000 electrons
         Band energy:-0.273909E+03;  BLOECHL correction:    0.000000

 total amount of memory used by VASP MPI-rank0    76283. kBytes
=======================================================================

   base      :      30000. kBytes
   nonl-proj :       8623. kBytes
   fftplans  :       3122. kBytes
   grid      :       4169. kBytes
   one-center:         16. kBytes
   HF        :         67. kBytes
   nonlr-proj:       4113. kBytes
   wavefun   :       5529. kBytes
   fock_wrk  :      20644. kBytes
 
  
  
 General timing and accounting informations for this job:
 ========================================================
  
                  Total CPU time used (sec):     2637.996
                            User time (sec):     2340.610
                          System time (sec):      297.387
                         Elapsed time (sec):     2654.239
  
                   Maximum memory used (kb):      391300.
                   Average memory used (kb):          N/A
  
                          Minor page faults:       432435
                          Major page faults:            0
                 Voluntary context switches:        24099
