 vasp.6.4.2 20Jul23 (build Mar 15 2024 16:31:38) complex                        
  
 executed on             LinuxIFC date 2025.03.19  14:45:58
 running  120 mpi-ranks, on    3 nodes
 distrk:  each k-point on  120 cores,    1 groups
 distr:  one band on NCORE=  10 cores,   12 groups


--------------------------------------------------------------------------------------------------------


 INCAR:
   ALGO = Fast
   EDIFF = 1e-05
   ENAUG = 1360
   ENCUT = 680
   GGA = Ps
   ISMEAR = -5
   ISPIN = 2
   LAECHG = True
   LASPH = True
   LCHARG = True
   LELF = False
   LMAXMIX = 4
   LMIXTAU = True
   LORBIT = 11
   LREAL = False
   LVTOT = True
   LWAVE = True
   MAGMOM = 20*0.6
   NCORE = 10
   NELM = 200
   NSW = 0
   PREC = Accurate
   SIGMA = 0.2

 POTCAR:    PAW_PBE Sb 06Sep2000                  
 POTCAR:    PAW_PBE S 06Sep2000                   
 WARNING: For LVTOT=.TRUE., VASP.5.x writes the TOTAL local potential to the
     file LOCPOT. If you want only the Hartree contributions, use LVHAR=.TRUE.
     instead. 

 POTCAR:    PAW_PBE Sb 06Sep2000                  
   VRHFIN =Sb: s2p3                                                                                 
   LEXCH  = PE                                                                                      
   EATOM  =   149.9515 eV,   11.0211 Ry                                                             
                                                                                                    
   TITEL  = PAW_PBE Sb 06Sep2000                                                                    
   LULTRA =        F    use ultrasoft PP ?                                                          
   IUNSCR =        1    unscreen: 0-lin 1-nonlin 2-no                                               
   RPACOR =    2.200    partial core radius                                                         
   POMASS =  121.750; ZVAL   =    5.000    mass and valenz                                          
   RCORE  =    2.300    outmost cutoff radius                                                       
   RWIGS  =    2.980; RWIGS  =    1.577    wigner-seitz radius (au A)                               
   ENMAX  =  172.069; ENMIN  =  129.052 eV                                                          
   ICORE  =        3    local potential                                                             
   LCOR   =        T    correct aug charges                                                         
   LPAW   =        T    paw PP                                                                      
   EAUG   =  380.513                                                                                
   DEXC   =    0.000                                                                                
   RMAX   =    2.346    core radius for proj-oper                                                   
   RAUG   =    1.300    factor for augmentation sphere                                              
   RDEP   =    2.360    radius for radial grids                                                     
   RDEPT  =    2.192    core radius for aug-charge                                                  
                                                                                                    
   Atomic configuration                                                                             
   13 entries                                                                                       
     n  l   j            E        occ.                                                              
     1  0  0.50    -30298.2797   2.0000                                                             
     2  0  0.50     -4610.2252   2.0000                                                             
     2  1  1.50     -4138.3407   6.0000                                                             
     3  0  0.50      -903.8815   2.0000                                                             
     3  1  1.50      -750.1337   6.0000                                                             
     3  2  2.50      -515.7092  10.0000                                                             
     4  0  0.50      -148.8034   2.0000                                                             
     4  1  1.50      -101.7581   6.0000                                                             
     4  2  2.50       -33.5048  10.0000                                                             
     5  0  0.50       -12.8298   2.0000                                                             
     5  1  0.50        -4.8276   3.0000                                                             
     5  2  1.50        -4.0817   0.0000                                                             
     4  3  2.50        -4.0817   0.0000                                                             
   Description                                                                                      
     l       E           TYP  RCUT    TYP  RCUT                                                     
     0    -12.8297861     23  2.300                                                                 
     0     13.6058260     23  2.300                                                                 
     1     -4.8275512     23  2.300                                                                 
     1     -0.7245443     23  2.300                                                                 
     2     -4.0817478     23  2.300                                                                 
     3     -1.3605826     23  2.300                                                                 
  local pseudopotential read in
  partial core-charges read in
  partial kinetic energy density read in
  atomic valenz-charges read in
  non local Contribution for L=           0  read in
    real space projection operators read in
  non local Contribution for L=           0  read in
    real space projection operators read in
  non local Contribution for L=           1  read in
    real space projection operators read in
  non local Contribution for L=           1  read in
    real space projection operators read in
  non local Contribution for L=           2  read in
    real space projection operators read in
    PAW grid and wavefunctions read in
 
   number of l-projection  operators is LMAX  =           5
   number of lm-projection operators is LMMAX =          13
 
 POTCAR:    PAW_PBE S 06Sep2000                   
   VRHFIN =S : s2p4                                                                                 
   LEXCH  = PE                                                                                      
   EATOM  =   276.8230 eV,   20.3459 Ry                                                             
                                                                                                    
   TITEL  = PAW_PBE S 06Sep2000                                                                     
   LULTRA =        F    use ultrasoft PP ?                                                          
   IUNSCR =        1    unscreen: 0-lin 1-nonlin 2-no                                               
   RPACOR =    1.500    partial core radius                                                         
   POMASS =   32.066; ZVAL   =    6.000    mass and valenz                                          
   RCORE  =    1.900    outmost cutoff radius                                                       
   RWIGS  =    2.200; RWIGS  =    1.164    wigner-seitz radius (au A)                               
   ENMAX  =  258.689; ENMIN  =  194.016 eV                                                          
   ICORE  =        2    local potential                                                             
   LCOR   =        T    correct aug charges                                                         
   LPAW   =        T    paw PP                                                                      
   EAUG   =  335.092                                                                                
   DEXC   =    0.000                                                                                
   RMAX   =    1.942    core radius for proj-oper                                                   
   RAUG   =    1.300    factor for augmentation sphere                                              
   RDEP   =    1.954    radius for radial grids                                                     
   RDEPT  =    1.744    core radius for aug-charge                                                  
                                                                                                    
   Atomic configuration                                                                             
    6 entries                                                                                       
     n  l   j            E        occ.                                                              
     1  0  0.50     -2405.8406   2.0000                                                             
     2  0  0.50      -211.7007   2.0000                                                             
     2  1  1.50      -156.4958   6.0000                                                             
     3  0  0.50       -17.2562   2.0000                                                             
     3  1  0.50        -7.0085   4.0000                                                             
     3  2  1.50        -6.8029   0.0000                                                             
   Description                                                                                      
     l       E           TYP  RCUT    TYP  RCUT                                                     
     0    -17.2561641     23  1.900                                                                 
     0    -15.8743224     23  1.900                                                                 
     1     -7.0085400     23  1.900                                                                 
     1     -2.7779785     23  1.900                                                                 
     2     -6.8029130     23  1.900                                                                 
  local pseudopotential read in
  partial core-charges read in
  partial kinetic energy density read in
  atomic valenz-charges read in
  non local Contribution for L=           0  read in
    real space projection operators read in
  non local Contribution for L=           0  read in
    real space projection operators read in
  non local Contribution for L=           1  read in
    real space projection operators read in
  non local Contribution for L=           1  read in
    real space projection operators read in
    PAW grid and wavefunctions read in
 
   number of l-projection  operators is LMAX  =           4
   number of lm-projection operators is LMMAX =           8
 
 -----------------------------------------------------------------------------
|                                                                             |
|               ----> ADVICE to this user running VASP <----                  |
|                                                                             |
|     You have a (more or less) 'large supercell' and for larger cells it     |
|     might be more efficient to use real-space projection operators.         |
|     Therefore, try LREAL= Auto in the INCAR file.                           |
|     Mind: For very accurate calculation, you might also keep the            |
|     reciprocal projection scheme (i.e. LREAL=.FALSE.).                      |
|                                                                             |
 -----------------------------------------------------------------------------

 -----------------------------------------------------------------------------
|                                                                             |
|               ----> ADVICE to this user running VASP <----                  |
|                                                                             |
|     You enforced a specific xc type in the INCAR file but a different       |
|     type was found in the POTCAR file.                                      |
|     I HOPE YOU KNOW WHAT YOU ARE DOING!                                     |
|                                                                             |
 -----------------------------------------------------------------------------

  PAW_PBE Sb 06Sep2000                  :
 energy of atom  1       EATOM= -149.9515
 kinetic energy error for atom=    0.0002 (will be added to EATOM!!)
  PAW_PBE S 06Sep2000                   :
 energy of atom  2       EATOM= -276.8230
 kinetic energy error for atom=    0.0008 (will be added to EATOM!!)
 
 
 POSCAR: Sb8 S12
  positions in direct lattice
  No initial velocities read in
 exchange correlation table for  LEXCH =       14
   RHO(1)=    0.500       N(1)  =     2000
   RHO(2)=  100.500       N(2)  =     4000
 


--------------------------------------------------------------------------------------------------------


 ion  position               nearest neighbor table
   1  0.750  0.466  0.857-  13 2.46  20 2.69  20 2.69  14 2.84  14 2.84
   2  0.250  0.534  0.143-  14 2.46  19 2.69  19 2.69  13 2.84  13 2.84
   3  0.250  0.966  0.643-  15 2.46  18 2.69  18 2.69  16 2.84  16 2.84
   4  0.750  0.034  0.357-  16 2.46  17 2.69  17 2.69  15 2.84  15 2.84
   5  0.250  0.173  0.967-  20 2.52   9 2.54   9 2.54  13 3.18  13 3.18  10 3.25
   6  0.750  0.827  0.033-  19 2.52  10 2.54  10 2.54  14 3.18  14 3.18   9 3.25
   7  0.750  0.673  0.533-  18 2.52  11 2.54  11 2.54  15 3.18  15 3.18  12 3.25
   8  0.250  0.327  0.467-  17 2.52  12 2.54  12 2.54  16 3.18  16 3.18  11 3.25
   9  0.750  0.061  0.876-   5 2.54   5 2.54   6 3.25
  10  0.250  0.939  0.124-   6 2.54   6 2.54   5 3.25
  11  0.250  0.561  0.624-   7 2.54   7 2.54   8 3.25
  12  0.750  0.439  0.376-   8 2.54   8 2.54   7 3.25
  13  0.750  0.379  0.049-   1 2.46   2 2.84   2 2.84   5 3.18   5 3.18
  14  0.250  0.621  0.951-   2 2.46   1 2.84   1 2.84   6 3.18   6 3.18
  15  0.250  0.879  0.451-   3 2.46   4 2.84   4 2.84   7 3.18   7 3.18
  16  0.750  0.121  0.549-   4 2.46   3 2.84   3 2.84   8 3.18   8 3.18
  17  0.250  0.189  0.300-   8 2.52   4 2.69   4 2.69
  18  0.750  0.811  0.700-   7 2.52   3 2.69   3 2.69
  19  0.750  0.689  0.200-   6 2.52   2 2.69   2 2.69
  20  0.250  0.311  0.800-   5 2.52   1 2.69   1 2.69
 
  LATTYP: Found a simple orthorhombic cell.
 ALAT       =     3.8447329100
 B/A-ratio  =     2.9565489739
 C/A-ratio  =     3.0691646796
  
  Lattice vectors:
  
 A1 = (   3.8447329100,   0.0000000000,   0.0000000000)
 A2 = (  -0.0000000000,  11.3671411400,   0.0000000000)
 A3 = (   0.0000000000,   0.0000000000,  11.8001184500)


Analysis of symmetry for initial positions (statically):
=====================================================================
 Subroutine PRICEL returns:
 Original cell was already a primitive cell.
 

 Routine SETGRP: Setting up the symmetry group for a 
 simple orthorhombic supercell.


 Subroutine GETGRP returns: Found  8 space group operations
 (whereof  2 operations were pure point group operations)
 out of a pool of  8 trial point group operations.


The static configuration has the point symmetry S_2 .
 The point group associated with its full space group is D_2h.


Analysis of symmetry for dynamics (positions and initial velocities):
=====================================================================
 Subroutine PRICEL returns:
 Original cell was already a primitive cell.
 

 Routine SETGRP: Setting up the symmetry group for a 
 simple orthorhombic supercell.


 Subroutine GETGRP returns: Found  8 space group operations
 (whereof  2 operations were pure point group operations)
 out of a pool of  8 trial point group operations.


The dynamic configuration has the point symmetry S_2 .
 The point group associated with its full space group is D_2h.


Analysis of structural, dynamic, and magnetic symmetry:
=====================================================================
 Subroutine PRICEL returns:
 Original cell was already a primitive cell.
 

 Routine SETGRP: Setting up the symmetry group for a 
 simple orthorhombic supercell.


 Subroutine GETGRP returns: Found  8 space group operations
 (whereof  2 operations were pure point group operations)
 out of a pool of  8 trial point group operations.


The overall configuration has the point symmetry S_2 .
 The point group associated with its full space group is D_2h.


 Subroutine INISYM returns: Found  8 space group operations
 (whereof  2 operations are pure point group operations),
 and found     1 'primitive' translations


----------------------------------------------------------------------------------------

                                     Primitive cell                                     

  volume of cell :     515.7079

  direct lattice vectors                    reciprocal lattice vectors
     3.844732910  0.000000000  0.000000000     0.260096091  0.000000000  0.000000000
    -0.000000000 11.367141140  0.000000000     0.000000000  0.087972867  0.000000000
     0.000000000  0.000000000 11.800118450    -0.000000000 -0.000000000  0.084744912

  length of vectors
     3.844732910 11.367141140 11.800118450     0.260096091  0.087972867  0.084744912

  position of ions in fractional coordinates (direct lattice)
     0.750000000  0.465583620  0.857350400
     0.250000000  0.534416380  0.142649600
     0.250000000  0.965583620  0.642649600
     0.750000000  0.034416380  0.357350400
     0.250000000  0.173082670  0.966943600
     0.750000000  0.826917330  0.033056400
     0.750000000  0.673082670  0.533056400
     0.250000000  0.326917330  0.466943600
     0.750000000  0.061469490  0.875927160
     0.250000000  0.938530510  0.124072840
     0.250000000  0.561469490  0.624072840
     0.750000000  0.438530510  0.375927160
     0.750000000  0.379232040  0.048541450
     0.250000000  0.620767960  0.951458550
     0.250000000  0.879232040  0.451458550
     0.750000000  0.120767960  0.548541450
     0.250000000  0.188547610  0.300249270
     0.750000000  0.811452390  0.699750730
     0.750000000  0.688547610  0.199750730
     0.250000000  0.311452390  0.800249270

  ion indices of the primitive-cell ions
   primitive index   ion index
                 1           1
                 2           2
                 3           3
                 4           4
                 5           5
                 6           6
                 7           7
                 8           8
                 9           9
                10          10
                11          11
                12          12
                13          13
                14          14
                15          15
                16          16
                17          17
                18          18
                19          19
                20          20

----------------------------------------------------------------------------------------

 
 
 KPOINTS: pymatgen with grid density = 616 / numbe

Automatic generation of k-mesh.
 Grid dimensions read from file:
 generate k-points for:    6    2    2

 Generating k-lattice:

  Cartesian coordinates                     Fractional coordinates (reciprocal lattice)
     0.043349348  0.000000000  0.000000000     0.166666667 -0.000000000  0.000000000
     0.000000000  0.043986434  0.000000000     0.000000000  0.500000000  0.000000000
    -0.000000000 -0.000000000  0.042372456     0.000000000  0.000000000  0.500000000

  Length of vectors
     0.043349348  0.043986434  0.042372456

  Shift w.r.t. Gamma in fractional coordinates (k-lattice)
     0.000000000  0.000000000  0.000000000

 TETIRR: Found     72 inequivalent tetrahedra from      144
 
 Subroutine IBZKPT returns following result:
 ===========================================
 
 Found     16 irreducible k-points:
 
 Following reciprocal coordinates:
            Coordinates               Weight
  0.000000  0.000000  0.000000      1.000000
  0.166667  0.000000  0.000000      2.000000
  0.333333  0.000000  0.000000      2.000000
  0.500000  0.000000  0.000000      1.000000
  0.000000  0.500000  0.000000      1.000000
  0.166667  0.500000  0.000000      2.000000
  0.333333  0.500000  0.000000      2.000000
  0.500000  0.500000  0.000000      1.000000
  0.000000  0.000000  0.500000      1.000000
  0.166667  0.000000  0.500000      2.000000
  0.333333  0.000000  0.500000      2.000000
  0.500000  0.000000  0.500000      1.000000
  0.000000  0.500000  0.500000      1.000000
  0.166667  0.500000  0.500000      2.000000
  0.333333  0.500000  0.500000      2.000000
  0.500000  0.500000  0.500000      1.000000
 
 Following cartesian coordinates:
            Coordinates               Weight
  0.000000  0.000000  0.000000      1.000000
  0.043349  0.000000  0.000000      2.000000
  0.086699  0.000000  0.000000      2.000000
  0.130048  0.000000  0.000000      1.000000
  0.000000  0.043986  0.000000      1.000000
  0.043349  0.043986  0.000000      2.000000
  0.086699  0.043986  0.000000      2.000000
  0.130048  0.043986  0.000000      1.000000
 -0.000000 -0.000000  0.042372      1.000000
  0.043349  0.000000  0.042372      2.000000
  0.086699  0.000000  0.042372      2.000000
  0.130048  0.000000  0.042372      1.000000
 -0.000000  0.043986  0.042372      1.000000
  0.043349  0.043986  0.042372      2.000000
  0.086699  0.043986  0.042372      2.000000
  0.130048  0.043986  0.042372      1.000000
 


--------------------------------------------------------------------------------------------------------




 Dimension of arrays:
   k-points           NKPTS =     16   k-points in BZ     NKDIM =     16   number of bands    NBANDS=     84
   number of dos      NEDOS =    301   number of ions     NIONS =     20
   non local maximal  LDIM  =      5   non local SUM 2l+1 LMDIM =     13
   total plane-waves  NPLWV = 352800
   max r-space proj   IRMAX =      1   max aug-charges    IRDMAX=  38161
   dimension x,y,z NGX =    36 NGY =   98 NGZ =  100
   dimension x,y,z NGXF=    72 NGYF=  196 NGZF=  200
   support grid    NGXF=    72 NGYF=  196 NGZF=  200
   ions per type =               8  12
   NGX,Y,Z   is equivalent  to a cutoff of  15.57, 14.33, 14.09 a.u.
   NGXF,Y,Z  is equivalent  to a cutoff of  31.13, 28.67, 28.18 a.u.

 SYSTEM =  unknown system                          
 POSCAR =  Sb8 S12                                 

 Startparameter for this run:
   NWRITE =      2    write-flag & timer
   PREC   = accura    normal or accurate (medium, high low for compatibility)
   ISTART =      0    job   : 0-new  1-cont  2-samecut
   ICHARG =      2    charge: 1-file 2-atom 10-const
   ISPIN  =      2    spin polarized calculation?
   LNONCOLLINEAR =      F non collinear calculations
   LSORBIT =      F    spin-orbit coupling
   INIWAV =      1    electr: 0-lowe 1-rand  2-diag
   LASPH  =      T    aspherical Exc in radial PAW
 Electronic Relaxation 1
   ENCUT  =  680.0 eV  49.98 Ry    7.07 a.u.   8.17 24.17 25.09*2*pi/ulx,y,z
   ENINI  =  680.0     initial cutoff
   ENAUG  = 1360.0 eV  augmentation charge cutoff
   NELM   =    200;   NELMIN=  2; NELMDL= -5     # of ELM steps 
   EDIFF  = 0.1E-04   stopping-criterion for ELM
   LREAL  =      F    real-space projection
   NLSPLINE    = F    spline interpolate recip. space projectors
   LCOMPAT=      F    compatible to vasp.4.4
   GGA_COMPAT  = T    GGA compatible to vasp.4.4-vasp.4.6
   LMAXPAW     = -100 max onsite density
   LMAXMIX     =    4 max onsite mixed and CHGCAR
   VOSKOWN=      0    Vosko Wilk Nusair interpolation
   ROPT   =    0.00000   0.00000
 Ionic relaxation
   EDIFFG = 0.1E-03   stopping-criterion for IOM
   NSW    =      0    number of steps for IOM
   NBLOCK =      1;   KBLOCK =      1    inner block; outer block 
   IBRION =     -1    ionic relax: 0-MD 1-quasi-New 2-CG
   NFREE  =      0    steps in history (QN), initial steepest desc. (CG)
   ISIF   =      2    stress and relaxation
   IWAVPR =     10    prediction:  0-non 1-charg 2-wave 3-comb
   ISYM   =      2    0-nonsym 1-usesym 2-fastsym
   LCORR  =      T    Harris-Foulkes like correction to forces

   POTIM  = 0.5000    time-step for ionic-motion
   TEIN   =    0.0    initial temperature
   TEBEG  =    0.0;   TEEND  =   0.0 temperature during run
   SMASS  =  -3.00    Nose mass-parameter (am)
   estimated Nose-frequenzy (Omega)   =  0.10E-29 period in steps = 0.13E+47 mass=  -0.338E-27a.u.
   SCALEE = 1.0000    scale energy and forces
   NPACO  =    256;   APACO  = 10.0  distance and # of slots for P.C.
   PSTRESS=    0.0 pullay stress

  Mass of Ions in am
   POMASS = 121.75 32.07
  Ionic Valenz
   ZVAL   =   5.00  6.00
  Atomic Wigner-Seitz radii
   RWIGS  =  -1.00 -1.00
  virtual crystal weights 
   VCA    =   1.00  1.00
   NELECT =     112.0000    total number of electrons
   NUPDOWN=      -1.0000    fix difference up-down

 DOS related values:
   EMIN   =  10.00;   EMAX   =-10.00  energy-range for DOS
   EFERMI =   0.00;   METHOD = LEGACY      
   ISMEAR =    -5;   SIGMA  =   0.20  broadening in eV -4-tet -1-fermi 0-gaus

 Electronic relaxation 2 (details)
   IALGO  =     68    algorithm
   LDIAG  =      T    sub-space diagonalisation (order eigenvalues)
   LSUBROT=      F    optimize rotation matrix (better conditioning)
   TURBO    =      0    0=normal 1=particle mesh
   IRESTART =      0    0=no restart 2=restart with 2 vectors
   NREBOOT  =      0    no. of reboots
   NMIN     =      0    reboot dimension
   EREF     =   0.00    reference energy to select bands
   IMIX   =      4    mixing-type and parameters
     AMIX     =   0.40;   BMIX     =  1.00
     AMIX_MAG =   1.60;   BMIX_MAG =  1.00
     AMIN     =   0.10
     WC   =   100.;   INIMIX=   1;  MIXPRE=   1;  MAXMIX= -45

 Intra band minimization:
   WEIMIN = 0.0000     energy-eigenvalue tresh-hold
   EBREAK =  0.30E-07  absolut break condition
   DEPER  =   0.30     relativ break condition  

   TIME   =   0.40     timestep for ELM

  volume/ion in A,a.u.               =      25.79       174.01
  Fermi-wavevector in a.u.,A,eV,Ry     =   0.984040  1.859567 13.175003  0.968335
  Thomas-Fermi vector in A             =   2.115243
 
 Write flags
   LWAVE        =      T    write WAVECAR
   LDOWNSAMPLE  =      F    k-point downsampling of WAVECAR
   LCHARG       =      T    write CHGCAR
   LVTOT        =      T    write LOCPOT, total local potential
   LVHAR        =      F    write LOCPOT, Hartree potential only
   LELF         =      F    write electronic localiz. function (ELF)
   LORBIT       =     11    0 simple, 1 ext, 2 COOP (PROOUT), +10 PAW based schemes


 Dipole corrections
   LMONO  =      F    monopole corrections only (constant potential shift)
   LDIPOL =      F    correct potential (dipole corrections)
   IDIPOL =      0    1-x, 2-y, 3-z, 4-all directions 
   EPSILON=  1.0000000 bulk dielectric constant

 Exchange correlation treatment:
   GGA     =    PS    GGA type
   LEXCH   =    14    internal setting for exchange type
   LIBXC   =     F    Libxc                    
   VOSKOWN =     0    Vosko Wilk Nusair interpolation
   LHFCALC =     F    Hartree Fock is set to
   LHFONE  =     F    Hartree Fock one center treatment
   AEXX    =    0.0000 exact exchange contribution

 Linear response parameters
   LEPSILON=     F    determine dielectric tensor
   LRPA    =     F    only Hartree local field effects (RPA)
   LNABLA  =     F    use nabla operator in PAW spheres
   LVEL    =     F    velocity operator in full k-point grid
   CSHIFT  =0.1000    complex shift for real part using Kramers Kronig
   OMEGAMAX=  -1.0    maximum frequency
   DEG_THRESHOLD= 0.2000000E-02 threshold for treating states as degnerate
   RTIME   =   -0.100 relaxation time in fs
  (WPLASMAI=    0.000 imaginary part of plasma frequency in eV, 0.658/RTIME)
   DFIELD  = 0.0000000 0.0000000 0.0000000 field for delta impulse in time
 
  Optional k-point grid parameters
   LKPOINTS_OPT  =     F    use optional k-point grid
   KPOINTS_OPT_MODE=     1    mode for optional k-point grid
 
 Orbital magnetization related:
   ORBITALMAG=     F  switch on orbital magnetization
   LCHIMAG   =     F  perturbation theory with respect to B field
   DQ        =  0.001000  dq finite difference perturbation B field
   LLRAUG    =     F  two centre corrections for induced B field
   LBONE     =     F  B-component reconstruction in AE one-centre
   LVGVCALC  =     T  calculate vGv susceptibility
   LVGVAPPL  =     F  apply vGv susceptibility instead of pGv for G=0

 Random number generation:
   RANDOM_GENERATOR = DEFAULT
   PCG_SEED         = not used


--------------------------------------------------------------------------------------------------------


 Static calculation
 charge density and potential will be updated during run
 spin polarized calculation
 RMM-DIIS sequential band-by-band and
  variant of blocked Davidson during initial phase
 perform sub-space diagonalisation
    before iterative eigenvector-optimisation
 modified Broyden-mixing scheme, WC =      100.0
 initial mixing is a Kerker type mixing with AMIX =  0.4000 and BMIX =      1.0000
 Hartree-type preconditioning will be used
 using additional bands           28
 reciprocal scheme for non local part
 use partial core corrections
 calculate Harris-corrections to forces 
   (improved forces if not selfconsistent)
 use gradient corrections 
 use of overlap-Matrix (Vanderbilt PP)
 Fermi weights with tetrahedron method with Bloechl corrections


--------------------------------------------------------------------------------------------------------


  energy-cutoff  :      680.00
  volume of cell :      515.71
      direct lattice vectors                 reciprocal lattice vectors
     3.844732910  0.000000000  0.000000000     0.260096091  0.000000000  0.000000000
    -0.000000000 11.367141140  0.000000000     0.000000000  0.087972867  0.000000000
     0.000000000  0.000000000 11.800118450    -0.000000000 -0.000000000  0.084744912

  length of vectors
     3.844732910 11.367141140 11.800118450     0.260096091  0.087972867  0.084744912


 
 k-points in units of 2pi/SCALE and weight: pymatgen with grid density = 616 / numbe
   0.00000000  0.00000000  0.00000000       0.042
   0.04334935  0.00000000  0.00000000       0.083
   0.08669870  0.00000000  0.00000000       0.083
   0.13004805  0.00000000  0.00000000       0.042
   0.00000000  0.04398643  0.00000000       0.042
   0.04334935  0.04398643  0.00000000       0.083
   0.08669870  0.04398643  0.00000000       0.083
   0.13004805  0.04398643  0.00000000       0.042
  -0.00000000 -0.00000000  0.04237246       0.042
   0.04334935  0.00000000  0.04237246       0.083
   0.08669870  0.00000000  0.04237246       0.083
   0.13004805  0.00000000  0.04237246       0.042
  -0.00000000  0.04398643  0.04237246       0.042
   0.04334935  0.04398643  0.04237246       0.083
   0.08669870  0.04398643  0.04237246       0.083
   0.13004805  0.04398643  0.04237246       0.042
 
 k-points in reciprocal lattice and weights: pymatgen with grid density = 616 / numbe
   0.00000000  0.00000000  0.00000000       0.042
   0.16666667  0.00000000  0.00000000       0.083
   0.33333333  0.00000000  0.00000000       0.083
   0.50000000  0.00000000  0.00000000       0.042
   0.00000000  0.50000000  0.00000000       0.042
   0.16666667  0.50000000  0.00000000       0.083
   0.33333333  0.50000000  0.00000000       0.083
   0.50000000  0.50000000  0.00000000       0.042
   0.00000000  0.00000000  0.50000000       0.042
   0.16666667  0.00000000  0.50000000       0.083
   0.33333333  0.00000000  0.50000000       0.083
   0.50000000  0.00000000  0.50000000       0.042
   0.00000000  0.50000000  0.50000000       0.042
   0.16666667  0.50000000  0.50000000       0.083
   0.33333333  0.50000000  0.50000000       0.083
   0.50000000  0.50000000  0.50000000       0.042
 
 position of ions in fractional coordinates (direct lattice) 
   0.75000000  0.46558362  0.85735040
   0.25000000  0.53441638  0.14264960
   0.25000000  0.96558362  0.64264960
   0.75000000  0.03441638  0.35735040
   0.25000000  0.17308267  0.96694360
   0.75000000  0.82691733  0.03305640
   0.75000000  0.67308267  0.53305640
   0.25000000  0.32691733  0.46694360
   0.75000000  0.06146949  0.87592716
   0.25000000  0.93853051  0.12407284
   0.25000000  0.56146949  0.62407284
   0.75000000  0.43853051  0.37592716
   0.75000000  0.37923204  0.04854145
   0.25000000  0.62076796  0.95145855
   0.25000000  0.87923204  0.45145855
   0.75000000  0.12076796  0.54854145
   0.25000000  0.18854761  0.30024927
   0.75000000  0.81145239  0.69975073
   0.75000000  0.68854761  0.19975073
   0.25000000  0.31145239  0.80024927
 
 position of ions in cartesian coordinates  (Angst):
   2.88354968  5.29235472 10.11683627
   0.96118323  6.07478642  1.68328218
   0.96118323 10.97592529  7.58334140
   2.88354968  0.39121585  4.21677705
   0.96118323  1.96745514 11.41004901
   2.88354968  9.39968600  0.39006944
   2.88354968  7.65102571  6.29012866
   0.96118323  3.71611543  5.50998979
   2.88354968  0.69873237 10.33604424
   0.96118323 10.66840877  1.46407421
   0.96118323  6.38230294  7.36413343
   2.88354968  4.98483820  4.43598502
   2.88354968  4.31078412  0.57279486
   0.96118323  7.05635702 11.22732359
   0.96118323  9.99435469  5.32726437
   2.88354968  1.37278645  6.47285408
   0.96118323  2.14324729  3.54297695
   2.88354968  9.22389385  8.25714150
   2.88354968  7.82681786  2.35708227
   0.96118323  3.54032328  9.44303618
 


--------------------------------------------------------------------------------------------------------


 k-point   1 :   0.0000 0.0000 0.0000  plane waves:   20719
 k-point   2 :   0.1667 0.0000 0.0000  plane waves:   20701
 k-point   3 :   0.3333 0.0000 0.0000  plane waves:   20762
 k-point   4 :   0.5000 0.0000 0.0000  plane waves:   20788
 k-point   5 :   0.0000 0.5000 0.0000  plane waves:   20736
 k-point   6 :   0.1667 0.5000 0.0000  plane waves:   20780
 k-point   7 :   0.3333 0.5000 0.0000  plane waves:   20790
 k-point   8 :   0.5000 0.5000 0.0000  plane waves:   20792
 k-point   9 :   0.0000 0.0000 0.5000  plane waves:   20762
 k-point  10 :   0.1667 0.0000 0.5000  plane waves:   20750
 k-point  11 :   0.3333 0.0000 0.5000  plane waves:   20790
 k-point  12 :   0.5000 0.0000 0.5000  plane waves:   20800
 k-point  13 :   0.0000 0.5000 0.5000  plane waves:   20752
 k-point  14 :   0.1667 0.5000 0.5000  plane waves:   20732
 k-point  15 :   0.3333 0.5000 0.5000  plane waves:   20772
 k-point  16 :   0.5000 0.5000 0.5000  plane waves:   20824

 maximum and minimum number of plane-waves per node :      2106     2026

 maximum number of plane-waves:     20824
 maximum index in each direction: 
   IXMAX=    8   IYMAX=   24   IZMAX=   25
   IXMIN=   -8   IYMIN=  -24   IZMIN=  -25


 parallel 3D FFT for wavefunctions:
    minimum data exchange during FFTs selected (reduces bandwidth)
 parallel 3D FFT for charge:
    minimum data exchange during FFTs selected (reduces bandwidth)


 total amount of memory used by VASP MPI-rank0    54116. kBytes
=======================================================================

   base      :      30000. kBytes
   nonl-proj :       7704. kBytes
   fftplans  :       2416. kBytes
   grid      :       6309. kBytes
   one-center:         32. kBytes
   wavefun   :       7655. kBytes
 
     INWAV:  cpu time      0.0000: real time      0.0001
 Broyden mixing: mesh for mixing (old mesh)
   NGX = 17   NGY = 49   NGZ = 51
  (NGX  = 72   NGY  =196   NGZ  =200)
  gives a total of  42483 points

 initial charge density was supplied:
 charge density of overlapping atoms calculated
 number of electron     112.0000000 magnetization      12.0000000
 keeping initial charge density in first step


--------------------------------------------------------------------------------------------------------


 Maximum index for augmentation-charges          411 (set IRDMAX)


--------------------------------------------------------------------------------------------------------


 First call to EWALD:  gamma=   0.221
 Maximum number of real-space cells 5x 2x 2
 Maximum number of reciprocal cells 2x 4x 4

    FEWALD:  cpu time      0.0023: real time      0.0023


--------------------------------------- Ionic step        1  -------------------------------------------




--------------------------------------- Iteration      1(   1)  ---------------------------------------


    POTLOK:  cpu time      0.0761: real time      0.0784
    SETDIJ:  cpu time      0.4011: real time      0.4025
     EDDAV:  cpu time      2.1607: real time      2.1714
 BZINTS: Fermi energy:   16.789594;  112.000000 electrons
         Band energy: 0.705602E+03;  BLOECHL correction:   -0.161418
       DOS:  cpu time      0.0185: real time      0.0186
    --------------------------------------------
      LOOP:  cpu time      2.6564: real time      2.6709

 eigenvalue-minimisations  :  5376
 total energy-change (2. order) : 0.7512658E+03  (-0.4920295E+04)
 number of electron     112.0000000 magnetization      12.0000000
 augmentation part      112.0000000 magnetization      12.0000000

 Free energy of the ion-electron system (eV)
  ---------------------------------------------------
  alpha Z        PSCENC =        44.85403091
  Ewald energy   TEWEN  =     -4141.68316538
  -Hartree energ DENC   =      -625.64737553
  -exchange      EXHF   =         0.00000000
  -V(xc)+E(xc)   XCENC  =      -211.55314899
  PAW double counting   =      3908.25895517    -3440.63853967
  entropy T*S    EENTRO =         0.00000000
  eigenvalues    EBANDS =       705.60196575
  atomic energy  EATOM  =      4512.07312557
  Solvation  Ediel_sol  =         0.00000000
  ---------------------------------------------------
  free energy    TOTEN  =       751.26584784 eV

  energy without entropy =      751.26584784  energy(sigma->0) =      751.26584784


--------------------------------------------------------------------------------------------------------




--------------------------------------- Iteration      1(   2)  ---------------------------------------


     EDDAV:  cpu time      2.4928: real time      2.5036
 BZINTS: Fermi energy:    6.309448;  112.000000 electrons
         Band energy:-0.539396E+02;  BLOECHL correction:    0.000000
       DOS:  cpu time      0.0072: real time      0.0072
    --------------------------------------------
      LOOP:  cpu time      2.5000: real time      2.5108

 eigenvalue-minimisations  :  6708
 total energy-change (2. order) :-0.7595416E+03  (-0.7219579E+03)
 number of electron     112.0000000 magnetization      12.0000000
 augmentation part      112.0000000 magnetization      12.0000000

 Free energy of the ion-electron system (eV)
  ---------------------------------------------------
  alpha Z        PSCENC =        44.85403091
  Ewald energy   TEWEN  =     -4141.68316538
  -Hartree energ DENC   =      -625.64737553
  -exchange      EXHF   =         0.00000000
  -V(xc)+E(xc)   XCENC  =      -211.55314899
  PAW double counting   =      3908.25895517    -3440.63853967
  entropy T*S    EENTRO =         0.00000000
  eigenvalues    EBANDS =       -53.93962367
  atomic energy  EATOM  =      4512.07312557
  Solvation  Ediel_sol  =         0.00000000
  ---------------------------------------------------
  free energy    TOTEN  =        -8.27574158 eV

  energy without entropy =       -8.27574158  energy(sigma->0) =       -8.27574158


--------------------------------------------------------------------------------------------------------




--------------------------------------- Iteration      1(   3)  ---------------------------------------


     EDDAV:  cpu time      2.5941: real time      2.6163
 BZINTS: Fermi energy:    4.443543;  112.000000 electrons
         Band energy:-0.140248E+03;  BLOECHL correction:    0.000000
       DOS:  cpu time      0.0063: real time      0.0064
    --------------------------------------------
      LOOP:  cpu time      2.6004: real time      2.6226

 eigenvalue-minimisations  :  6660
 total energy-change (2. order) :-0.8630799E+02  (-0.8452435E+02)
 number of electron     112.0000000 magnetization      12.0000000
 augmentation part      112.0000000 magnetization      12.0000000

 Free energy of the ion-electron system (eV)
  ---------------------------------------------------
  alpha Z        PSCENC =        44.85403091
  Ewald energy   TEWEN  =     -4141.68316538
  -Hartree energ DENC   =      -625.64737553
  -exchange      EXHF   =         0.00000000
  -V(xc)+E(xc)   XCENC  =      -211.55314899
  PAW double counting   =      3908.25895517    -3440.63853967
  entropy T*S    EENTRO =         0.00000000
  eigenvalues    EBANDS =      -140.24761394
  atomic energy  EATOM  =      4512.07312557
  Solvation  Ediel_sol  =         0.00000000
  ---------------------------------------------------
  free energy    TOTEN  =       -94.58373186 eV

  energy without entropy =      -94.58373186  energy(sigma->0) =      -94.58373186


--------------------------------------------------------------------------------------------------------




--------------------------------------- Iteration      1(   4)  ---------------------------------------


     EDDAV:  cpu time      2.6319: real time      2.6395
 BZINTS: Fermi energy:    4.362207;  112.000000 electrons
         Band energy:-0.142462E+03;  BLOECHL correction:    0.000000
       DOS:  cpu time      0.0064: real time      0.0064
    --------------------------------------------
      LOOP:  cpu time      2.6383: real time      2.6459

 eigenvalue-minimisations  :  6504
 total energy-change (2. order) :-0.2214783E+01  (-0.2198259E+01)
 number of electron     112.0000000 magnetization      12.0000000
 augmentation part      112.0000000 magnetization      12.0000000

 Free energy of the ion-electron system (eV)
  ---------------------------------------------------
  alpha Z        PSCENC =        44.85403091
  Ewald energy   TEWEN  =     -4141.68316538
  -Hartree energ DENC   =      -625.64737553
  -exchange      EXHF   =         0.00000000
  -V(xc)+E(xc)   XCENC  =      -211.55314899
  PAW double counting   =      3908.25895517    -3440.63853967
  entropy T*S    EENTRO =         0.00000000
  eigenvalues    EBANDS =      -142.46239647
  atomic energy  EATOM  =      4512.07312557
  Solvation  Ediel_sol  =         0.00000000
  ---------------------------------------------------
  free energy    TOTEN  =       -96.79851438 eV

  energy without entropy =      -96.79851438  energy(sigma->0) =      -96.79851438


--------------------------------------------------------------------------------------------------------




--------------------------------------- Iteration      1(   5)  ---------------------------------------


     EDDAV:  cpu time      2.6027: real time      2.6247
 BZINTS: Fermi energy:    4.401780;  112.000000 electrons
         Band energy:-0.142510E+03;  BLOECHL correction:    0.000000
       DOS:  cpu time      0.0067: real time      0.0067
    CHARGE:  cpu time      0.1379: real time      0.1382
    MIXING:  cpu time      0.0059: real time      0.0065
    --------------------------------------------
      LOOP:  cpu time      2.7531: real time      2.7761

 eigenvalue-minimisations  :  6408
 total energy-change (2. order) :-0.4787862E-01  (-0.4786102E-01)
 number of electron     111.9999996 magnetization       7.7588380
 augmentation part      -16.5476605 magnetization       7.7633118

 Broyden mixing:
  rms(total) = 0.21160E+01    rms(broyden)= 0.21160E+01
  rms(prec ) = 0.22900E+01
  weight for this iteration     100.00

 Free energy of the ion-electron system (eV)
  ---------------------------------------------------
  alpha Z        PSCENC =        44.85403091
  Ewald energy   TEWEN  =     -4141.68316538
  -Hartree energ DENC   =      -625.64737553
  -exchange      EXHF   =         0.00000000
  -V(xc)+E(xc)   XCENC  =      -211.55314899
  PAW double counting   =      3908.25895517    -3440.63853967
  entropy T*S    EENTRO =         0.00000000
  eigenvalues    EBANDS =      -142.51027509
  atomic energy  EATOM  =      4512.07312557
  Solvation  Ediel_sol  =         0.00000000
  ---------------------------------------------------
  free energy    TOTEN  =       -96.84639300 eV

  energy without entropy =      -96.84639300  energy(sigma->0) =      -96.84639300


--------------------------------------------------------------------------------------------------------




--------------------------------------- Iteration      1(   6)  ---------------------------------------


    POTLOK:  cpu time      0.0650: real time      0.0799
    SETDIJ:  cpu time      0.3955: real time      0.3966
    EDDIAG:  cpu time      0.5131: real time      0.5149
  RMM-DIIS:  cpu time      1.2009: real time      1.2043
    ORTHCH:  cpu time      0.0840: real time      0.0842
 BZINTS: Fermi energy:    4.546169;  112.000000 electrons
         Band energy:-0.107513E+03;  BLOECHL correction:    0.000000
       DOS:  cpu time      0.0064: real time      0.0064
    CHARGE:  cpu time      0.1181: real time      0.1184
    MIXING:  cpu time      0.0022: real time      0.0022
    --------------------------------------------
      LOOP:  cpu time      2.3853: real time      2.4068

 eigenvalue-minimisations  :  5378
 total energy-change (2. order) : 0.3431206E+01  (-0.7452155E+00)
 number of electron     111.9999996 magnetization       3.3113165
 augmentation part      -16.4525511 magnetization       3.4485501

 Broyden mixing:
  rms(total) = 0.13749E+01    rms(broyden)= 0.13749E+01
  rms(prec ) = 0.14002E+01
  weight for this iteration     100.00

 eigenvalues of (default mixing * dielectric matrix)
  average eigenvalue GAMMA=   1.3858
  1.3858

 Free energy of the ion-electron system (eV)
  ---------------------------------------------------
  alpha Z        PSCENC =        44.85403091
  Ewald energy   TEWEN  =     -4141.68316538
  -Hartree energ DENC   =      -658.99299516
  -exchange      EXHF   =         0.00000000
  -V(xc)+E(xc)   XCENC  =      -208.52979096
  PAW double counting   =      5291.54430574    -4825.16818037
  entropy T*S    EENTRO =         0.00000000
  eigenvalues    EBANDS =      -107.51251708
  atomic energy  EATOM  =      4512.07312557
  Solvation  Ediel_sol  =         0.00000000
  ---------------------------------------------------
  free energy    TOTEN  =       -93.41518672 eV

  energy without entropy =      -93.41518672  energy(sigma->0) =      -93.41518672


--------------------------------------------------------------------------------------------------------




--------------------------------------- Iteration      1(   7)  ---------------------------------------


    POTLOK:  cpu time      0.0635: real time      0.0783
    SETDIJ:  cpu time      0.3951: real time      0.3961
    EDDIAG:  cpu time      0.5113: real time      0.5126
  RMM-DIIS:  cpu time      1.1859: real time      1.1890
    ORTHCH:  cpu time      0.0858: real time      0.0860
 BZINTS: Fermi energy:    4.577066;  112.000000 electrons
         Band energy:-0.966923E+02;  BLOECHL correction:    0.000000
       DOS:  cpu time      0.0067: real time      0.0067
    CHARGE:  cpu time      0.1172: real time      0.1175
    MIXING:  cpu time      0.0008: real time      0.0008
    --------------------------------------------
      LOOP:  cpu time      2.3663: real time      2.3870

 eigenvalue-minimisations  :  5491
 total energy-change (2. order) :-0.9869112E+00  (-0.2591233E+00)
 number of electron     111.9999996 magnetization       0.8356375
 augmentation part      -16.4428553 magnetization       0.8882022

 Broyden mixing:
  rms(total) = 0.59443E+00    rms(broyden)= 0.59443E+00
  rms(prec ) = 0.60521E+00
  weight for this iteration     100.00

 eigenvalues of (default mixing * dielectric matrix)
  average eigenvalue GAMMA=   1.6100
  0.8760  2.3441

 Free energy of the ion-electron system (eV)
  ---------------------------------------------------
  alpha Z        PSCENC =        44.85403091
  Ewald energy   TEWEN  =     -4141.68316538
  -Hartree energ DENC   =      -671.09482570
  -exchange      EXHF   =         0.00000000
  -V(xc)+E(xc)   XCENC  =      -207.70101041
  PAW double counting   =      7087.44774286    -6621.60570325
  entropy T*S    EENTRO =         0.00000000
  eigenvalues    EBANDS =       -96.69229255
  atomic energy  EATOM  =      4512.07312557
  Solvation  Ediel_sol  =         0.00000000
  ---------------------------------------------------
  free energy    TOTEN  =       -94.40209795 eV

  energy without entropy =      -94.40209795  energy(sigma->0) =      -94.40209795


--------------------------------------------------------------------------------------------------------




--------------------------------------- Iteration      1(   8)  ---------------------------------------


    POTLOK:  cpu time      0.0640: real time      0.0782
    SETDIJ:  cpu time      0.3939: real time      0.3950
    EDDIAG:  cpu time      0.5518: real time      0.5532
  RMM-DIIS:  cpu time      1.3323: real time      1.3359
    ORTHCH:  cpu time      0.0864: real time      0.0866
 BZINTS: Fermi energy:    4.528226;  112.000000 electrons
         Band energy:-0.993710E+02;  BLOECHL correction:    0.000000
       DOS:  cpu time      0.0063: real time      0.0065
    CHARGE:  cpu time      0.1380: real time      0.1383
    MIXING:  cpu time      0.0010: real time      0.0010
    --------------------------------------------
      LOOP:  cpu time      2.5737: real time      2.5948

 eigenvalue-minimisations  :  5757
 total energy-change (2. order) :-0.1895498E+00  (-0.3477096E-01)
 number of electron     111.9999996 magnetization       0.4618676
 augmentation part      -16.4617473 magnetization       0.5023159

 Broyden mixing:
  rms(total) = 0.19593E+00    rms(broyden)= 0.19593E+00
  rms(prec ) = 0.19845E+00
  weight for this iteration     100.00

 eigenvalues of (default mixing * dielectric matrix)
  average eigenvalue GAMMA=   1.4046
  2.5224  1.0448  0.6467

 Free energy of the ion-electron system (eV)
  ---------------------------------------------------
  alpha Z        PSCENC =        44.85403091
  Ewald energy   TEWEN  =     -4141.68316538
  -Hartree energ DENC   =      -668.47853904
  -exchange      EXHF   =         0.00000000
  -V(xc)+E(xc)   XCENC  =      -207.84490604
  PAW double counting   =      8177.35900427    -7711.50020467
  entropy T*S    EENTRO =         0.00000000
  eigenvalues    EBANDS =       -99.37099338
  atomic energy  EATOM  =      4512.07312557
  Solvation  Ediel_sol  =         0.00000000
  ---------------------------------------------------
  free energy    TOTEN  =       -94.59164775 eV

  energy without entropy =      -94.59164775  energy(sigma->0) =      -94.59164775


--------------------------------------------------------------------------------------------------------




--------------------------------------- Iteration      1(   9)  ---------------------------------------


    POTLOK:  cpu time      0.0669: real time      0.0777
    SETDIJ:  cpu time      0.3954: real time      0.3964
    EDDIAG:  cpu time      0.5692: real time      0.5708
  RMM-DIIS:  cpu time      1.4573: real time      1.4612
    ORTHCH:  cpu time      0.0874: real time      0.0876
 BZINTS: Fermi energy:    4.512609;  112.000000 electrons
         Band energy:-0.100562E+03;  BLOECHL correction:    0.000000
       DOS:  cpu time      0.0068: real time      0.0068
    CHARGE:  cpu time      0.1214: real time      0.1219
    MIXING:  cpu time      0.0013: real time      0.0013
    --------------------------------------------
      LOOP:  cpu time      2.7057: real time      2.7237

 eigenvalue-minimisations  :  6080
 total energy-change (2. order) :-0.1684737E-01  (-0.7614543E-02)
 number of electron     111.9999996 magnetization       0.3803052
 augmentation part      -16.4724423 magnetization       0.3984626

 Broyden mixing:
  rms(total) = 0.59451E-01    rms(broyden)= 0.59451E-01
  rms(prec ) = 0.61326E-01
  weight for this iteration     100.00

 eigenvalues of (default mixing * dielectric matrix)
  average eigenvalue GAMMA=   1.2895
  2.3235  1.3383  0.8633  0.6328

 Free energy of the ion-electron system (eV)
  ---------------------------------------------------
  alpha Z        PSCENC =        44.85403091
  Ewald energy   TEWEN  =     -4141.68316538
  -Hartree energ DENC   =      -667.24361184
  -exchange      EXHF   =         0.00000000
  -V(xc)+E(xc)   XCENC  =      -207.94311837
  PAW double counting   =      8279.37892579    -7813.48302621
  entropy T*S    EENTRO =         0.00000000
  eigenvalues    EBANDS =      -100.56165559
  atomic energy  EATOM  =      4512.07312557
  Solvation  Ediel_sol  =         0.00000000
  ---------------------------------------------------
  free energy    TOTEN  =       -94.60849512 eV

  energy without entropy =      -94.60849512  energy(sigma->0) =      -94.60849512


--------------------------------------------------------------------------------------------------------




--------------------------------------- Iteration      1(  10)  ---------------------------------------


    POTLOK:  cpu time      0.0644: real time      0.0770
    SETDIJ:  cpu time      0.3950: real time      0.3959
    EDDIAG:  cpu time      0.5802: real time      0.5819
  RMM-DIIS:  cpu time      1.5212: real time      1.5252
    ORTHCH:  cpu time      0.0888: real time      0.0890
 BZINTS: Fermi energy:    4.511968;  112.000000 electrons
         Band energy:-0.100762E+03;  BLOECHL correction:    0.000000
       DOS:  cpu time      0.0063: real time      0.0063
    CHARGE:  cpu time      0.1217: real time      0.1220
    MIXING:  cpu time      0.0016: real time      0.0016
    --------------------------------------------
      LOOP:  cpu time      2.7792: real time      2.7990

 eigenvalue-minimisations  :  6479
 total energy-change (2. order) :-0.4621429E-02  (-0.1970459E-02)
 number of electron     111.9999996 magnetization       0.1775577
 augmentation part      -16.4768411 magnetization       0.1874661

 Broyden mixing:
  rms(total) = 0.38560E-01    rms(broyden)= 0.38560E-01
  rms(prec ) = 0.39799E-01
  weight for this iteration     100.00

 eigenvalues of (default mixing * dielectric matrix)
  average eigenvalue GAMMA=   1.3549
  2.1273  2.1273  1.0654  0.8298  0.6250

 Free energy of the ion-electron system (eV)
  ---------------------------------------------------
  alpha Z        PSCENC =        44.85403091
  Ewald energy   TEWEN  =     -4141.68316538
  -Hartree energ DENC   =      -667.03614740
  -exchange      EXHF   =         0.00000000
  -V(xc)+E(xc)   XCENC  =      -207.96446026
  PAW double counting   =      8233.52934055    -7767.62374986
  entropy T*S    EENTRO =         0.00000000
  eigenvalues    EBANDS =      -100.76209068
  atomic energy  EATOM  =      4512.07312557
  Solvation  Ediel_sol  =         0.00000000
  ---------------------------------------------------
  free energy    TOTEN  =       -94.61311655 eV

  energy without entropy =      -94.61311655  energy(sigma->0) =      -94.61311655


--------------------------------------------------------------------------------------------------------




--------------------------------------- Iteration      1(  11)  ---------------------------------------


    POTLOK:  cpu time      0.0625: real time      0.0776
    SETDIJ:  cpu time      0.3952: real time      0.3963
    EDDIAG:  cpu time      0.5103: real time      0.5116
  RMM-DIIS:  cpu time      1.3533: real time      1.3571
    ORTHCH:  cpu time      0.0828: real time      0.0830
 BZINTS: Fermi energy:    4.458182;  112.000000 electrons
         Band energy:-0.100837E+03;  BLOECHL correction:    0.000000
       DOS:  cpu time      0.0061: real time      0.0061
    CHARGE:  cpu time      0.1173: real time      0.1176
    MIXING:  cpu time      0.0009: real time      0.0009
    --------------------------------------------
      LOOP:  cpu time      2.5284: real time      2.5502

 eigenvalue-minimisations  :  6025
 total energy-change (2. order) :-0.4341648E-02  (-0.7649165E-03)
 number of electron     111.9999996 magnetization       0.0630852
 augmentation part      -16.4795308 magnetization       0.0681493

 Broyden mixing:
  rms(total) = 0.18947E-01    rms(broyden)= 0.18947E-01
  rms(prec ) = 0.19487E-01
  weight for this iteration     100.00

 eigenvalues of (default mixing * dielectric matrix)
  average eigenvalue GAMMA=   1.3480
  2.3642  2.3642  1.2020  0.8949  0.6655  0.5968

 Free energy of the ion-electron system (eV)
  ---------------------------------------------------
  alpha Z        PSCENC =        44.85403091
  Ewald energy   TEWEN  =     -4141.68316538
  -Hartree energ DENC   =      -666.95601988
  -exchange      EXHF   =         0.00000000
  -V(xc)+E(xc)   XCENC  =      -207.97901123
  PAW double counting   =      8173.75090847    -7707.84040077
  entropy T*S    EENTRO =         0.00000000
  eigenvalues    EBANDS =      -100.83692589
  atomic energy  EATOM  =      4512.07312557
  Solvation  Ediel_sol  =         0.00000000
  ---------------------------------------------------
  free energy    TOTEN  =       -94.61745820 eV

  energy without entropy =      -94.61745820  energy(sigma->0) =      -94.61745820


--------------------------------------------------------------------------------------------------------




--------------------------------------- Iteration      1(  12)  ---------------------------------------


    POTLOK:  cpu time      0.0639: real time      0.0792
    SETDIJ:  cpu time      0.3958: real time      0.3968
    EDDIAG:  cpu time      0.5059: real time      0.5073
  RMM-DIIS:  cpu time      1.4056: real time      1.4093
    ORTHCH:  cpu time      0.0853: real time      0.0855
 BZINTS: Fermi energy:    4.461219;  112.000000 electrons
         Band energy:-0.100777E+03;  BLOECHL correction:    0.000000
       DOS:  cpu time      0.0074: real time      0.0074
    CHARGE:  cpu time      0.1168: real time      0.1171
    MIXING:  cpu time      0.0010: real time      0.0010
    --------------------------------------------
      LOOP:  cpu time      2.5818: real time      2.6037

 eigenvalue-minimisations  :  6430
 total energy-change (2. order) :-0.8569908E-03  (-0.2335068E-03)
 number of electron     111.9999996 magnetization       0.0273145
 augmentation part      -16.4810472 magnetization       0.0295679

 Broyden mixing:
  rms(total) = 0.58898E-02    rms(broyden)= 0.58898E-02
  rms(prec ) = 0.66908E-02
  weight for this iteration     100.00

 eigenvalues of (default mixing * dielectric matrix)
  average eigenvalue GAMMA=   1.3586
  2.5769  2.5769  1.3329  0.9430  0.8296  0.6613  0.5894

 Free energy of the ion-electron system (eV)
  ---------------------------------------------------
  alpha Z        PSCENC =        44.85403091
  Ewald energy   TEWEN  =     -4141.68316538
  -Hartree energ DENC   =      -667.02032539
  -exchange      EXHF   =         0.00000000
  -V(xc)+E(xc)   XCENC  =      -207.97316162
  PAW double counting   =      8186.15475616    -7720.24610398
  entropy T*S    EENTRO =         0.00000000
  eigenvalues    EBANDS =      -100.77747147
  atomic energy  EATOM  =      4512.07312557
  Solvation  Ediel_sol  =         0.00000000
  ---------------------------------------------------
  free energy    TOTEN  =       -94.61831519 eV

  energy without entropy =      -94.61831519  energy(sigma->0) =      -94.61831519


--------------------------------------------------------------------------------------------------------




--------------------------------------- Iteration      1(  13)  ---------------------------------------


    POTLOK:  cpu time      0.0610: real time      0.0746
    SETDIJ:  cpu time      0.3959: real time      0.3969
    EDDIAG:  cpu time      0.5081: real time      0.5094
  RMM-DIIS:  cpu time      1.5409: real time      1.5451
    ORTHCH:  cpu time      0.0900: real time      0.0902
 BZINTS: Fermi energy:    4.462359;  112.000000 electrons
         Band energy:-0.100674E+03;  BLOECHL correction:    0.000000
       DOS:  cpu time      0.0068: real time      0.0068
    CHARGE:  cpu time      0.1563: real time      0.1567
    MIXING:  cpu time      0.0012: real time      0.0012
    --------------------------------------------
      LOOP:  cpu time      2.7602: real time      2.7809

 eigenvalue-minimisations  :  6637
 total energy-change (2. order) :-0.9789889E-04  (-0.6134228E-04)
 number of electron     111.9999996 magnetization       0.0062098
 augmentation part      -16.4811863 magnetization       0.0071795

 Broyden mixing:
  rms(total) = 0.52741E-02    rms(broyden)= 0.52741E-02
  rms(prec ) = 0.54818E-02
  weight for this iteration     100.00

 eigenvalues of (default mixing * dielectric matrix)
  average eigenvalue GAMMA=   1.4038
  2.6779  2.6779  1.7082  1.1954  0.8329  0.8329  0.6117  0.6933

 Free energy of the ion-electron system (eV)
  ---------------------------------------------------
  alpha Z        PSCENC =        44.85403091
  Ewald energy   TEWEN  =     -4141.68316538
  -Hartree energ DENC   =      -667.12802676
  -exchange      EXHF   =         0.00000000
  -V(xc)+E(xc)   XCENC  =      -207.96709539
  PAW double counting   =      8188.19752966    -7722.29118862
  entropy T*S    EENTRO =         0.00000000
  eigenvalues    EBANDS =      -100.67362308
  atomic energy  EATOM  =      4512.07312557
  Solvation  Ediel_sol  =         0.00000000
  ---------------------------------------------------
  free energy    TOTEN  =       -94.61841309 eV

  energy without entropy =      -94.61841309  energy(sigma->0) =      -94.61841309


--------------------------------------------------------------------------------------------------------




--------------------------------------- Iteration      1(  14)  ---------------------------------------


    POTLOK:  cpu time      0.0670: real time      0.0783
    SETDIJ:  cpu time      0.3965: real time      0.3976
    EDDIAG:  cpu time      0.5564: real time      0.5578
  RMM-DIIS:  cpu time      1.3393: real time      1.3430
    ORTHCH:  cpu time      0.0861: real time      0.0864
 BZINTS: Fermi energy:    4.463745;  112.000000 electrons
         Band energy:-0.100575E+03;  BLOECHL correction:    0.000000
       DOS:  cpu time      0.0059: real time      0.0059
    CHARGE:  cpu time      0.1336: real time      0.1339
    MIXING:  cpu time      0.0017: real time      0.0017
    --------------------------------------------
      LOOP:  cpu time      2.5866: real time      2.6046

 eigenvalue-minimisations  :  6037
 total energy-change (2. order) :-0.5829291E-04  (-0.2544759E-04)
 number of electron     111.9999996 magnetization       0.0013293
 augmentation part      -16.4807364 magnetization       0.0017503

 Broyden mixing:
  rms(total) = 0.13211E-02    rms(broyden)= 0.13211E-02
  rms(prec ) = 0.14472E-02
  weight for this iteration     100.00

 eigenvalues of (default mixing * dielectric matrix)
  average eigenvalue GAMMA=   1.3845
  2.7621  2.7621  1.9979  1.2473  0.8456  0.8320  0.7374  0.6176  0.6586

 Free energy of the ion-electron system (eV)
  ---------------------------------------------------
  alpha Z        PSCENC =        44.85403091
  Ewald energy   TEWEN  =     -4141.68316538
  -Hartree energ DENC   =      -667.22881619
  -exchange      EXHF   =         0.00000000
  -V(xc)+E(xc)   XCENC  =      -207.96482565
  PAW double counting   =      8175.02310897    -7709.11733439
  entropy T*S    EENTRO =         0.00000000
  eigenvalues    EBANDS =      -100.57459521
  atomic energy  EATOM  =      4512.07312557
  Solvation  Ediel_sol  =         0.00000000
  ---------------------------------------------------
  free energy    TOTEN  =       -94.61847138 eV

  energy without entropy =      -94.61847138  energy(sigma->0) =      -94.61847138


--------------------------------------------------------------------------------------------------------




--------------------------------------- Iteration      1(  15)  ---------------------------------------


    POTLOK:  cpu time      0.0741: real time      0.0880
    SETDIJ:  cpu time      0.4077: real time      0.4087
    EDDIAG:  cpu time      0.5751: real time      0.5766
  RMM-DIIS:  cpu time      1.3234: real time      1.3269
    ORTHCH:  cpu time      0.0882: real time      0.0884
 BZINTS: Fermi energy:    4.463374;  112.000000 electrons
         Band energy:-0.100590E+03;  BLOECHL correction:    0.000000
       DOS:  cpu time      0.0062: real time      0.0062
    --------------------------------------------
      LOOP:  cpu time      2.4747: real time      2.4950

 eigenvalue-minimisations  :  5740
 total energy-change (2. order) :-0.6532648E-05  (-0.5732292E-05)
 number of electron     111.9999996 magnetization       0.0013293
 augmentation part      -16.4807364 magnetization       0.0017503

 Free energy of the ion-electron system (eV)
  ---------------------------------------------------
  alpha Z        PSCENC =        44.85403091
  Ewald energy   TEWEN  =     -4141.68316538
  -Hartree energ DENC   =      -667.21335182
  -exchange      EXHF   =         0.00000000
  -V(xc)+E(xc)   XCENC  =      -207.96543856
  PAW double counting   =      8176.33726210    -7710.43102591
  entropy T*S    EENTRO =         0.00000000
  eigenvalues    EBANDS =      -100.58991482
  atomic energy  EATOM  =      4512.07312557
  Solvation  Ediel_sol  =         0.00000000
  ---------------------------------------------------
  free energy    TOTEN  =       -94.61847791 eV

  energy without entropy =      -94.61847791  energy(sigma->0) =      -94.61847791


--------------------------------------------------------------------------------------------------------




 average (electrostatic) potential at core
  the test charge radii are     1.1712  0.9698
  (the norm of the test charge is              1.0000)
       1 -88.0394       2 -88.0394       3 -88.0394       4 -88.0394       5 -88.0958
       6 -88.0958       7 -88.0958       8 -88.0958       9 -86.4280      10 -86.4280
      11 -86.4280      12 -86.4280      13 -86.4581      14 -86.4581      15 -86.4581
      16 -86.4581      17 -86.5000      18 -86.5000      19 -86.5000      20 -86.5000
 
 
 
 E-fermi :   4.4634     XC(G=0):  -9.2976     alpha+bet :-10.3158

 Fermi energy:         4.4633743591

 spin component 1

 k-point     1 :       0.0000    0.0000    0.0000
  band No.  band energies     occupation 
      1      -9.6377      1.00000
      2      -9.4631      1.00000
      3      -8.9712      1.00000
      4      -8.8709      1.00000
      5      -8.7343      1.00000
      6      -8.5898      1.00000
      7      -7.8945      1.00000
      8      -7.6249      1.00000
      9      -7.6034      1.00000
     10      -7.4034      1.00000
     11      -7.3647      1.00000
     12      -7.2863      1.00000
     13      -4.3696      1.00000
     14      -4.1610      1.00000
     15      -3.9594      1.00000
     16      -3.5059      1.00000
     17      -3.3170      1.00000
     18      -3.2544      1.00000
     19      -2.1618      1.00000
     20      -1.7111      1.00000
     21      -0.0340      1.00000
     22       0.0482      1.00000
     23       0.3634      1.00000
     24       0.5368      1.00000
     25       0.8693      1.00000
     26       1.1006      1.00000
     27       1.1017      1.00000
     28       1.1143      1.00000
     29       1.3327      1.00000
     30       1.5347      1.00000
     31       1.6708      1.00000
     32       1.7913      1.00000
     33       1.7961      1.00000
     34       1.9041      1.00000
     35       2.0432      1.00000
     36       2.1741      1.00000
     37       2.2485      1.00000
     38       2.3503      1.00000
     39       2.5555      1.00000
     40       2.6447      1.00000
     41       2.7911      1.00000
     42       3.1203      1.00000
     43       3.2161      1.00000
     44       3.2225      1.00000
     45       3.3565      1.00000
     46       3.4119      1.00000
     47       3.4868      1.00000
     48       3.4888      1.00000
     49       3.5511      1.00000
     50       3.5721      1.00000
     51       4.0170      1.00000
     52       4.0512      1.00000
     53       4.2742      1.00000
     54       4.2971      1.00000
     55       4.3629      1.00000
     56       4.4487      1.00000
     57       5.9350      0.00000
     58       6.0082      0.00000
     59       6.0202      0.00000
     60       6.1602      0.00000
     61       6.5162      0.00000
     62       6.5597      0.00000
     63       6.8990      0.00000
     64       7.1539      0.00000
     65       7.1720      0.00000
     66       7.2777      0.00000
     67       7.3088      0.00000
     68       7.4902      0.00000
     69       7.7068      0.00000
     70       7.7069      0.00000
     71       7.8010      0.00000
     72       7.9296      0.00000
     73       7.9613      0.00000
     74       8.0675      0.00000
     75       8.3095      0.00000
     76       8.5823      0.00000
     77       8.7508      0.00000
     78       9.0444      0.00000
     79       9.3551      0.00000
     80       9.4853      0.00000
     81       9.5883      0.00000
     82       9.6061      0.00000
     83      10.8396      0.00000
     84      11.0698      0.00000

 k-point     2 :       0.1667    0.0000    0.0000
  band No.  band energies     occupation 
      1      -9.4304      1.00000
      2      -9.2630      1.00000
      3      -8.7825      1.00000
      4      -8.6874      1.00000
      5      -8.5387      1.00000
      6      -8.4115      1.00000
      7      -7.7471      1.00000
      8      -7.5344      1.00000
      9      -7.5224      1.00000
     10      -7.3434      1.00000
     11      -7.3030      1.00000
     12      -7.2687      1.00000
     13      -4.4850      1.00000
     14      -4.3135      1.00000
     15      -3.9224      1.00000
     16      -3.5867      1.00000
     17      -3.4061      1.00000
     18      -3.3467      1.00000
     19      -2.3635      1.00000
     20      -2.1133      1.00000
     21      -0.0534      1.00000
     22       0.0738      1.00000
     23       0.2395      1.00000
     24       0.3150      1.00000
     25       0.3159      1.00000
     26       0.3321      1.00000
     27       0.6455      1.00000
     28       0.6587      1.00000
     29       0.7656      1.00000
     30       0.9564      1.00000
     31       1.2547      1.00000
     32       1.3717      1.00000
     33       1.5617      1.00000
     34       1.6933      1.00000
     35       1.8692      1.00000
     36       2.0988      1.00000
     37       2.1318      1.00000
     38       2.1591      1.00000
     39       2.4382      1.00000
     40       2.4614      1.00000
     41       2.4843      1.00000
     42       2.7152      1.00000
     43       2.9443      1.00000
     44       3.0264      1.00000
     45       3.1390      1.00000
     46       3.4796      1.00000
     47       3.5679      1.00000
     48       3.5947      1.00000
     49       3.6727      1.00000
     50       3.8093      1.00000
     51       3.8872      1.00000
     52       3.9141      1.00000
     53       4.1644      1.00000
     54       4.2356      1.00000
     55       4.2791      1.00000
     56       4.2851      1.00000
     57       6.2688      0.00000
     58       6.3697      0.00000
     59       6.5376      0.00000
     60       6.8290      0.00000
     61       6.9925      0.00000
     62       7.0068      0.00000
     63       7.1011      0.00000
     64       7.2542      0.00000
     65       7.3848      0.00000
     66       7.3977      0.00000
     67       7.4244      0.00000
     68       7.4910      0.00000
     69       7.6631      0.00000
     70       8.0102      0.00000
     71       8.0107      0.00000
     72       8.1641      0.00000
     73       8.3742      0.00000
     74       8.4903      0.00000
     75       8.6793      0.00000
     76       8.6960      0.00000
     77       8.7786      0.00000
     78       9.0082      0.00000
     79       9.4656      0.00000
     80       9.5508      0.00000
     81       9.9559      0.00000
     82      10.2551      0.00000
     83      10.7960      0.00000
     84      10.8421      0.00000

 k-point     3 :       0.3333    0.0000    0.0000
  band No.  band energies     occupation 
      1      -8.8472      1.00000
      2      -8.7053      1.00000
      3      -8.2803      1.00000
      4      -8.2029      1.00000
      5      -8.0181      1.00000
      6      -7.9593      1.00000
      7      -7.4715      1.00000
      8      -7.4709      1.00000
      9      -7.4547      1.00000
     10      -7.3833      1.00000
     11      -7.2861      1.00000
     12      -7.2189      1.00000
     13      -4.6373      1.00000
     14      -4.6010      1.00000
     15      -3.9829      1.00000
     16      -3.9794      1.00000
     17      -3.8314      1.00000
     18      -3.6573      1.00000
     19      -3.1721      1.00000
     20      -3.1375      1.00000
     21      -0.5872      1.00000
     22      -0.5330      1.00000
     23      -0.4319      1.00000
     24      -0.4268      1.00000
     25       0.2456      1.00000
     26       0.2928      1.00000
     27       0.3344      1.00000
     28       0.5162      1.00000
     29       0.5264      1.00000
     30       0.8952      1.00000
     31       0.9984      1.00000
     32       1.0461      1.00000
     33       1.1795      1.00000
     34       1.1982      1.00000
     35       1.5982      1.00000
     36       1.6821      1.00000
     37       1.7165      1.00000
     38       1.8182      1.00000
     39       1.9680      1.00000
     40       2.1797      1.00000
     41       2.2912      1.00000
     42       2.4574      1.00000
     43       2.6452      1.00000
     44       2.7582      1.00000
     45       3.0359      1.00000
     46       3.0741      1.00000
     47       3.1593      1.00000
     48       3.1774      1.00000
     49       3.4362      1.00000
     50       3.4455      1.00000
     51       3.5043      1.00000
     52       3.5576      1.00000
     53       3.9810      1.00000
     54       4.0120      1.00000
     55       4.0203      1.00000
     56       4.1682      1.00000
     57       6.2441      0.00000
     58       6.6611      0.00000
     59       6.6913      0.00000
     60       6.8555      0.00000
     61       7.1326      0.00000
     62       7.2604      0.00000
     63       7.3017      0.00000
     64       7.3996      0.00000
     65       7.5931      0.00000
     66       7.6308      0.00000
     67       7.7792      0.00000
     68       7.9706      0.00000
     69       8.0520      0.00000
     70       8.1354      0.00000
     71       8.3671      0.00000
     72       8.4406      0.00000
     73       8.4701      0.00000
     74       8.5351      0.00000
     75       8.9593      0.00000
     76       9.1294      0.00000
     77       9.3360      0.00000
     78       9.5088      0.00000
     79       9.5241      0.00000
     80       9.7345      0.00000
     81      10.0469      0.00000
     82      10.3209      0.00000
     83      10.3256      0.00000
     84      10.7571      0.00000

 k-point     4 :       0.5000    0.0000    0.0000
  band No.  band energies     occupation 
      1      -8.0495      1.00000
      2      -8.0495      1.00000
      3      -7.9694      1.00000
      4      -7.9694      1.00000
      5      -7.7117      1.00000
      6      -7.7117      1.00000
      7      -7.7040      1.00000
      8      -7.7040      1.00000
      9      -7.4132      1.00000
     10      -7.4132      1.00000
     11      -7.3552      1.00000
     12      -7.3552      1.00000
     13      -4.3504      1.00000
     14      -4.3504      1.00000
     15      -4.3497      1.00000
     16      -4.3497      1.00000
     17      -4.0371      1.00000
     18      -4.0371      1.00000
     19      -3.8951      1.00000
     20      -3.8951      1.00000
     21      -0.7087      1.00000
     22      -0.7087      1.00000
     23      -0.6807      1.00000
     24      -0.6807      1.00000
     25       0.3637      1.00000
     26       0.3637      1.00000
     27       0.4790      1.00000
     28       0.4790      1.00000
     29       0.7579      1.00000
     30       0.7579      1.00000
     31       0.9641      1.00000
     32       0.9641      1.00000
     33       1.2013      1.00000
     34       1.2013      1.00000
     35       1.3266      1.00000
     36       1.3266      1.00000
     37       1.6092      1.00000
     38       1.6092      1.00000
     39       1.9365      1.00000
     40       1.9365      1.00000
     41       1.9386      1.00000
     42       1.9386      1.00000
     43       2.3034      1.00000
     44       2.3034      1.00000
     45       3.0622      1.00000
     46       3.0622      1.00000
     47       3.1133      1.00000
     48       3.1133      1.00000
     49       3.1636      1.00000
     50       3.1636      1.00000
     51       3.4243      1.00000
     52       3.4243      1.00000
     53       3.8769      1.00000
     54       3.8769      1.00000
     55       4.2154      1.00000
     56       4.2154      1.00000
     57       6.7041      0.00000
     58       6.7041      0.00000
     59       6.7584      0.00000
     60       6.7584      0.00000
     61       6.8558      0.00000
     62       6.8558      0.00000
     63       7.1291      0.00000
     64       7.1291      0.00000
     65       7.4546      0.00000
     66       7.4546      0.00000
     67       8.0130      0.00000
     68       8.0130      0.00000
     69       8.3046      0.00000
     70       8.3046      0.00000
     71       8.4230      0.00000
     72       8.4230      0.00000
     73       8.4939      0.00000
     74       8.4939      0.00000
     75       8.6466      0.00000
     76       8.6466      0.00000
     77       9.5550      0.00000
     78       9.5550      0.00000
     79       9.7789      0.00000
     80       9.7789      0.00000
     81      10.1149      0.00000
     82      10.1149      0.00000
     83      10.4620      0.00000
     84      10.4637      0.00000

 k-point     5 :       0.0000    0.5000    0.0000
  band No.  band energies     occupation 
      1      -9.5196      1.00000
      2      -9.5196      1.00000
      3      -9.1127      1.00000
      4      -9.1127      1.00000
      5      -8.3411      1.00000
      6      -8.3411      1.00000
      7      -8.0295      1.00000
      8      -8.0295      1.00000
      9      -7.3925      1.00000
     10      -7.3925      1.00000
     11      -7.3258      1.00000
     12      -7.3258      1.00000
     13      -4.2367      1.00000
     14      -4.2367      1.00000
     15      -3.9934      1.00000
     16      -3.9934      1.00000
     17      -2.9199      1.00000
     18      -2.9199      1.00000
     19      -2.0570      1.00000
     20      -2.0570      1.00000
     21       0.0416      1.00000
     22       0.0416      1.00000
     23       0.2153      1.00000
     24       0.2153      1.00000
     25       0.8311      1.00000
     26       0.8311      1.00000
     27       1.2796      1.00000
     28       1.2796      1.00000
     29       1.4810      1.00000
     30       1.4810      1.00000
     31       1.9041      1.00000
     32       1.9041      1.00000
     33       2.0045      1.00000
     34       2.0045      1.00000
     35       2.1842      1.00000
     36       2.1842      1.00000
     37       2.2489      1.00000
     38       2.2489      1.00000
     39       2.5922      1.00000
     40       2.5922      1.00000
     41       2.7736      1.00000
[...]
     50       3.3293      1.00000
     51       3.3293      1.00000
     52       3.3293      1.00000
     53       3.7614      1.00000
     54       3.7614      1.00000
     55       3.7614      1.00000
     56       3.7614      1.00000
     57       6.5535      0.00000
     58       6.5535      0.00000
     59       6.5535      0.00000
     60       6.5535      0.00000
     61       7.2739      0.00000
     62       7.2739      0.00000
     63       7.2739      0.00000
     64       7.2739      0.00000
     65       7.8682      0.00000
     66       7.8682      0.00000
     67       7.8682      0.00000
     68       7.8682      0.00000
     69       8.2747      0.00000
     70       8.2747      0.00000
     71       8.2747      0.00000
     72       8.2747      0.00000
     73       8.8108      0.00000
     74       8.8108      0.00000
     75       8.8108      0.00000
     76       8.8108      0.00000
     77       9.4533      0.00000
     78       9.4533      0.00000
     79       9.4533      0.00000
     80       9.4533      0.00000
     81      10.2001      0.00000
     82      10.2002      0.00000
     83      10.2004      0.00000
     84      10.2005      0.00000


--------------------------------------------------------------------------------------------------------


 soft charge-density along one line, spin component           1
         0         1         2         3         4         5         6         7         8         9
 total charge-density along one line
 
 soft charge-density along one line, spin component           2
         0         1         2         3         4         5         6         7         8         9
 total charge-density along one line
 
 pseudopotential strength for first ion, spin component:           1
 40.141 -67.974  -0.043   0.051  -0.000  -0.069   0.082  -0.000
-67.974 117.522   0.071  -0.085   0.000   0.113  -0.136   0.000
 -0.043   0.071   9.211   0.003  -0.000  14.672   0.005  -0.000
  0.051  -0.085   0.003   9.209   0.000   0.005  14.669   0.000
 -0.000   0.000  -0.000   0.000   9.214  -0.000   0.000  14.677
 -0.069   0.113  14.672   0.005  -0.000  23.380   0.008  -0.000
  0.082  -0.136   0.005  14.669   0.000   0.008  23.376   0.000
 -0.000   0.000  -0.000   0.000  14.677  -0.000   0.000  23.387
 -0.000   0.000  -0.000   0.000  -0.004  -0.000   0.000  -0.007
  0.005  -0.009   0.005  -0.004   0.000   0.009  -0.007   0.000
 -0.003   0.005   0.003   0.005   0.000   0.005   0.009   0.000
  0.000  -0.000   0.000  -0.000   0.006   0.000  -0.000   0.010
  0.002  -0.004   0.005   0.000   0.000   0.009   0.000  -0.000
 pseudopotential strength for first ion, spin component:           2
 40.141 -67.974  -0.043   0.051  -0.000  -0.069   0.082  -0.000
-67.974 117.522   0.071  -0.085   0.000   0.113  -0.136   0.000
 -0.043   0.071   9.211   0.003  -0.000  14.672   0.005  -0.000
  0.051  -0.085   0.003   9.209   0.000   0.005  14.669   0.000
 -0.000   0.000  -0.000   0.000   9.214  -0.000   0.000  14.677
 -0.069   0.113  14.672   0.005  -0.000  23.380   0.008  -0.000
  0.082  -0.136   0.005  14.669   0.000   0.008  23.376   0.000
 -0.000   0.000  -0.000   0.000  14.677  -0.000   0.000  23.387
 -0.000   0.000  -0.000   0.000  -0.004  -0.000   0.000  -0.007
  0.005  -0.009   0.005  -0.004   0.000   0.009  -0.007   0.000
 -0.003   0.005   0.003   0.005   0.000   0.005   0.009   0.000
  0.000  -0.000   0.000  -0.000   0.006   0.000  -0.000   0.010
  0.002  -0.004   0.005   0.000  -0.000   0.009   0.000  -0.000
 total augmentation occupancy for first ion, spin component:           1
  2.016  -0.024   0.125  -0.155  -0.000  -0.018   0.020   0.000   0.000  -0.014   0.017   0.000   0.001
 -0.024   0.014  -0.067   0.085   0.000   0.017  -0.023  -0.000  -0.000   0.003  -0.003  -0.000   0.001
  0.125  -0.067   2.560  -0.221  -0.000  -0.745   0.056   0.000   0.000   0.064  -0.002  -0.000   0.029
 -0.155   0.085  -0.221   2.953   0.000   0.056  -0.895  -0.000   0.000  -0.114   0.157   0.000  -0.025
 -0.000   0.000  -0.000   0.000   2.514   0.000  -0.000  -0.754  -0.075  -0.000  -0.000   0.024   0.000
 -0.018   0.017  -0.745   0.056   0.000   0.242  -0.020  -0.000  -0.000  -0.021   0.003   0.000  -0.009
  0.020  -0.023   0.056  -0.895  -0.000  -0.020   0.302   0.000  -0.000   0.036  -0.049  -0.000   0.008
  0.000  -0.000   0.000  -0.000  -0.754  -0.000   0.000   0.248   0.022   0.000   0.000  -0.007  -0.000
  0.000  -0.000   0.000   0.000  -0.075  -0.000  -0.000   0.022   0.040   0.000   0.000   0.013  -0.000
 -0.014   0.003   0.064  -0.114  -0.000  -0.021   0.036   0.000   0.000   0.026  -0.016  -0.000   0.003
  0.017  -0.003  -0.002   0.157  -0.000   0.003  -0.049   0.000   0.000  -0.016   0.029   0.000  -0.003
  0.000  -0.000  -0.000   0.000   0.024   0.000  -0.000  -0.007   0.013  -0.000   0.000   0.019  -0.000
  0.001   0.001   0.029  -0.025   0.000  -0.009   0.008  -0.000  -0.000   0.003  -0.003  -0.000   0.010
 total augmentation occupancy for first ion, spin component:           2
  0.000   0.000   0.000  -0.000  -0.000  -0.000   0.000   0.000  -0.000  -0.000   0.000   0.000  -0.000
  0.000  -0.000   0.000  -0.000  -0.000  -0.000   0.000   0.000  -0.000   0.000  -0.000  -0.000  -0.000
  0.000   0.000   0.001  -0.000  -0.000  -0.000   0.000   0.000  -0.000   0.000  -0.000  -0.000  -0.000
 -0.000  -0.000  -0.000   0.001   0.000   0.000  -0.000  -0.000   0.000   0.000  -0.000   0.000   0.000
 -0.000  -0.000  -0.000   0.000   0.001   0.000  -0.000  -0.000   0.000   0.000   0.000   0.000  -0.000
 -0.000  -0.000  -0.000   0.000   0.000   0.000  -0.000  -0.000   0.000  -0.000   0.000   0.000  -0.000
  0.000   0.000   0.000  -0.000  -0.000  -0.000   0.000   0.000  -0.000  -0.000   0.000  -0.000  -0.000
  0.000   0.000   0.000  -0.000  -0.000  -0.000   0.000   0.000  -0.000  -0.000  -0.000  -0.000   0.000
 -0.000  -0.000  -0.000   0.000   0.000   0.000  -0.000  -0.000  -0.000  -0.000  -0.000  -0.000   0.000
 -0.000   0.000   0.000   0.000   0.000  -0.000  -0.000  -0.000  -0.000   0.000   0.000  -0.000  -0.000
  0.000  -0.000  -0.000  -0.000   0.000   0.000   0.000  -0.000  -0.000   0.000   0.000   0.000   0.000
  0.000  -0.000  -0.000   0.000   0.000   0.000  -0.000  -0.000  -0.000  -0.000   0.000   0.000   0.000
 -0.000  -0.000  -0.000   0.000  -0.000  -0.000  -0.000   0.000   0.000  -0.000   0.000   0.000   0.000


------------------------ aborting loop because EDIFF is reached ----------------------------------------





 total charge

# of ion       s       p       d       tot
------------------------------------------
    1        1.295   0.910   0.072   2.278
    2        1.295   0.910   0.072   2.278
    3        1.295   0.910   0.072   2.278
    4        1.295   0.910   0.072   2.278
    5        1.284   0.935   0.066   2.285
    6        1.284   0.935   0.066   2.285
    7        1.284   0.935   0.066   2.285
    8        1.284   0.935   0.066   2.285
    9        1.355   2.297   0.000   3.652
   10        1.355   2.297   0.000   3.652
   11        1.355   2.297   0.000   3.652
   12        1.355   2.297   0.000   3.652
   13        1.356   2.302   0.000   3.659
   14        1.356   2.302   0.000   3.659
   15        1.356   2.302   0.000   3.659
   16        1.356   2.302   0.000   3.659
   17        1.360   2.294   0.000   3.654
   18        1.360   2.294   0.000   3.654
   19        1.360   2.294   0.000   3.654
   20        1.360   2.294   0.000   3.654
--------------------------------------------------
tot         26.601  34.952   0.553  62.106



 magnetization (x)

# of ion       s       p       d       tot
------------------------------------------
    1       -0.000   0.000   0.000   0.000
    2       -0.000   0.000   0.000   0.000
    3       -0.000   0.000   0.000   0.000
    4       -0.000   0.000   0.000   0.000
    5       -0.000   0.000   0.000   0.000
    6       -0.000   0.000   0.000   0.000
    7       -0.000   0.000   0.000   0.000
    8       -0.000   0.000   0.000   0.000
    9       -0.000  -0.000   0.000  -0.000
   10       -0.000  -0.000   0.000  -0.000
   11       -0.000  -0.000   0.000  -0.000
   12       -0.000  -0.000   0.000  -0.000
   13       -0.000  -0.000   0.000  -0.000
   14       -0.000  -0.000   0.000  -0.000
   15       -0.000  -0.000   0.000  -0.000
   16       -0.000  -0.000   0.000  -0.000
   17       -0.000  -0.000   0.000  -0.000
   18       -0.000  -0.000   0.000  -0.000
   19       -0.000  -0.000   0.000  -0.000
   20       -0.000  -0.000   0.000  -0.000
--------------------------------------------------
tot         -0.000  -0.001   0.000  -0.001
 
    CHARGE:  cpu time      0.1349: real time      0.1354
    FORLOC:  cpu time      0.0027: real time      0.0027
    FORNL :  cpu time      0.4525: real time      0.4536
    STRESS:  cpu time      0.6960: real time      0.6980
    FORCOR:  cpu time      0.0589: real time      0.0594
    FORHAR:  cpu time      0.0097: real time      0.0100
    MIXING:  cpu time      0.0015: real time      0.0015
    OFIELD:  cpu time      0.0003: real time      0.0005

  FORCE on cell =-STRESS in cart. coord.  units (eV):
  Direction    XX          YY          ZZ          XY          YZ          ZX
  --------------------------------------------------------------------------------------
  Alpha Z    44.85403    44.85403    44.85403
  Ewald   -1161.01634 -1317.29953 -1663.37944     0.00000    -0.00000    -0.00000
  Hartree   341.82647   258.49951    66.87236    -0.00000    -0.00000    -0.00000
  E(xc)    -405.87212  -405.49282  -407.90374     0.00000     0.00000    -0.00000
  Local   -1208.86994  -980.64998  -457.81655     0.00000     0.00000    -0.00000
  n-local  1518.23990  1514.98125  1533.08649     0.00001     0.00001     0.00002
  augment  -348.45798  -349.25935  -353.81122     0.00000    -0.00000    -0.00000
  Kinetic  1214.95397  1229.34906  1235.46317    -0.00001    -0.00003     0.00003
  Fock        0.00000     0.00000     0.00000     0.00000     0.00000     0.00000
  -------------------------------------------------------------------------------------
  Total      -4.34201    -5.01783    -2.63490     0.00000    -0.00000    -0.00000
  in kB     -13.48957   -15.58915    -8.18598     0.00000    -0.00000    -0.00000
  external pressure =      -12.42 kB  Pullay stress =        0.00 kB


 VOLUME and BASIS-vectors are now :
 -----------------------------------------------------------------------------
  energy-cutoff  :      680.00
  volume of cell :      515.71
      direct lattice vectors                 reciprocal lattice vectors
     3.844732910  0.000000000  0.000000000     0.260096091  0.000000000  0.000000000
    -0.000000000 11.367141140  0.000000000     0.000000000  0.087972867  0.000000000
     0.000000000  0.000000000 11.800118450    -0.000000000 -0.000000000  0.084744912

  length of vectors
     3.844732910 11.367141140 11.800118450     0.260096091  0.087972867  0.084744912


 FORCES acting on ions
    electron-ion (+dipol)            ewald-force                    non-local-force                 convergence-correction
 -----------------------------------------------------------------------------------------------
   -.116E-14 -.183E+02 0.511E+02   -.139E-13 0.242E+02 -.583E+02   0.358E-15 -.582E+01 0.711E+01   -.324E-14 -.150E-02 0.317E-02
   0.375E-13 0.183E+02 -.511E+02   0.121E-13 -.242E+02 0.583E+02   -.358E-15 0.582E+01 -.711E+01   -.196E-15 0.150E-02 -.317E-02
   -.324E-13 -.183E+02 -.511E+02   -.126E-13 0.242E+02 0.583E+02   0.358E-15 -.582E+01 -.711E+01   0.366E-14 -.150E-02 -.317E-02
   -.482E-13 0.183E+02 0.511E+02   0.157E-13 -.242E+02 -.583E+02   -.358E-15 0.582E+01 0.711E+01   -.512E-14 0.150E-02 0.317E-02
   0.503E-13 0.172E+02 -.414E+02   -.449E-13 -.145E+02 0.519E+02   0.157E-15 -.254E+01 -.103E+02   -.106E-14 0.955E-03 -.137E-02
   0.662E-14 -.172E+02 0.414E+02   0.471E-13 0.145E+02 -.519E+02   -.157E-15 0.254E+01 0.103E+02   0.133E-15 -.955E-03 0.137E-02
   -.575E-13 0.172E+02 0.414E+02   -.219E-13 -.145E+02 -.519E+02   0.157E-15 -.254E+01 0.103E+02   -.141E-14 0.955E-03 0.137E-02
   -.327E-13 -.172E+02 -.414E+02   0.269E-13 0.145E+02 0.519E+02   -.157E-15 0.254E+01 -.103E+02   -.390E-15 -.955E-03 -.137E-02
   0.643E-13 0.346E+02 0.152E+02   0.350E-13 -.375E+02 -.181E+02   -.170E-15 0.275E+01 0.279E+01   0.101E-13 0.180E-02 0.114E-02
   0.740E-13 -.346E+02 -.152E+02   -.352E-13 0.375E+02 0.181E+02   0.170E-15 -.275E+01 -.279E+01   0.444E-14 -.180E-02 -.114E-02
   0.699E-13 0.346E+02 -.152E+02   0.346E-14 -.375E+02 0.181E+02   -.170E-15 0.275E+01 -.279E+01   0.666E-14 0.180E-02 -.114E-02
   0.638E-13 -.346E+02 0.152E+02   -.245E-14 0.375E+02 -.181E+02   0.170E-15 -.275E+01 0.279E+01   0.481E-14 -.180E-02 0.114E-02
   0.712E-13 0.558E+02 -.552E+02   0.994E-14 -.583E+02 0.578E+02   -.143E-15 0.233E+01 -.255E+01   -.208E-14 0.499E-02 -.610E-02
   0.789E-13 -.558E+02 0.552E+02   -.792E-14 0.583E+02 -.578E+02   0.143E-15 -.233E+01 0.255E+01   0.176E-13 -.499E-02 0.610E-02
   0.846E-13 0.558E+02 0.552E+02   0.215E-13 -.583E+02 -.578E+02   -.143E-15 0.233E+01 0.255E+01   0.189E-13 0.499E-02 0.610E-02
   0.750E-13 -.558E+02 -.552E+02   -.170E-13 0.583E+02 0.578E+02   0.143E-15 -.233E+01 -.255E+01   -.226E-14 -.499E-02 -.610E-02
   0.502E-13 -.179E+02 0.726E+02   -.155E-13 0.192E+02 -.768E+02   0.842E-16 -.137E+01 0.411E+01   0.245E-13 -.815E-03 0.440E-02
   0.580E-13 0.179E+02 -.726E+02   0.154E-13 -.192E+02 0.768E+02   -.842E-16 0.137E+01 -.411E+01   -.854E-14 0.815E-03 -.440E-02
   0.924E-13 -.179E+02 -.726E+02   -.551E-14 0.192E+02 0.768E+02   0.842E-16 -.137E+01 -.411E+01   0.167E-13 -.815E-03 -.440E-02
   0.769E-13 0.179E+02 0.726E+02   0.128E-13 -.192E+02 -.768E+02   -.842E-16 0.137E+01 0.411E+01   0.690E-15 0.815E-03 0.440E-02
 -----------------------------------------------------------------------------------------------
   0.782E-12 -.224E-11 0.288E-11   0.231E-13 0.213E-13 0.114E-12   -.233E-20 -.244E-14 -.355E-14   0.839E-13 0.251E-13 -.138E-12
 
 
 POSITION                                       TOTAL-FORCE (eV/Angst)
 -----------------------------------------------------------------------------------
      2.88355      5.29235     10.11684        -0.000000      0.074326     -0.061998
      0.96118      6.07479      1.68328         0.000000     -0.074326      0.061998
      0.96118     10.97593      7.58334        -0.000000      0.074326      0.061998
      2.88355      0.39122      4.21678         0.000000     -0.074326     -0.061998
      0.96118      1.96746     11.41005        -0.000000      0.128404      0.145149
      2.88355      9.39969      0.39007         0.000000     -0.128404     -0.145149
      2.88355      7.65103      6.29013        -0.000000      0.128404     -0.145149
      0.96118      3.71612      5.50999         0.000000     -0.128404      0.145149
      2.88355      0.69873     10.33604         0.000000     -0.133190     -0.102296
      0.96118     10.66841      1.46407        -0.000000      0.133190      0.102296
      0.96118      6.38230      7.36413         0.000000     -0.133190      0.102296
      2.88355      4.98484      4.43599        -0.000000      0.133190     -0.102296
      2.88355      4.31078      0.57279         0.000000     -0.107065      0.059041
      0.96118      7.05636     11.22732        -0.000000      0.107065     -0.059041
      0.96118      9.99435      5.32726         0.000000     -0.107065     -0.059041
      2.88355      1.37279      6.47285        -0.000000      0.107065      0.059041
      0.96118      2.14325      3.54298         0.000000     -0.041783     -0.050499
      2.88355      9.22389      8.25714        -0.000000      0.041783      0.050499
      2.88355      7.82682      2.35708         0.000000     -0.041783      0.050499
      0.96118      3.54032      9.44304        -0.000000      0.041783     -0.050499
 -----------------------------------------------------------------------------------
    total drift:                                0.000000     -0.000000      0.000000


--------------------------------------------------------------------------------------------------------



  FREE ENERGIE OF THE ION-ELECTRON SYSTEM (eV)
  ---------------------------------------------------
  free  energy   TOTEN  =       -94.61847791 eV

  energy  without entropy=      -94.61847791  energy(sigma->0) =      -94.61847791
 


--------------------------------------------------------------------------------------------------------


    POTLOK:  cpu time      0.4580: real time      0.4594


--------------------------------------------------------------------------------------------------------


 writing wavefunctions
     LOOP+:  cpu time     49.0931: real time     49.4495
    4ORBIT:  cpu time      0.0000: real time      0.0000



 total charge

# of ion       s       p       d       tot
------------------------------------------
    1        1.295   0.910   0.072   2.278
    2        1.295   0.910   0.072   2.278
    3        1.295   0.910   0.072   2.278
    4        1.295   0.910   0.072   2.278
    5        1.284   0.935   0.066   2.285
    6        1.284   0.935   0.066   2.285
    7        1.284   0.935   0.066   2.285
    8        1.284   0.935   0.066   2.285
    9        1.355   2.297   0.000   3.652
   10        1.355   2.297   0.000   3.652
   11        1.355   2.297   0.000   3.652
   12        1.355   2.297   0.000   3.652
   13        1.356   2.302   0.000   3.659
   14        1.356   2.302   0.000   3.659
   15        1.356   2.302   0.000   3.659
   16        1.356   2.302   0.000   3.659
   17        1.360   2.294   0.000   3.654
   18        1.360   2.294   0.000   3.654
   19        1.360   2.294   0.000   3.654
   20        1.360   2.294   0.000   3.654
--------------------------------------------------
tot         26.601  34.952   0.553  62.106



 magnetization (x)

# of ion       s       p       d       tot
------------------------------------------
    1       -0.000   0.000   0.000   0.000
    2       -0.000   0.000   0.000   0.000
    3       -0.000   0.000   0.000   0.000
    4       -0.000   0.000   0.000   0.000
    5       -0.000   0.000   0.000   0.000
    6       -0.000   0.000   0.000   0.000
    7       -0.000   0.000   0.000   0.000
    8       -0.000   0.000   0.000   0.000
    9       -0.000  -0.000   0.000  -0.000
   10       -0.000  -0.000   0.000  -0.000
   11       -0.000  -0.000   0.000  -0.000
   12       -0.000  -0.000   0.000  -0.000
   13       -0.000  -0.000   0.000  -0.000
   14       -0.000  -0.000   0.000  -0.000
   15       -0.000  -0.000   0.000  -0.000
   16       -0.000  -0.000   0.000  -0.000
   17       -0.000  -0.000   0.000  -0.000
   18       -0.000  -0.000   0.000  -0.000
   19       -0.000  -0.000   0.000  -0.000
   20       -0.000  -0.000   0.000  -0.000
--------------------------------------------------
tot         -0.000  -0.001   0.000  -0.001
 
 BZINTS: Fermi energy:    4.463374;  112.000000 electrons
         Band energy:-0.100590E+03;  BLOECHL correction:    0.000000

 total amount of memory used by VASP MPI-rank0    54116. kBytes
=======================================================================

   base      :      30000. kBytes
   nonl-proj :       7704. kBytes
   fftplans  :       2416. kBytes
   grid      :       6309. kBytes
   one-center:         32. kBytes
   wavefun   :       7655. kBytes
 
  
  
 General timing and accounting informations for this job:
 ========================================================
  
                  Total CPU time used (sec):       78.297
                            User time (sec):       70.395
                          System time (sec):        7.903
                         Elapsed time (sec):       79.433
  
                   Maximum memory used (kb):      221436.
                   Average memory used (kb):          N/A
  
                          Minor page faults:        52553
                          Major page faults:            0
                 Voluntary context switches:         2188
