 vasp.6.4.2 20Jul23 (build Mar 15 2024 16:31:38) complex                        
  
 executed on             LinuxIFC date 2025.03.04  19:09:25
 running  120 mpi-ranks, on    3 nodes
 distrk:  each k-point on  120 cores,    1 groups
 distr:  one band on NCORE=  10 cores,   12 groups


--------------------------------------------------------------------------------------------------------


 INCAR:
   ALGO = Fast
   EDIFF = 1e-05
   ENAUG = 1360
   ENCUT = 680
   GGA = Ps
   ISMEAR = -5
   ISPIN = 2
   LAECHG = True
   LASPH = True
   LCHARG = True
   LELF = False
   LMAXMIX = 4
   LMIXTAU = True
   LORBIT = 11
   LREAL = False
   LVTOT = True
   LWAVE = True
   MAGMOM = 8*0.0
   NCORE = 10
   NELM = 200
   NSW = 0
   PREC = Accurate
   SIGMA = 0.05

 POTCAR:    PAW_PBE Ga_d 06Jul2010                
 POTCAR:    PAW_PBE As 22Sep2009                  
 WARNING: For LVTOT=.TRUE., VASP.5.x writes the TOTAL local potential to the
     file LOCPOT. If you want only the Hartree contributions, use LVHAR=.TRUE.
     instead. 

 POTCAR:    PAW_PBE Ga_d 06Jul2010                
   VRHFIN =Ga: s2p1                                                                                 
   LEXCH  = PE                                                                                      
   EATOM  =  2148.8298 eV,  157.9345 Ry                                                             
                                                                                                    
   TITEL  = PAW_PBE Ga_d 06Jul2010                                                                  
   LULTRA =        F    use ultrasoft PP ?                                                          
   IUNSCR =        1    unscreen: 0-lin 1-nonlin 2-no                                               
   RPACOR =    1.700    partial core radius                                                         
   POMASS =   69.723; ZVAL   =   13.000    mass and valenz                                          
   RCORE  =    2.300    outmost cutoff radius                                                       
   RWIGS  =    2.300; RWIGS  =    1.217    wigner-seitz radius (au A)                               
   ENMAX  =  282.691; ENMIN  =  212.018 eV                                                          
   ICORE  =        3    local potential                                                             
   LCOR   =        T    correct aug charges                                                         
   LPAW   =        T    paw PP                                                                      
   EAUG   =  490.690                                                                                
   DEXC   =    0.000                                                                                
   RMAX   =    2.341    core radius for proj-oper                                                   
   RAUG   =    1.300    factor for augmentation sphere                                              
   RDEP   =    2.413    radius for radial grids                                                     
   RDEPT  =    1.856    core radius for aug-charge                                                  
                                                                                                    
   Atomic configuration                                                                             
    9 entries                                                                                       
     n  l   j            E        occ.                                                              
     1  0  0.50    -10228.7831   2.0000                                                             
     2  0  0.50     -1262.1604   2.0000                                                             
     2  1  1.50     -1098.6333   6.0000                                                             
     3  0  0.50      -148.1110   2.0000                                                             
     3  1  1.50       -98.8436   6.0000                                                             
     3  2  2.50       -19.1549  10.0000                                                             
     4  0  0.50        -8.9483   2.0000                                                             
     4  1  0.50        -2.5791   1.0000                                                             
     4  3  2.50        -2.7416   0.0000                                                             
   Description                                                                                      
     l       E           TYP  RCUT    TYP  RCUT                                                     
     2    -19.1549037     23  2.300                                                                 
     2     -5.4423304     23  2.300                                                                 
     0     -8.9483111     23  2.300                                                                 
     0     68.0291300     23  2.300                                                                 
     1     -2.5790802     23  2.100                                                                 
     1     81.6349560     23  2.300                                                                 
     3      6.8029130     23  2.300                                                                 
  local pseudopotential read in
  partial core-charges read in
  partial kinetic energy density read in
  atomic valenz-charges read in
  non local Contribution for L=           2  read in
    real space projection operators read in
  non local Contribution for L=           2  read in
    real space projection operators read in
  non local Contribution for L=           0  read in
    real space projection operators read in
  non local Contribution for L=           0  read in
    real space projection operators read in
  non local Contribution for L=           1  read in
    real space projection operators read in
  non local Contribution for L=           1  read in
    real space projection operators read in
    PAW grid and wavefunctions read in
 
   number of l-projection  operators is LMAX  =           6
   number of lm-projection operators is LMMAX =          18
 
 POTCAR:    PAW_PBE As 22Sep2009                  
   VRHFIN =As: s2p3                                                                                 
   LEXCH  = PE                                                                                      
   EATOM  =   170.1867 eV,   12.5084 Ry                                                             
                                                                                                    
   TITEL  = PAW_PBE As 22Sep2009                                                                    
   LULTRA =        F    use ultrasoft PP ?                                                          
   IUNSCR =        1    unscreen: 0-lin 1-nonlin 2-no                                               
   RPACOR =    1.900    partial core radius                                                         
   POMASS =   74.922; ZVAL   =    5.000    mass and valenz                                          
   RCORE  =    2.100    outmost cutoff radius                                                       
   RWIGS  =    2.300; RWIGS  =    1.217    wigner-seitz radius (au A)                               
   ENMAX  =  208.702; ENMIN  =  156.526 eV                                                          
   ICORE  =        3    local potential                                                             
   LCOR   =        T    correct aug charges                                                         
   LPAW   =        T    paw PP                                                                      
   EAUG   =  462.758                                                                                
   DEXC   =    0.000                                                                                
   RMAX   =    2.144    core radius for proj-oper                                                   
   RAUG   =    1.300    factor for augmentation sphere                                              
   RDEP   =    2.140    radius for radial grids                                                     
   RDEPT  =    1.956    core radius for aug-charge                                                  
                                                                                                    
   Atomic configuration                                                                             
   10 entries                                                                                       
     n  l   j            E        occ.                                                              
     1  0  0.50    -11718.0418   2.0000                                                             
     2  0  0.50     -1486.5454   2.0000                                                             
     2  1  1.50     -1303.3889   6.0000                                                             
     3  0  0.50      -190.2849   2.0000                                                             
     3  1  1.50      -133.6555   6.0000                                                             
     3  2  2.50       -40.6443  10.0000                                                             
     4  0  0.50       -14.4936   2.0000                                                             
     4  1  0.50        -5.1947   3.0000                                                             
     4  2  1.50        -5.4423   0.0000                                                             
     4  3  2.50        -5.4423   0.0000                                                             
   Description                                                                                      
     l       E           TYP  RCUT    TYP  RCUT                                                     
     0    -14.4935570     23  2.100                                                                 
     0    -11.9212055     23  2.100                                                                 
     1     -5.1947127     23  2.100                                                                 
     1     27.2116520     23  2.100                                                                 
     2     -5.4423304     23  2.100                                                                 
     3     -1.3605826      7  2.100                                                                 
  local pseudopotential read in
  partial core-charges read in
  partial kinetic energy density read in
  atomic valenz-charges read in
  non local Contribution for L=           0  read in
    real space projection operators read in
  non local Contribution for L=           0  read in
    real space projection operators read in
  non local Contribution for L=           1  read in
    real space projection operators read in
  non local Contribution for L=           1  read in
    real space projection operators read in
  non local Contribution for L=           2  read in
    real space projection operators read in
    PAW grid and wavefunctions read in
 
   number of l-projection  operators is LMAX  =           5
   number of lm-projection operators is LMMAX =          13
 
 -----------------------------------------------------------------------------
|                                                                             |
|               ----> ADVICE to this user running VASP <----                  |
|                                                                             |
|     You enforced a specific xc type in the INCAR file but a different       |
|     type was found in the POTCAR file.                                      |
|     I HOPE YOU KNOW WHAT YOU ARE DOING!                                     |
|                                                                             |
 -----------------------------------------------------------------------------

  PAW_PBE Ga_d 06Jul2010                :
 energy of atom  1       EATOM=-2148.8298
 kinetic energy error for atom=    0.0008 (will be added to EATOM!!)
  PAW_PBE As 22Sep2009                  :
 energy of atom  2       EATOM= -170.1867
 kinetic energy error for atom=    0.0003 (will be added to EATOM!!)
 
 
 POSCAR: Ga4 As4
  positions in direct lattice
  No initial velocities read in
 exchange correlation table for  LEXCH =       14
   RHO(1)=    0.500       N(1)  =     2000
   RHO(2)=  100.500       N(2)  =     4000
 


--------------------------------------------------------------------------------------------------------


 ion  position               nearest neighbor table
   1  0.000  0.000  0.000-   5 2.45   6 2.45   7 2.45   8 2.45
   2  0.500  0.500  0.000-   5 2.45   6 2.45   7 2.45   8 2.45
   3  0.500  0.000  0.500-   5 2.45   6 2.45   7 2.45   8 2.45
   4  0.000  0.500  0.500-   5 2.45   6 2.45   7 2.45   8 2.45
   5  0.250  0.250  0.250-   1 2.45   2 2.45   3 2.45   4 2.45
   6  0.250  0.750  0.750-   1 2.45   2 2.45   3 2.45   4 2.45
   7  0.750  0.750  0.250-   1 2.45   2 2.45   3 2.45   4 2.45
   8  0.750  0.250  0.750-   1 2.45   2 2.45   3 2.45   4 2.45
 
  LATTYP: Found a simple cubic cell.
 ALAT       =     5.6624778701
  
  Lattice vectors:
  
 A1 = (   5.6624778701,   0.0000000000,   0.0000000000)
 A2 = (  -0.0000000000,   5.6624778701,   0.0000000000)
 A3 = (   0.0000000000,   0.0000000000,   5.6624778701)


Analysis of symmetry for initial positions (statically):
=====================================================================
 Subroutine PRICEL returns following result:
 
  LATTYP: Found a face centered cubic cell.
 ALAT       =     5.6624778701
  
  Lattice vectors:
  
 A1 = (   2.8312389350,  -2.8312389350,   0.0000000000)
 A2 = (   2.8312389350,   0.0000000000,   2.8312389350)
 A3 = (   0.0000000000,  -2.8312389350,   2.8312389350)
 
   4 primitive cells build up your supercell.
 

 Routine SETGRP: Setting up the symmetry group for a 
 simple cubic supercell.


 Subroutine GETGRP returns: Found 24 space group operations
 (whereof 24 operations were pure point group operations)
 out of a pool of 48 trial point group operations.


The static configuration has the point symmetry T_d .


Analysis of symmetry for dynamics (positions and initial velocities):
=====================================================================
 Subroutine PRICEL returns following result:
 
  LATTYP: Found a face centered cubic cell.
 ALAT       =     5.6624778701
  
  Lattice vectors:
  
 A1 = (   2.8312389350,  -2.8312389350,   0.0000000000)
 A2 = (   2.8312389350,   0.0000000000,   2.8312389350)
 A3 = (   0.0000000000,  -2.8312389350,   2.8312389350)
 
   4 primitive cells build up your supercell.
 

 Routine SETGRP: Setting up the symmetry group for a 
 simple cubic supercell.


 Subroutine GETGRP returns: Found 24 space group operations
 (whereof 24 operations were pure point group operations)
 out of a pool of 48 trial point group operations.


The dynamic configuration has the point symmetry T_d .


Analysis of structural, dynamic, and magnetic symmetry:
=====================================================================
 Subroutine PRICEL returns following result:
 
  LATTYP: Found a face centered cubic cell.
 ALAT       =     5.6624778701
  
  Lattice vectors:
  
 A1 = (   2.8312389350,  -2.8312389350,   0.0000000000)
 A2 = (   2.8312389350,   0.0000000000,   2.8312389350)
 A3 = (   0.0000000000,  -2.8312389350,   2.8312389350)
 
   4 primitive cells build up your supercell.
 

 Routine SETGRP: Setting up the symmetry group for a 
 simple cubic supercell.


 Subroutine GETGRP returns: Found 24 space group operations
 (whereof 24 operations were pure point group operations)
 out of a pool of 48 trial point group operations.


The overall configuration has the point symmetry T_d .


 Subroutine INISYM returns: Found 24 space group operations
 (whereof 24 operations are pure point group operations),
 and found     4 'primitive' translations


----------------------------------------------------------------------------------------

                                     Primitive cell                                     

  volume of cell :      45.3899

  direct lattice vectors                    reciprocal lattice vectors
     2.831238935 -2.831238935  0.000000000     0.176601132 -0.176601132 -0.176601132
     2.831238935  0.000000000  2.831238935     0.176601132  0.176601132  0.176601132
     0.000000000 -2.831238935  2.831238935    -0.176601132 -0.176601132  0.176601132

  length of vectors
     4.003976500  4.003976500  4.003976500     0.305882133  0.305882133  0.305882133

  position of ions in fractional coordinates (direct lattice)
     0.000000000  0.000000000  0.000000000
     0.750000000  0.750000000  0.750000000

  ion indices of the primitive-cell ions
   primitive index   ion index
                 1           1
                 2           5

----------------------------------------------------------------------------------------

 
 
 KPOINTS: pymatgen with grid density = 700 / numbe

Automatic generation of k-mesh.
 Grid dimensions read from file:
 generate k-points for:    4    4    4

 Generating k-lattice:

  Cartesian coordinates                     Fractional coordinates (reciprocal lattice)
     0.044150283  0.000000000  0.000000000     0.250000000  0.000000000  0.000000000
     0.000000000  0.044150283  0.000000000     0.000000000  0.250000000  0.000000000
    -0.000000000 -0.000000000  0.044150283    -0.000000000 -0.000000000  0.250000000

  Length of vectors
     0.044150283  0.044150283  0.044150283

  Shift w.r.t. Gamma in fractional coordinates (k-lattice)
     0.000000000  0.000000000  0.000000000

 TETIRR: Found     30 inequivalent tetrahedra from      384
 
 Subroutine IBZKPT returns following result:
 ===========================================
 
 Found     10 irreducible k-points:
 
 Following reciprocal coordinates:
            Coordinates               Weight
  0.000000  0.000000  0.000000      1.000000
  0.250000  0.000000  0.000000      6.000000
  0.500000  0.000000  0.000000      3.000000
  0.250000  0.250000  0.000000     12.000000
  0.500000  0.250000  0.000000     12.000000
  0.500000  0.500000  0.000000      3.000000
  0.250000  0.250000  0.250000      8.000000
  0.500000  0.250000  0.250000     12.000000
  0.500000  0.500000  0.250000      6.000000
  0.500000  0.500000  0.500000      1.000000
 
 Following cartesian coordinates:
            Coordinates               Weight
  0.000000  0.000000  0.000000      1.000000
  0.044150  0.000000  0.000000      6.000000
  0.088301  0.000000  0.000000      3.000000
  0.044150  0.044150  0.000000     12.000000
  0.088301  0.044150  0.000000     12.000000
  0.088301  0.088301  0.000000      3.000000
  0.044150  0.044150  0.044150      8.000000
  0.088301  0.044150  0.044150     12.000000
  0.088301  0.088301  0.044150      6.000000
  0.088301  0.088301  0.088301      1.000000
 


--------------------------------------------------------------------------------------------------------




 Dimension of arrays:
   k-points           NKPTS =     10   k-points in BZ     NKDIM =     10   number of bands    NBANDS=     48
   number of dos      NEDOS =    301   number of ions     NIONS =      8
   non local maximal  LDIM  =      6   non local SUM 2l+1 LMDIM =     18
   total plane-waves  NPLWV = 110592
   max r-space proj   IRMAX =      1   max aug-charges    IRDMAX=  25402
   dimension x,y,z NGX =    48 NGY =   48 NGZ =   48
   dimension x,y,z NGXF=    96 NGYF=   96 NGZF=   96
   support grid    NGXF=    96 NGYF=   96 NGZF=   96
   ions per type =               4   4
   NGX,Y,Z   is equivalent  to a cutoff of  14.09, 14.09, 14.09 a.u.
   NGXF,Y,Z  is equivalent  to a cutoff of  28.18, 28.18, 28.18 a.u.

 SYSTEM =  unknown system                          
 POSCAR =  Ga4 As4                                 

 Startparameter for this run:
   NWRITE =      2    write-flag & timer
   PREC   = accura    normal or accurate (medium, high low for compatibility)
   ISTART =      0    job   : 0-new  1-cont  2-samecut
   ICHARG =      2    charge: 1-file 2-atom 10-const
   ISPIN  =      2    spin polarized calculation?
   LNONCOLLINEAR =      F non collinear calculations
   LSORBIT =      F    spin-orbit coupling
   INIWAV =      1    electr: 0-lowe 1-rand  2-diag
   LASPH  =      T    aspherical Exc in radial PAW
 Electronic Relaxation 1
   ENCUT  =  680.0 eV  49.98 Ry    7.07 a.u.  12.04 12.04 12.04*2*pi/ulx,y,z
   ENINI  =  680.0     initial cutoff
   ENAUG  = 1360.0 eV  augmentation charge cutoff
   NELM   =    200;   NELMIN=  2; NELMDL= -5     # of ELM steps 
   EDIFF  = 0.1E-04   stopping-criterion for ELM
   LREAL  =      F    real-space projection
   NLSPLINE    = F    spline interpolate recip. space projectors
   LCOMPAT=      F    compatible to vasp.4.4
   GGA_COMPAT  = T    GGA compatible to vasp.4.4-vasp.4.6
   LMAXPAW     = -100 max onsite density
   LMAXMIX     =    4 max onsite mixed and CHGCAR
   VOSKOWN=      0    Vosko Wilk Nusair interpolation
   ROPT   =    0.00000   0.00000
 Ionic relaxation
   EDIFFG = 0.1E-03   stopping-criterion for IOM
   NSW    =      0    number of steps for IOM
   NBLOCK =      1;   KBLOCK =      1    inner block; outer block 
   IBRION =     -1    ionic relax: 0-MD 1-quasi-New 2-CG
   NFREE  =      0    steps in history (QN), initial steepest desc. (CG)
   ISIF   =      2    stress and relaxation
   IWAVPR =     10    prediction:  0-non 1-charg 2-wave 3-comb
   ISYM   =      2    0-nonsym 1-usesym 2-fastsym
   LCORR  =      T    Harris-Foulkes like correction to forces

   POTIM  = 0.5000    time-step for ionic-motion
   TEIN   =    0.0    initial temperature
   TEBEG  =    0.0;   TEEND  =   0.0 temperature during run
   SMASS  =  -3.00    Nose mass-parameter (am)
   estimated Nose-frequenzy (Omega)   =  0.10E-29 period in steps = 0.13E+47 mass=  -0.733E-27a.u.
   SCALEE = 1.0000    scale energy and forces
   NPACO  =    256;   APACO  = 10.0  distance and # of slots for P.C.
   PSTRESS=    0.0 pullay stress

  Mass of Ions in am
   POMASS =  69.72 74.92
  Ionic Valenz
   ZVAL   =  13.00  5.00
  Atomic Wigner-Seitz radii
   RWIGS  =  -1.00 -1.00
  virtual crystal weights 
   VCA    =   1.00  1.00
   NELECT =      72.0000    total number of electrons
   NUPDOWN=      -1.0000    fix difference up-down

 DOS related values:
   EMIN   =  10.00;   EMAX   =-10.00  energy-range for DOS
   EFERMI =   0.00;   METHOD = LEGACY      
   ISMEAR =    -5;   SIGMA  =   0.05  broadening in eV -4-tet -1-fermi 0-gaus

 Electronic relaxation 2 (details)
   IALGO  =     68    algorithm
   LDIAG  =      T    sub-space diagonalisation (order eigenvalues)
   LSUBROT=      F    optimize rotation matrix (better conditioning)
   TURBO    =      0    0=normal 1=particle mesh
   IRESTART =      0    0=no restart 2=restart with 2 vectors
   NREBOOT  =      0    no. of reboots
   NMIN     =      0    reboot dimension
   EREF     =   0.00    reference energy to select bands
   IMIX   =      4    mixing-type and parameters
     AMIX     =   0.40;   BMIX     =  1.00
     AMIX_MAG =   1.60;   BMIX_MAG =  1.00
     AMIN     =   0.10
     WC   =   100.;   INIMIX=   1;  MIXPRE=   1;  MAXMIX= -45

 Intra band minimization:
   WEIMIN = 0.0000     energy-eigenvalue tresh-hold
   EBREAK =  0.52E-07  absolut break condition
   DEPER  =   0.30     relativ break condition  

   TIME   =   0.40     timestep for ELM

  volume/ion in A,a.u.               =      22.69       153.15
  Fermi-wavevector in a.u.,A,eV,Ry     =   1.202760  2.272888 19.682633  1.446633
  Thomas-Fermi vector in A             =   2.338533
 
 Write flags
   LWAVE        =      T    write WAVECAR
   LDOWNSAMPLE  =      F    k-point downsampling of WAVECAR
   LCHARG       =      T    write CHGCAR
   LVTOT        =      T    write LOCPOT, total local potential
   LVHAR        =      F    write LOCPOT, Hartree potential only
   LELF         =      F    write electronic localiz. function (ELF)
   LORBIT       =     11    0 simple, 1 ext, 2 COOP (PROOUT), +10 PAW based schemes


 Dipole corrections
   LMONO  =      F    monopole corrections only (constant potential shift)
   LDIPOL =      F    correct potential (dipole corrections)
   IDIPOL =      0    1-x, 2-y, 3-z, 4-all directions 
   EPSILON=  1.0000000 bulk dielectric constant

 Exchange correlation treatment:
   GGA     =    PS    GGA type
   LEXCH   =    14    internal setting for exchange type
   LIBXC   =     F    Libxc                    
   VOSKOWN =     0    Vosko Wilk Nusair interpolation
   LHFCALC =     F    Hartree Fock is set to
   LHFONE  =     F    Hartree Fock one center treatment
   AEXX    =    0.0000 exact exchange contribution

 Linear response parameters
   LEPSILON=     F    determine dielectric tensor
   LRPA    =     F    only Hartree local field effects (RPA)
   LNABLA  =     F    use nabla operator in PAW spheres
   LVEL    =     F    velocity operator in full k-point grid
   CSHIFT  =0.1000    complex shift for real part using Kramers Kronig
   OMEGAMAX=  -1.0    maximum frequency
   DEG_THRESHOLD= 0.2000000E-02 threshold for treating states as degnerate
   RTIME   =   -0.100 relaxation time in fs
  (WPLASMAI=    0.000 imaginary part of plasma frequency in eV, 0.658/RTIME)
   DFIELD  = 0.0000000 0.0000000 0.0000000 field for delta impulse in time
 
  Optional k-point grid parameters
   LKPOINTS_OPT  =     F    use optional k-point grid
   KPOINTS_OPT_MODE=     1    mode for optional k-point grid
 
 Orbital magnetization related:
   ORBITALMAG=     F  switch on orbital magnetization
   LCHIMAG   =     F  perturbation theory with respect to B field
   DQ        =  0.001000  dq finite difference perturbation B field
   LLRAUG    =     F  two centre corrections for induced B field
   LBONE     =     F  B-component reconstruction in AE one-centre
   LVGVCALC  =     T  calculate vGv susceptibility
   LVGVAPPL  =     F  apply vGv susceptibility instead of pGv for G=0

 Random number generation:
   RANDOM_GENERATOR = DEFAULT
   PCG_SEED         = not used


--------------------------------------------------------------------------------------------------------


 Static calculation
 charge density and potential will be updated during run
 spin polarized calculation
 RMM-DIIS sequential band-by-band and
  variant of blocked Davidson during initial phase
 perform sub-space diagonalisation
    before iterative eigenvector-optimisation
 modified Broyden-mixing scheme, WC =      100.0
 initial mixing is a Kerker type mixing with AMIX =  0.4000 and BMIX =      1.0000
 Hartree-type preconditioning will be used
 using additional bands           12
 reciprocal scheme for non local part
 use partial core corrections
 calculate Harris-corrections to forces 
   (improved forces if not selfconsistent)
 use gradient corrections 
 use of overlap-Matrix (Vanderbilt PP)
 Fermi weights with tetrahedron method with Bloechl corrections


--------------------------------------------------------------------------------------------------------


  energy-cutoff  :      680.00
  volume of cell :      181.56
      direct lattice vectors                 reciprocal lattice vectors
     5.662477870  0.000000000  0.000000000     0.176601132  0.000000000  0.000000000
    -0.000000000  5.662477870  0.000000000     0.000000000  0.176601132  0.000000000
     0.000000000  0.000000000  5.662477870    -0.000000000 -0.000000000  0.176601132

  length of vectors
     5.662477870  5.662477870  5.662477870     0.176601132  0.176601132  0.176601132


 
 k-points in units of 2pi/SCALE and weight: pymatgen with grid density = 700 / numbe
   0.00000000  0.00000000  0.00000000       0.016
   0.04415028  0.00000000  0.00000000       0.094
   0.08830057  0.00000000  0.00000000       0.047
   0.04415028  0.04415028  0.00000000       0.188
   0.08830057  0.04415028  0.00000000       0.188
   0.08830057  0.08830057  0.00000000       0.047
   0.04415028  0.04415028  0.04415028       0.125
   0.08830057  0.04415028  0.04415028       0.188
   0.08830057  0.08830057  0.04415028       0.094
   0.08830057  0.08830057  0.08830057       0.016
 
 k-points in reciprocal lattice and weights: pymatgen with grid density = 700 / numbe
   0.00000000  0.00000000  0.00000000       0.016
   0.25000000  0.00000000  0.00000000       0.094
   0.50000000  0.00000000  0.00000000       0.047
   0.25000000  0.25000000  0.00000000       0.188
   0.50000000  0.25000000  0.00000000       0.188
   0.50000000  0.50000000  0.00000000       0.047
   0.25000000  0.25000000  0.25000000       0.125
   0.50000000  0.25000000  0.25000000       0.188
   0.50000000  0.50000000  0.25000000       0.094
   0.50000000  0.50000000  0.50000000       0.016
 
 position of ions in fractional coordinates (direct lattice) 
   0.00000000  0.00000000  0.00000000
   0.50000000  0.50000000  0.00000000
   0.50000000  0.00000000  0.50000000
   0.00000000  0.50000000  0.50000000
   0.25000000  0.25000000  0.25000000
   0.25000000  0.75000000  0.75000000
   0.75000000  0.75000000  0.25000000
   0.75000000  0.25000000  0.75000000
 
 position of ions in cartesian coordinates  (Angst):
   0.00000000  0.00000000  0.00000000
   2.83123894  2.83123894  0.00000000
   2.83123894  0.00000000  2.83123894
  -0.00000000  2.83123894  2.83123894
   1.41561947  1.41561947  1.41561947
   1.41561947  4.24685840  4.24685840
   4.24685840  4.24685840  1.41561947
   4.24685840  1.41561947  4.24685840
 


--------------------------------------------------------------------------------------------------------


 k-point   1 :   0.0000 0.0000 0.0000  plane waves:    7153
 k-point   2 :   0.2500 0.0000 0.0000  plane waves:    7268
 k-point   3 :   0.5000 0.0000 0.0000  plane waves:    7256
 k-point   4 :   0.2500 0.2500 0.0000  plane waves:    7303
 k-point   5 :   0.5000 0.2500 0.0000  plane waves:    7336
 k-point   6 :   0.5000 0.5000 0.0000  plane waves:    7316
 k-point   7 :   0.2500 0.2500 0.2500  plane waves:    7310
 k-point   8 :   0.5000 0.2500 0.2500  plane waves:    7332
 k-point   9 :   0.5000 0.5000 0.2500  plane waves:    7292
 k-point  10 :   0.5000 0.5000 0.5000  plane waves:    7400

 maximum and minimum number of plane-waves per node :       764      704

 maximum number of plane-waves:      7400
 maximum index in each direction: 
   IXMAX=   12   IYMAX=   12   IZMAX=   12
   IXMIN=  -12   IYMIN=  -12   IZMIN=  -12


 parallel 3D FFT for wavefunctions:
    minimum data exchange during FFTs selected (reduces bandwidth)
 parallel 3D FFT for charge:
    minimum data exchange during FFTs selected (reduces bandwidth)


 total amount of memory used by VASP MPI-rank0    35609. kBytes
=======================================================================

   base      :      30000. kBytes
   nonl-proj :       2237. kBytes
   fftplans  :        680. kBytes
   grid      :       1678. kBytes
   one-center:         31. kBytes
   wavefun   :        983. kBytes
 
     INWAV:  cpu time      0.0000: real time      0.0001
 Broyden mixing: mesh for mixing (old mesh)
   NGX = 25   NGY = 25   NGZ = 25
  (NGX  = 96   NGY  = 96   NGZ  = 96)
  gives a total of  15625 points

 initial charge density was supplied:
 charge density of overlapping atoms calculated
 number of electron      72.0000000 magnetization       0.0000000
 keeping initial charge density in first step


--------------------------------------------------------------------------------------------------------


 Maximum index for augmentation-charges          965 (set IRDMAX)


--------------------------------------------------------------------------------------------------------


 First call to EWALD:  gamma=   0.313
 Maximum number of real-space cells 3x 3x 3
 Maximum number of reciprocal cells 3x 3x 3

    FEWALD:  cpu time      0.0036: real time      0.0038


--------------------------------------- Ionic step        1  -------------------------------------------




--------------------------------------- Iteration      1(   1)  ---------------------------------------


    POTLOK:  cpu time      0.0320: real time      0.0834
    SETDIJ:  cpu time      0.4393: real time      0.4411
     EDDAV:  cpu time      0.5952: real time      1.9920
 BZINTS: Fermi energy:   18.581398;   72.000000 electrons
         Band energy: 0.154966E+03;  BLOECHL correction:   -0.621354
       DOS:  cpu time      0.0079: real time      0.0086
    --------------------------------------------
      LOOP:  cpu time      1.0744: real time      2.5251

 eigenvalue-minimisations  :  2040
 total energy-change (2. order) : 0.5900741E+03  (-0.3824397E+04)
 number of electron      72.0000000 magnetization       0.0000000
 augmentation part       72.0000000 magnetization       0.0000000

 Free energy of the ion-electron system (eV)
  ---------------------------------------------------
  alpha Z        PSCENC =       240.03196352
  Ewald energy   TEWEN  =     -5054.07144589
  -Hartree energ DENC   =     -2907.65291757
  -exchange      EXHF   =         0.00000000
  -V(xc)+E(xc)   XCENC  =       135.59603044
  PAW double counting   =      6994.57723948    -8244.91655855
  entropy T*S    EENTRO =         0.00000000
  eigenvalues    EBANDS =       154.96614672
  atomic energy  EATOM  =      9271.54367517
  Solvation  Ediel_sol  =         0.00000000
  ---------------------------------------------------
  free energy    TOTEN  =       590.07413330 eV

  energy without entropy =      590.07413330  energy(sigma->0) =      590.07413330


--------------------------------------------------------------------------------------------------------




--------------------------------------- Iteration      1(   2)  ---------------------------------------


     EDDAV:  cpu time      0.4358: real time      0.4434
 BZINTS: Fermi energy:    6.225534;   72.000000 electrons
         Band energy:-0.389282E+03;  BLOECHL correction:   -0.080609
       DOS:  cpu time      0.0044: real time      0.0044
    --------------------------------------------
      LOOP:  cpu time      0.4403: real time      0.4479

 eigenvalue-minimisations  :  1992
 total energy-change (2. order) :-0.5442481E+03  (-0.5161886E+03)
 number of electron      72.0000000 magnetization       0.0000000
 augmentation part       72.0000000 magnetization       0.0000000

 Free energy of the ion-electron system (eV)
  ---------------------------------------------------
  alpha Z        PSCENC =       240.03196352
  Ewald energy   TEWEN  =     -5054.07144589
  -Hartree energ DENC   =     -2907.65291757
  -exchange      EXHF   =         0.00000000
  -V(xc)+E(xc)   XCENC  =       135.59603044
  PAW double counting   =      6994.57723948    -8244.91655855
  entropy T*S    EENTRO =         0.00000000
  eigenvalues    EBANDS =      -389.28191710
  atomic energy  EATOM  =      9271.54367517
  Solvation  Ediel_sol  =         0.00000000
  ---------------------------------------------------
  free energy    TOTEN  =        45.82606948 eV

  energy without entropy =       45.82606948  energy(sigma->0) =       45.82606948


--------------------------------------------------------------------------------------------------------




--------------------------------------- Iteration      1(   3)  ---------------------------------------


     EDDAV:  cpu time      0.4348: real time      0.4647
 BZINTS: Fermi energy:    3.558655;   72.000000 electrons
         Band energy:-0.468582E+03;  BLOECHL correction:    0.000000
       DOS:  cpu time      0.0022: real time      0.0022
    --------------------------------------------
      LOOP:  cpu time      0.4370: real time      0.4669

 eigenvalue-minimisations  :  2304
 total energy-change (2. order) :-0.7930049E+02  (-0.7735240E+02)
 number of electron      72.0000000 magnetization       0.0000000
 augmentation part       72.0000000 magnetization       0.0000000

 Free energy of the ion-electron system (eV)
  ---------------------------------------------------
  alpha Z        PSCENC =       240.03196352
  Ewald energy   TEWEN  =     -5054.07144589
  -Hartree energ DENC   =     -2907.65291757
  -exchange      EXHF   =         0.00000000
  -V(xc)+E(xc)   XCENC  =       135.59603044
  PAW double counting   =      6994.57723948    -8244.91655855
  entropy T*S    EENTRO =         0.00000000
  eigenvalues    EBANDS =      -468.58240737
  atomic energy  EATOM  =      9271.54367517
  Solvation  Ediel_sol  =         0.00000000
  ---------------------------------------------------
  free energy    TOTEN  =       -33.47442079 eV

  energy without entropy =      -33.47442079  energy(sigma->0) =      -33.47442079


--------------------------------------------------------------------------------------------------------




--------------------------------------- Iteration      1(   4)  ---------------------------------------


     EDDAV:  cpu time      0.4379: real time      0.4607
 BZINTS: Fermi energy:    3.295777;   72.000000 electrons
         Band energy:-0.472162E+03;  BLOECHL correction:    0.000000
       DOS:  cpu time      0.0017: real time      0.0017
    --------------------------------------------
      LOOP:  cpu time      0.4396: real time      0.4624

 eigenvalue-minimisations  :  2316
 total energy-change (2. order) :-0.3579200E+01  (-0.3569388E+01)
 number of electron      72.0000000 magnetization       0.0000000
 augmentation part       72.0000000 magnetization       0.0000000

 Free energy of the ion-electron system (eV)
  ---------------------------------------------------
  alpha Z        PSCENC =       240.03196352
  Ewald energy   TEWEN  =     -5054.07144589
  -Hartree energ DENC   =     -2907.65291757
  -exchange      EXHF   =         0.00000000
  -V(xc)+E(xc)   XCENC  =       135.59603044
  PAW double counting   =      6994.57723948    -8244.91655855
  entropy T*S    EENTRO =         0.00000000
  eigenvalues    EBANDS =      -472.16160689
  atomic energy  EATOM  =      9271.54367517
  Solvation  Ediel_sol  =         0.00000000
  ---------------------------------------------------
  free energy    TOTEN  =       -37.05362031 eV

  energy without entropy =      -37.05362031  energy(sigma->0) =      -37.05362031


--------------------------------------------------------------------------------------------------------




--------------------------------------- Iteration      1(   5)  ---------------------------------------


     EDDAV:  cpu time      0.4218: real time      0.4382
 BZINTS: Fermi energy:    3.354454;   72.000000 electrons
         Band energy:-0.472246E+03;  BLOECHL correction:    0.000000
       DOS:  cpu time      0.0021: real time      0.0021
    CHARGE:  cpu time      0.0633: real time      0.0672
    MIXING:  cpu time      0.0077: real time      0.0088
    --------------------------------------------
      LOOP:  cpu time      0.4950: real time      0.5164

 eigenvalue-minimisations  :  2256
 total energy-change (2. order) :-0.8407481E-01  (-0.8405315E-01)
 number of electron      71.9999994 magnetization      -0.0000000
 augmentation part       30.3442143 magnetization      -0.0005625

 Broyden mixing:
  rms(total) = 0.59285E+00    rms(broyden)= 0.59285E+00
  rms(prec ) = 0.10060E+01
  weight for this iteration     100.00

 Free energy of the ion-electron system (eV)
  ---------------------------------------------------
  alpha Z        PSCENC =       240.03196352
  Ewald energy   TEWEN  =     -5054.07144589
  -Hartree energ DENC   =     -2907.65291757
  -exchange      EXHF   =         0.00000000
  -V(xc)+E(xc)   XCENC  =       135.59603044
  PAW double counting   =      6994.57723948    -8244.91655855
  entropy T*S    EENTRO =         0.00000000
  eigenvalues    EBANDS =      -472.24568170
  atomic energy  EATOM  =      9271.54367517
  Solvation  Ediel_sol  =         0.00000000
  ---------------------------------------------------
  free energy    TOTEN  =       -37.13769512 eV

  energy without entropy =      -37.13769512  energy(sigma->0) =      -37.13769512


--------------------------------------------------------------------------------------------------------




--------------------------------------- Iteration      1(   6)  ---------------------------------------


    POTLOK:  cpu time      0.0163: real time      0.0312
    SETDIJ:  cpu time      0.4738: real time      0.4750
    EDDIAG:  cpu time      0.1291: real time      0.1301
  RMM-DIIS:  cpu time      0.2095: real time      0.2115
    ORTHCH:  cpu time      0.0158: real time      0.0158
 BZINTS: Fermi energy:    3.589542;   72.000000 electrons
         Band energy:-0.494611E+03;  BLOECHL correction:    0.000000
       DOS:  cpu time      0.0024: real time      0.0024
    CHARGE:  cpu time      0.0485: real time      0.0486
    MIXING:  cpu time      0.0055: real time      0.0266
    --------------------------------------------
      LOOP:  cpu time      0.9008: real time      0.9412

 eigenvalue-minimisations  :  2665
 total energy-change (2. order) : 0.6611217E+00  (-0.1033158E+00)
 number of electron      71.9999994 magnetization      -0.0000000
 augmentation part       30.4906374 magnetization      -0.0003655

 Broyden mixing:
  rms(total) = 0.34053E+00    rms(broyden)= 0.34053E+00
  rms(prec ) = 0.52673E+00
  weight for this iteration     100.00

 eigenvalues of (default mixing * dielectric matrix)
  average eigenvalue GAMMA=   2.1305
  2.1305

 Free energy of the ion-electron system (eV)
  ---------------------------------------------------
  alpha Z        PSCENC =       240.03196352
  Ewald energy   TEWEN  =     -5054.07144589
  -Hartree energ DENC   =     -2890.57527024
  -exchange      EXHF   =         0.00000000
  -V(xc)+E(xc)   XCENC  =       135.36760922
  PAW double counting   =      7352.28301081    -8596.44550888
  entropy T*S    EENTRO =         0.00000000
  eigenvalues    EBANDS =      -494.61060713
  atomic energy  EATOM  =      9271.54367517
  Solvation  Ediel_sol  =         0.00000000
  ---------------------------------------------------
  free energy    TOTEN  =       -36.47657342 eV

  energy without entropy =      -36.47657342  energy(sigma->0) =      -36.47657342


--------------------------------------------------------------------------------------------------------




--------------------------------------- Iteration      1(   7)  ---------------------------------------


    POTLOK:  cpu time      0.0209: real time      0.0331
    SETDIJ:  cpu time      0.4752: real time      0.4763
    EDDIAG:  cpu time      0.1210: real time      0.1213
  RMM-DIIS:  cpu time      0.1260: real time      0.1263
    ORTHCH:  cpu time      0.0153: real time      0.0153
 BZINTS: Fermi energy:    3.783672;   72.000000 electrons
         Band energy:-0.494860E+03;  BLOECHL correction:    0.000000
       DOS:  cpu time      0.0024: real time      0.0024
    CHARGE:  cpu time      0.0459: real time      0.0460
    MIXING:  cpu time      0.0007: real time      0.0041
    --------------------------------------------
      LOOP:  cpu time      0.8073: real time      0.8247

 eigenvalue-minimisations  :  2583
 total energy-change (2. order) : 0.1249876E+00  (-0.5540921E-01)
 number of electron      71.9999994 magnetization       0.0000000
 augmentation part       30.5455397 magnetization       0.0000781

 Broyden mixing:
  rms(total) = 0.10212E+00    rms(broyden)= 0.10212E+00
  rms(prec ) = 0.15250E+00
  weight for this iteration     100.00

 eigenvalues of (default mixing * dielectric matrix)
  average eigenvalue GAMMA=   1.8865
  1.3132  2.4598

 Free energy of the ion-electron system (eV)
  ---------------------------------------------------
  alpha Z        PSCENC =       240.03196352
  Ewald energy   TEWEN  =     -5054.07144589
  -Hartree energ DENC   =     -2886.07798833
  -exchange      EXHF   =         0.00000000
  -V(xc)+E(xc)   XCENC  =       135.60282960
  PAW double counting   =      7834.44361024    -9082.96458065
  entropy T*S    EENTRO =         0.00000000
  eigenvalues    EBANDS =      -494.85964947
  atomic energy  EATOM  =      9271.54367517
  Solvation  Ediel_sol  =         0.00000000
  ---------------------------------------------------
  free energy    TOTEN  =       -36.35158582 eV

  energy without entropy =      -36.35158582  energy(sigma->0) =      -36.35158582


--------------------------------------------------------------------------------------------------------




--------------------------------------- Iteration      1(   8)  ---------------------------------------


    POTLOK:  cpu time      0.0180: real time      0.0326
    SETDIJ:  cpu time      0.4682: real time      0.4693
    EDDIAG:  cpu time      0.1213: real time      0.1216
  RMM-DIIS:  cpu time      0.1438: real time      0.1442
    ORTHCH:  cpu time      0.0165: real time      0.0165
 BZINTS: Fermi energy:    3.768047;   72.000000 electrons
         Band energy:-0.487384E+03;  BLOECHL correction:   -0.000000
       DOS:  cpu time      0.0025: real time      0.0025
    CHARGE:  cpu time      0.0501: real time      0.0502
    MIXING:  cpu time      0.0008: real time      0.0044
    --------------------------------------------
      LOOP:  cpu time      0.8212: real time      0.8414

 eigenvalue-minimisations  :  2700
 total energy-change (2. order) : 0.8076093E-02  (-0.6270633E-02)
 number of electron      71.9999994 magnetization      -0.0000000
 augmentation part       30.5245097 magnetization       0.0000008

 Broyden mixing:
  rms(total) = 0.21405E-01    rms(broyden)= 0.21405E-01
  rms(prec ) = 0.37299E-01
  weight for this iteration     100.00

 eigenvalues of (default mixing * dielectric matrix)
  average eigenvalue GAMMA=   1.7410
  2.3944  1.2662  1.5623

 Free energy of the ion-electron system (eV)
  ---------------------------------------------------
  alpha Z        PSCENC =       240.03196352
  Ewald energy   TEWEN  =     -5054.07144589
  -Hartree energ DENC   =     -2889.53643509
  -exchange      EXHF   =         0.00000000
  -V(xc)+E(xc)   XCENC  =       135.79549082
  PAW double counting   =      8013.62598673    -9266.34828073
  entropy T*S    EENTRO =         0.00000000
  eigenvalues    EBANDS =      -487.38446424
  atomic energy  EATOM  =      9271.54367517
  Solvation  Ediel_sol  =         0.00000000
  ---------------------------------------------------
  free energy    TOTEN  =       -36.34350972 eV

  energy without entropy =      -36.34350972  energy(sigma->0) =      -36.34350972


--------------------------------------------------------------------------------------------------------




--------------------------------------- Iteration      1(   9)  ---------------------------------------


    POTLOK:  cpu time      0.0168: real time      0.0337
    SETDIJ:  cpu time      0.4696: real time      0.4707
    EDDIAG:  cpu time      0.1138: real time      0.1141
  RMM-DIIS:  cpu time      0.1374: real time      0.1377
    ORTHCH:  cpu time      0.0151: real time      0.0151
 BZINTS: Fermi energy:    3.848416;   72.000000 electrons
         Band energy:-0.488109E+03;  BLOECHL correction:    0.000000
       DOS:  cpu time      0.0025: real time      0.0025
    CHARGE:  cpu time      0.0635: real time      0.0637
    MIXING:  cpu time      0.0006: real time      0.0006
    --------------------------------------------
      LOOP:  cpu time      0.8192: real time      0.8380

 eigenvalue-minimisations  :  2881
 total energy-change (2. order) :-0.4922488E-03  (-0.1032055E-02)
 number of electron      71.9999994 magnetization       0.0000000
 augmentation part       30.5289132 magnetization       0.0000663

 Broyden mixing:
  rms(total) = 0.10431E-01    rms(broyden)= 0.10431E-01
  rms(prec ) = 0.12925E-01
  weight for this iteration     100.00

 eigenvalues of (default mixing * dielectric matrix)
  average eigenvalue GAMMA=   1.6615
  2.0771  2.0771  1.1195  1.3725

 Free energy of the ion-electron system (eV)
  ---------------------------------------------------
  alpha Z        PSCENC =       240.03196352
  Ewald energy   TEWEN  =     -5054.07144589
  -Hartree energ DENC   =     -2889.36616362
  -exchange      EXHF   =         0.00000000
  -V(xc)+E(xc)   XCENC  =       135.80028643
  PAW double counting   =      8037.27641960    -9289.44967668
  entropy T*S    EENTRO =         0.00000000
  eigenvalues    EBANDS =      -488.10906050
  atomic energy  EATOM  =      9271.54367517
  Solvation  Ediel_sol  =         0.00000000
  ---------------------------------------------------
  free energy    TOTEN  =       -36.34400197 eV

  energy without entropy =      -36.34400197  energy(sigma->0) =      -36.34400197


--------------------------------------------------------------------------------------------------------




--------------------------------------- Iteration      1(  10)  ---------------------------------------


    POTLOK:  cpu time      0.0182: real time      0.0366
    SETDIJ:  cpu time      0.4680: real time      0.4691
    EDDIAG:  cpu time      0.1210: real time      0.1213
  RMM-DIIS:  cpu time      0.1665: real time      0.1669
    ORTHCH:  cpu time      0.0151: real time      0.0151
 BZINTS: Fermi energy:    3.845022;   72.000000 electrons
         Band energy:-0.488367E+03;  BLOECHL correction:    0.000000
       DOS:  cpu time      0.0025: real time      0.0025
    CHARGE:  cpu time      0.0556: real time      0.0557
    MIXING:  cpu time      0.0005: real time      0.0005
    --------------------------------------------
      LOOP:  cpu time      0.8474: real time      0.8678

 eigenvalue-minimisations  :  2983
 total energy-change (2. order) :-0.3315639E-03  (-0.1851646E-03)
 number of electron      71.9999994 magnetization       0.0000000
 augmentation part       30.5290044 magnetization      -0.0000474

 Broyden mixing:
  rms(total) = 0.39584E-02    rms(broyden)= 0.39584E-02
  rms(prec ) = 0.60580E-02
  weight for this iteration     100.00

 eigenvalues of (default mixing * dielectric matrix)
  average eigenvalue GAMMA=   1.8501
  2.8933  2.8933  1.5530  1.2422  0.6687

 Free energy of the ion-electron system (eV)
  ---------------------------------------------------
  alpha Z        PSCENC =       240.03196352
  Ewald energy   TEWEN  =     -5054.07144589
  -Hartree energ DENC   =     -2889.44809887
  -exchange      EXHF   =         0.00000000
  -V(xc)+E(xc)   XCENC  =       135.80384723
  PAW double counting   =      8019.29037430    -9271.12760378
  entropy T*S    EENTRO =         0.00000000
  eigenvalues    EBANDS =      -488.36704521
  atomic energy  EATOM  =      9271.54367517
  Solvation  Ediel_sol  =         0.00000000
  ---------------------------------------------------
  free energy    TOTEN  =       -36.34433354 eV

  energy without entropy =      -36.34433354  energy(sigma->0) =      -36.34433354


--------------------------------------------------------------------------------------------------------




--------------------------------------- Iteration      1(  11)  ---------------------------------------


    POTLOK:  cpu time      0.0180: real time      0.0375
    SETDIJ:  cpu time      0.4706: real time      0.4717
    EDDIAG:  cpu time      0.1229: real time      0.1231
  RMM-DIIS:  cpu time      0.1321: real time      0.1324
    ORTHCH:  cpu time      0.0155: real time      0.0156
 BZINTS: Fermi energy:    3.846538;   72.000000 electrons
         Band energy:-0.488172E+03;  BLOECHL correction:    0.000000
       DOS:  cpu time      0.0025: real time      0.0025
    CHARGE:  cpu time      0.0463: real time      0.0464
    MIXING:  cpu time      0.0005: real time      0.0005
    --------------------------------------------
      LOOP:  cpu time      0.8083: real time      0.8297

 eigenvalue-minimisations  :  2648
 total energy-change (2. order) :-0.5769513E-04  (-0.3341915E-04)
 number of electron      71.9999994 magnetization       0.0000000
 augmentation part       30.5282729 magnetization      -0.0000170

 Broyden mixing:
  rms(total) = 0.15394E-02    rms(broyden)= 0.15394E-02
  rms(prec ) = 0.25784E-02
  weight for this iteration     100.00

 eigenvalues of (default mixing * dielectric matrix)
  average eigenvalue GAMMA=   1.6977
  3.0666  2.6729  1.6785  1.2341  0.8949  0.6391

 Free energy of the ion-electron system (eV)
  ---------------------------------------------------
  alpha Z        PSCENC =       240.03196352
  Ewald energy   TEWEN  =     -5054.07144589
  -Hartree energ DENC   =     -2889.58623203
  -exchange      EXHF   =         0.00000000
  -V(xc)+E(xc)   XCENC  =       135.81406901
  PAW double counting   =      8018.66506783    -9270.56907526
  entropy T*S    EENTRO =         0.00000000
  eigenvalues    EBANDS =      -488.17241358
  atomic energy  EATOM  =      9271.54367517
  Solvation  Ediel_sol  =         0.00000000
  ---------------------------------------------------
  free energy    TOTEN  =       -36.34439123 eV

  energy without entropy =      -36.34439123  energy(sigma->0) =      -36.34439123


--------------------------------------------------------------------------------------------------------




--------------------------------------- Iteration      1(  12)  ---------------------------------------


    POTLOK:  cpu time      0.0175: real time      0.0341
    SETDIJ:  cpu time      0.4745: real time      0.4757
    EDDIAG:  cpu time      0.1223: real time      0.1226
  RMM-DIIS:  cpu time      0.1078: real time      0.1080
    ORTHCH:  cpu time      0.0154: real time      0.0155
 BZINTS: Fermi energy:    3.846846;   72.000000 electrons
         Band energy:-0.488109E+03;  BLOECHL correction:    0.000000
       DOS:  cpu time      0.0024: real time      0.0024
    --------------------------------------------
      LOOP:  cpu time      0.7399: real time      0.7583

 eigenvalue-minimisations  :  2086
 total energy-change (2. order) :-0.1581394E-05  (-0.6992843E-05)
 number of electron      71.9999994 magnetization       0.0000000
 augmentation part       30.5282729 magnetization      -0.0000170

 Free energy of the ion-electron system (eV)
  ---------------------------------------------------
  alpha Z        PSCENC =       240.03196352
  Ewald energy   TEWEN  =     -5054.07144589
  -Hartree energ DENC   =     -2889.59929725
  -exchange      EXHF   =         0.00000000
  -V(xc)+E(xc)   XCENC  =       135.81614987
  PAW double counting   =      8020.90429218    -9272.86120659
  entropy T*S    EENTRO =         0.00000000
  eigenvalues    EBANDS =      -488.10852382
  atomic energy  EATOM  =      9271.54367517
  Solvation  Ediel_sol  =         0.00000000
  ---------------------------------------------------
  free energy    TOTEN  =       -36.34439281 eV

  energy without entropy =      -36.34439281  energy(sigma->0) =      -36.34439281


--------------------------------------------------------------------------------------------------------




 average (electrostatic) potential at core
  the test charge radii are     1.0314  1.0621
  (the norm of the test charge is              1.0000)
       1 -66.2667       2 -66.2667       3 -66.2667       4 -66.2667       5 -50.2508
       6 -50.2508       7 -50.2508       8 -50.2508
 
 
 
 E-fermi :   3.8468     XC(G=0):  -9.7512     alpha+bet : -9.6917

 Fermi energy:         3.8468460501

 spin component 1

 k-point     1 :       0.0000    0.0000    0.0000
  band No.  band energies     occupation 
      1     -11.1193      1.00000
      2     -11.1193      1.00000
      3     -11.1193      1.00000
      4     -11.0080      1.00000
      5     -11.0080      1.00000
      6     -11.0080      1.00000
      7     -10.9592      1.00000
      8     -10.9592      1.00000
      9     -10.9592      1.00000
     10     -10.9592      1.00000
     11     -10.9592      1.00000
     12     -10.9592      1.00000
     13     -10.9549      1.00000
     14     -10.9549      1.00000
     15     -10.9549      1.00000
     16     -10.9292      1.00000
     17     -10.9292      1.00000
     18     -10.9164      1.00000
     19     -10.9164      1.00000
     20     -10.9164      1.00000
     21      -8.9566      1.00000
     22      -6.4548      1.00000
     23      -6.4548      1.00000
     24      -6.4548      1.00000
     25      -3.0672      1.00000
     26      -3.0672      1.00000
     27      -3.0672      1.00000
     28       1.0805      1.00000
     29       1.0805      1.00000
     30       1.0805      1.00000
     31       1.0805      1.00000
     32       1.0805      1.00000
     33       1.0805      1.00000
     34       3.7625      1.00000
     35       3.7625      1.00000
     36       3.7625      1.00000
     37       4.1827      0.00000
     38       5.1199      0.00000
     39       5.1199      0.00000
     40       5.1199      0.00000
     41       5.3362      0.00000
     42       5.3362      0.00000
     43       5.3362      0.00000
     44       7.4502      0.00000
     45       7.4502      0.00000
     46       7.4502      0.00000
     47      11.1372      0.00000
     48      13.8601      0.00000

 k-point     2 :       0.2500    0.0000    0.0000
  band No.  band energies     occupation 
      1     -11.1133      1.00000
      2     -11.1133      1.00000
      3     -11.1064      1.00000
      4     -11.0292      1.00000
      5     -11.0011      1.00000
      6     -11.0011      1.00000
      7     -10.9679      1.00000
      8     -10.9679      1.00000
      9     -10.9666      1.00000
     10     -10.9666      1.00000
     11     -10.9624      1.00000
     12     -10.9624      1.00000
     13     -10.9506      1.00000
     14     -10.9475      1.00000
     15     -10.9475      1.00000
     16     -10.9321      1.00000
     17     -10.9273      1.00000
     18     -10.9199      1.00000
     19     -10.9199      1.00000
     20     -10.9183      1.00000
     21      -8.7135      1.00000
     22      -7.0697      1.00000
     23      -6.4258      1.00000
     24      -6.4258      1.00000
     25      -2.9792      1.00000
     26      -2.9792      1.00000
     27      -2.1621      1.00000
     28       0.6071      1.00000
     29       0.6071      1.00000
     30       0.7018      1.00000
     31       0.7018      1.00000
     32       1.3370      1.00000
     33       1.3370      1.00000
     34       1.7402      1.00000
     35       3.1018      1.00000
     36       3.1018      1.00000
     37       5.1313      0.00000
     38       5.9656      0.00000
     39       6.0627      0.00000
     40       6.2250      0.00000
     41       6.2250      0.00000
     42       6.4480      0.00000
     43       6.4480      0.00000
     44       6.7807      0.00000
     45       8.4102      0.00000
     46       8.4102      0.00000
     47      11.7003      0.00000
     48      11.8580      0.00000

 k-point     3 :       0.5000    0.0000    0.0000
  band No.  band energies     occupation 
      1     -11.1064      1.00000
      2     -11.1064      1.00000
      3     -11.0716      1.00000
      4     -11.0716      1.00000
      5     -10.9842      1.00000
      6     -10.9842      1.00000
      7     -10.9842      1.00000
      8     -10.9842      1.00000
      9     -10.9774      1.00000
     10     -10.9774      1.00000
     11     -10.9638      1.00000
     12     -10.9638      1.00000
     13     -10.9408      1.00000
     14     -10.9408      1.00000
     15     -10.9402      1.00000
     16     -10.9402      1.00000
     17     -10.9252      1.00000
     18     -10.9252      1.00000
     19     -10.9228      1.00000
     20     -10.9228      1.00000
     21      -8.0300      1.00000
     22      -8.0300      1.00000
     23      -6.3962      1.00000
     24      -6.3962      1.00000
     25      -2.8793      1.00000
     26      -2.8793      1.00000
     27      -0.3479      1.00000
     28      -0.3479      1.00000
     29       0.2088      1.00000
     30       0.2088      1.00000
     31       0.3997      1.00000
     32       0.3997      1.00000
     33       2.0678      1.00000
     34       2.0678      1.00000
     35       2.0678      1.00000
     36       2.0677      1.00000
     37       5.6626      0.00000
     38       5.6626      0.00000
     39       6.9473      0.00000
     40       6.9473      0.00000
     41       8.3347      0.00000
     42       8.3348      0.00000
     43       8.3879      0.00000
     44       8.3879      0.00000
     45       9.0903      0.00000
     46       9.0907      0.00000
     47       9.6988      0.00000
     48       9.7142      0.00000

 k-point     4 :       0.2500    0.2500    0.0000
  band No.  band energies     occupation 
      1     -11.1079      1.00000
      2     -11.1024      1.00000
      3     -11.1024      1.00000
      4     -11.0407      1.00000
      5     -11.0005      1.00000
      6     -10.9971      1.00000
      7     -10.9742      1.00000
      8     -10.9742      1.00000
      9     -10.9730      1.00000
     10     -10.9687      1.00000
     11     -10.9687      1.00000
     12     -10.9660      1.00000
     13     -10.9448      1.00000
     14     -10.9448      1.00000
     15     -10.9432      1.00000
     16     -10.9314      1.00000
     17     -10.9278      1.00000
     18     -10.9226      1.00000
     19     -10.9207      1.00000
     20     -10.9207      1.00000
     21      -8.4819      1.00000
     22      -6.9554      1.00000
     23      -6.9554      1.00000
     24      -6.4908      1.00000
     25      -2.8795      1.00000
     26      -2.2972      1.00000
     27      -2.2972      1.00000
     28      -0.1186      1.00000
     29       0.6001      1.00000
     30       0.7051      1.00000
     31       0.7051      1.00000
     32       1.2759      1.00000
     33       1.2759      1.00000
     34       1.5008      1.00000
     35       2.3891      1.00000
     36       3.4836      1.00000
     37       5.6322      0.00000
     38       5.9939      0.00000
     39       6.3257      0.00000
     40       6.3257      0.00000
     41       6.8799      0.00000
     42       6.8799      0.00000
     43       7.7573      0.00000
     44       7.9251      0.00000
     45       8.3221      0.00000
     46       9.0952      0.00000
     47       9.9579      0.00000
     48       9.9580      0.00000

 k-point     5 :       0.5000    0.2500    0.0000
  band No.  band energies     occupation 
      1     -11.1000      1.00000
      2     -11.1000      1.00000
      3     -11.0735      1.00000
      4     -11.0735      1.00000
      5     -10.9877      1.00000
      6     -10.9877      1.00000
      7     -10.9849      1.00000
      8     -10.9849      1.00000
      9     -10.9806      1.00000
     10     -10.9806      1.00000
     11     -10.9698      1.00000
     12     -10.9698      1.00000
     13     -10.9372      1.00000
     14     -10.9372      1.00000
     15     -10.9370      1.00000
     16     -10.9370      1.00000
     17     -10.9263      1.00000
     18     -10.9263      1.00000
     19     -10.9241      1.00000
     20     -10.9241      1.00000
     21      -7.8358      1.00000
     22      -7.8358      1.00000
     23      -6.6990      1.00000
     24      -6.6990      1.00000
     25      -2.6123      1.00000
     26      -2.6123      1.00000
     27      -0.9372      1.00000
     28      -0.9372      1.00000
     29      -0.0653      1.00000
     30      -0.0653      1.00000
     31       1.3507      1.00000
     32       1.3507      1.00000
     33       1.4401      1.00000
     34       1.4401      1.00000
     35       2.4579      1.00000
     36       2.4579      1.00000
     37       6.7511      0.00000
     38       6.7511      0.00000
     39       7.0278      0.00000
     40       7.0278      0.00000
     41       7.2002      0.00000
     42       7.2002      0.00000
     43       8.9125      0.00000
     44       8.9129      0.00000
     45       9.0307      0.00000
     46       9.0314      0.00000
     47       9.1173      0.00000
     48       9.1192      0.00000

 k-point     6 :       0.5000    0.5000    0.0000
  band No.  band energies     occupation 
      1     -11.0847      1.00000
      2     -11.0847      1.00000
      3     -11.0847      1.00000
      4     -11.0847      1.00000
      5     -10.9850      1.00000
      6     -10.9850      1.00000
      7     -10.9850      1.00000
      8     -10.9850      1.00000
      9     -10.9829      1.00000
     10     -10.9829      1.00000
     11     -10.9829      1.00000
     12     -10.9829      1.00000
     13     -10.9311      1.00000
     14     -10.9311      1.00000
     15     -10.9311      1.00000
     16     -10.9311      1.00000
     17     -10.9290      1.00000
     18     -10.9290      1.00000
     19     -10.9290      1.00000
     20     -10.9290      1.00000
     21      -7.3182      1.00000
     22      -7.3182      1.00000
     23      -7.3182      1.00000
     24      -7.3182      1.00000
     25      -1.8957      1.00000
     26      -1.8957      1.00000
     27      -1.8957      1.00000
     28      -1.8957      1.00000
     29       0.3778      1.00000
     30       0.3778      1.00000
     31       0.3778      1.00000
     32       0.3778      1.00000
     33       2.5409      1.00000
     34       2.5409      1.00000
     35       2.5409      1.00000
     36       2.5409      1.00000
     37       6.4229      0.00000
     38       6.4229      0.00000
     39       6.4229      0.00000
     40       6.4229      0.00000
     41       9.2972      0.00000
     42       9.3015      0.00000
     43       9.3205      0.00000
     44       9.3498      0.00000
     45       9.3744      0.00000
     46       9.3897      0.00000
     47       9.4122      0.00000
     48       9.4865      0.00000

 k-point     7 :       0.2500    0.2500    0.2500
  band No.  band energies     occupation 
      1     -11.0994      1.00000
      2     -11.0994      1.00000
      3     -11.0994      1.00000
      4     -11.0512      1.00000
      5     -10.9968      1.00000
      6     -10.9968      1.00000
      7     -10.9782      1.00000
      8     -10.9782      1.00000
      9     -10.9782      1.00000
     10     -10.9729      1.00000
     11     -10.9729      1.00000
     12     -10.9729      1.00000
     13     -10.9402      1.00000
     14     -10.9402      1.00000
     15     -10.9402      1.00000
     16     -10.9289      1.00000
     17     -10.9289      1.00000
     18     -10.9222      1.00000
     19     -10.9222      1.00000
     20     -10.9222      1.00000
     21      -8.2648      1.00000
     22      -6.9046      1.00000
     23      -6.9046      1.00000
     24      -6.9046      1.00000
     25      -2.5229      1.00000
     26      -2.5229      1.00000
     27      -2.5229      1.00000
     28      -0.3976      1.00000
     29       0.5078      1.00000
     30       0.5078      1.00000
     31       0.5078      1.00000
     32       1.7199      1.00000
     33       1.7199      1.00000
     34       1.7199      1.00000
     35       3.0833      1.00000
     36       3.0833      1.00000
     37       5.1336      0.00000
     38       5.8792      0.00000
     39       5.8792      0.00000
     40       5.8792      0.00000
     41       8.3127      0.00000
     42       8.3127      0.00000
     43       8.3962      0.00000
     44       8.3962      0.00000
     45       8.3964      0.00000
     46       9.6246      0.00000
     47       9.8921      0.00000
     48       9.8936      0.00000

 k-point     8 :       0.5000    0.2500    0.2500
  band No.  band energies     occupation 
      1     -11.0961      1.00000
      2     -11.0961      1.00000
      3     -11.0768      1.00000
      4     -11.0768      1.00000
      5     -10.9893      1.00000
      6     -10.9893      1.00000
      7     -10.9864      1.00000
      8     -10.9864      1.00000
      9     -10.9834      1.00000
     10     -10.9834      1.00000
     11     -10.9758      1.00000
     12     -10.9758      1.00000
     13     -10.9337      1.00000
     14     -10.9337      1.00000
     15     -10.9336      1.00000
     16     -10.9336      1.00000
     17     -10.9257      1.00000
     18     -10.9257      1.00000
     19     -10.9242      1.00000
     20     -10.9242      1.00000
     21      -7.6698      1.00000
     22      -7.6698      1.00000
     23      -6.8511      1.00000
     24      -6.8511      1.00000
     25      -2.7381      1.00000
     26      -2.7381      1.00000
     27      -1.6413      1.00000
     28      -1.6413      1.00000
     29       0.5162      1.00000
     30       0.5162      1.00000
     31       1.8180      1.00000
     32       1.8180      1.00000
     33       1.9800      1.00000
     34       1.9800      1.00000
     35       2.3210      1.00000
     36       2.3210      1.00000
     37       5.9455      0.00000
     38       5.9455      0.00000
     39       6.7247      0.00000
     40       6.7247      0.00000
     41       7.8389      0.00000
     42       7.8389      0.00000
     43       7.8614      0.00000
     44       7.8614      0.00000
     45       9.2834      0.00000
     46       9.2879      0.00000
     47       9.8661      0.00000
     48       9.9838      0.00000

 k-point     9 :       0.5000    0.5000    0.2500
  band No.  band energies     occupation 
      1     -11.0862      1.00000
      2     -11.0862      1.00000
      3     -11.0862      1.00000
      4     -11.0862      1.00000
      5     -10.9870      1.00000
      6     -10.9870      1.00000
      7     -10.9870      1.00000
      8     -10.9870      1.00000
      9     -10.9860      1.00000
     10     -10.9860      1.00000
     11     -10.9860      1.00000
     12     -10.9860      1.00000
     13     -10.9281      1.00000
     14     -10.9281      1.00000
     15     -10.9281      1.00000
     16     -10.9281      1.00000
     17     -10.9271      1.00000
     18     -10.9271      1.00000
     19     -10.9271      1.00000
     20     -10.9271      1.00000
     21      -7.2574      1.00000
     22      -7.2574      1.00000
     23      -7.2574      1.00000
     24      -7.2574      1.00000
     25      -2.4829      1.00000
     26      -2.4829      1.00000
     27      -2.4829      1.00000
     28      -2.4829      1.00000
     29       1.4111      1.00000
     30       1.4111      1.00000
     31       1.4111      1.00000
     32       1.4111      1.00000
     33       2.5801      1.00000
     34       2.5801      1.00000
     35       2.5801      1.00000
     36       2.5801      1.00000
     37       5.7929      0.00000
     38       5.7929      0.00000
     39       5.7929      0.00000
     40       5.7929      0.00000
     41       8.2355      0.00000
     42       8.2355      0.00000
     43       8.2355      0.00000
     44       8.2355      0.00000
     45       8.7621      0.00000
     46       8.7621      0.00000
     47       8.7621      0.00000
     48       8.7621      0.00000

 k-point    10 :       0.5000    0.5000    0.5000
  band No.  band energies     occupation 
      1     -11.0879      1.00000
      2     -11.0879      1.00000
      3     -11.0879      1.00000
      4     -11.0879      1.00000
      5     -10.9888      1.00000
      6     -10.9888      1.00000
      7     -10.9888      1.00000
      8     -10.9888      1.00000
      9     -10.9888      1.00000
     10     -10.9888      1.00000
     11     -10.9888      1.00000
     12     -10.9888      1.00000
     13     -10.9254      1.00000
     14     -10.9254      1.00000
     15     -10.9254      1.00000
     16     -10.9254      1.00000
     17     -10.9254      1.00000
     18     -10.9254      1.00000
     19     -10.9254      1.00000
     20     -10.9254      1.00000
     21      -7.1925      1.00000
     22      -7.1925      1.00000
     23      -7.1925      1.00000
     24      -7.1925      1.00000
     25      -2.8941      1.00000
     26      -2.8941      1.00000
     27      -2.8941      1.00000
     28      -2.8941      1.00000
     29       2.6208      1.00000
     30       2.6208      1.00000
     31       2.6208      1.00000
     32       2.6208      1.00000
     33       2.6208      1.00000
     34       2.6208      1.00000
     35       2.6208      1.00000
     36       2.6208      1.00000
     37       4.6773      0.00000
     38       4.6773      0.00000
     39       4.6773      0.00000
     40       4.6773      0.00000
     41       8.3437      0.00000
     42       8.3437      0.00000
     43       8.3437      0.00000
     44       8.3437      0.00000
     45       8.3437      0.00000
     46       8.3437      0.00000
     47       8.3437      0.00000
     48       8.3437      0.00000
 Fermi energy:         3.8468460501

 spin component 2

 k-point     1 :       0.0000    0.0000    0.0000
  band No.  band energies     occupation 
      1     -11.1193      1.00000
      2     -11.1193      1.00000
      3     -11.1193      1.00000
      4     -11.0080      1.00000
      5     -11.0080      1.00000
      6     -11.0080      1.00000
      7     -10.9592      1.00000
      8     -10.9592      1.00000
      9     -10.9592      1.00000
     10     -10.9592      1.00000
     11     -10.9592      1.00000
     12     -10.9592      1.00000
     13     -10.9549      1.00000
     14     -10.9549      1.00000
     15     -10.9549      1.00000
     16     -10.9292      1.00000
     17     -10.9292      1.00000
     18     -10.9164      1.00000
     19     -10.9164      1.00000
     20     -10.9164      1.00000
     21      -8.9566      1.00000
     22      -6.4548      1.00000
     23      -6.4548      1.00000
     24      -6.4548      1.00000
     25      -3.0672      1.00000
     26      -3.0672      1.00000
     27      -3.0672      1.00000
     28       1.0805      1.00000
     29       1.0805      1.00000
     30       1.0805      1.00000
     31       1.0805      1.00000
     32       1.0805      1.00000
     33       1.0805      1.00000
     34       3.7625      1.00000
     35       3.7625      1.00000
     36       3.7625      1.00000
     37       4.1827      0.00000
     38       5.1199      0.00000
     39       5.1199      0.00000
     40       5.1199      0.00000
     41       5.3362      0.00000
     42       5.3362      0.00000
     43       5.3362      0.00000
     44       7.4502      0.00000
     45       7.4502      0.00000
     46       7.4502      0.00000
     47      11.1373      0.00000
     48      13.8611      0.00000

 k-point     2 :       0.2500    0.0000    0.0000
  band No.  band energies     occupation 
      1     -11.1133      1.00000
      2     -11.1133      1.00000
      3     -11.1064      1.00000
      4     -11.0292      1.00000
      5     -11.0011      1.00000
      6     -11.0011      1.00000
      7     -10.9679      1.00000
      8     -10.9679      1.00000
      9     -10.9666      1.00000
     10     -10.9666      1.00000
     11     -10.9624      1.00000
     12     -10.9624      1.00000
     13     -10.9506      1.00000
     14     -10.9475      1.00000
     15     -10.9475      1.00000
     16     -10.9321      1.00000
     17     -10.9273      1.00000
     18     -10.9199      1.00000
     19     -10.9199      1.00000
     20     -10.9183      1.00000
     21      -8.7135      1.00000
     22      -7.0697      1.00000
     23      -6.4259      1.00000
     24      -6.4259      1.00000
     25      -2.9792      1.00000
     26      -2.9792      1.00000
     27      -2.1621      1.00000
     28       0.6071      1.00000
     29       0.6071      1.00000
     30       0.7018      1.00000
     31       0.7018      1.00000
     32       1.3370      1.00000
     33       1.3370      1.00000
     34       1.7402      1.00000
     35       3.1018      1.00000
     36       3.1018      1.00000
     37       5.1313      0.00000
     38       5.9656      0.00000
     39       6.0627      0.00000
     40       6.2250      0.00000
     41       6.2250      0.00000
     42       6.4480      0.00000
     43       6.4480      0.00000
     44       6.7808      0.00000
     45       8.4101      0.00000
     46       8.4101      0.00000
     47      11.6977      0.00000
     48      11.8676      0.00000

 k-point     3 :       0.5000    0.0000    0.0000
  band No.  band energies     occupation 
      1     -11.1064      1.00000
      2     -11.1064      1.00000
      3     -11.0716      1.00000
      4     -11.0716      1.00000
      5     -10.9841      1.00000
      6     -10.9841      1.00000
      7     -10.9841      1.00000
      8     -10.9841      1.00000
      9     -10.9774      1.00000
     10     -10.9774      1.00000
     11     -10.9638      1.00000
     12     -10.9638      1.00000
     13     -10.9408      1.00000
     14     -10.9408      1.00000
     15     -10.9402      1.00000
     16     -10.9402      1.00000
     17     -10.9252      1.00000
     18     -10.9252      1.00000
     19     -10.9228      1.00000
     20     -10.9228      1.00000
     21      -8.0300      1.00000
     22      -8.0300      1.00000
     23      -6.3963      1.00000
     24      -6.3963      1.00000
     25      -2.8793      1.00000
     26      -2.8793      1.00000
     27      -0.3479      1.00000
     28      -0.3479      1.00000
     29       0.2087      1.00000
     30       0.2087      1.00000
     31       0.3997      1.00000
     32       0.3997      1.00000
     33       2.0677      1.00000
     34       2.0677      1.00000
     35       2.0677      1.00000
     36       2.0677      1.00000
     37       5.6626      0.00000
     38       5.6626      0.00000
     39       6.9473      0.00000
     40       6.9473      0.00000
     41       8.3347      0.00000
     42       8.3349      0.00000
     43       8.3879      0.00000
     44       8.3879      0.00000
     45       9.0903      0.00000
     46       9.0907      0.00000
     47       9.6972      0.00000
     48       9.6993      0.00000

 k-point     4 :       0.2500    0.2500    0.0000
  band No.  band energies     occupation 
      1     -11.1079      1.00000
      2     -11.1024      1.00000
      3     -11.1024      1.00000
      4     -11.0407      1.00000
      5     -11.0005      1.00000
      6     -10.9971      1.00000
      7     -10.9742      1.00000
      8     -10.9742      1.00000
      9     -10.9729      1.00000
     10     -10.9687      1.00000
     11     -10.9687      1.00000
     12     -10.9659      1.00000
     13     -10.9448      1.00000
     14     -10.9448      1.00000
     15     -10.9432      1.00000
     16     -10.9314      1.00000
     17     -10.9278      1.00000
     18     -10.9226      1.00000
     19     -10.9207      1.00000
     20     -10.9207      1.00000
     21      -8.4820      1.00000
     22      -6.9554      1.00000
     23      -6.9554      1.00000
     24      -6.4908      1.00000
     25      -2.8795      1.00000
     26      -2.2973      1.00000
     27      -2.2973      1.00000
     28      -0.1186      1.00000
     29       0.6001      1.00000
     30       0.7051      1.00000
     31       0.7051      1.00000
     32       1.2759      1.00000
     33       1.2759      1.00000
     34       1.5008      1.00000
     35       2.3891      1.00000
     36       3.4835      1.00000
     37       5.6323      0.00000
     38       5.9939      0.00000
     39       6.3257      0.00000
     40       6.3257      0.00000
     41       6.8799      0.00000
     42       6.8799      0.00000
     43       7.7574      0.00000
     44       7.9251      0.00000
     45       8.3221      0.00000
     46       9.0952      0.00000
     47       9.9579      0.00000
     48       9.9581      0.00000

 k-point     5 :       0.5000    0.2500    0.0000
  band No.  band energies     occupation 
      1     -11.1000      1.00000
      2     -11.1000      1.00000
      3     -11.0734      1.00000
      4     -11.0734      1.00000
      5     -10.9877      1.00000
      6     -10.9877      1.00000
      7     -10.9849      1.00000
[...]
      4     -11.0862      1.00000
      5     -10.9870      1.00000
      6     -10.9870      1.00000
      7     -10.9870      1.00000
      8     -10.9870      1.00000
      9     -10.9860      1.00000
     10     -10.9860      1.00000
     11     -10.9860      1.00000
     12     -10.9860      1.00000
     13     -10.9281      1.00000
     14     -10.9281      1.00000
     15     -10.9281      1.00000
     16     -10.9281      1.00000
     17     -10.9271      1.00000
     18     -10.9271      1.00000
     19     -10.9271      1.00000
     20     -10.9271      1.00000
     21      -7.2574      1.00000
     22      -7.2574      1.00000
     23      -7.2574      1.00000
     24      -7.2574      1.00000
     25      -2.4829      1.00000
     26      -2.4829      1.00000
     27      -2.4829      1.00000
     28      -2.4829      1.00000
     29       1.4111      1.00000
     30       1.4111      1.00000
     31       1.4111      1.00000
     32       1.4111      1.00000
     33       2.5801      1.00000
     34       2.5801      1.00000
     35       2.5801      1.00000
     36       2.5801      1.00000
     37       5.7929      0.00000
     38       5.7929      0.00000
     39       5.7929      0.00000
     40       5.7929      0.00000
     41       8.2355      0.00000
     42       8.2355      0.00000
     43       8.2355      0.00000
     44       8.2355      0.00000
     45       8.7621      0.00000
     46       8.7621      0.00000
     47       8.7621      0.00000
     48       8.7621      0.00000

 k-point    10 :       0.5000    0.5000    0.5000
  band No.  band energies     occupation 
      1     -11.0878      1.00000
      2     -11.0878      1.00000
      3     -11.0878      1.00000
      4     -11.0878      1.00000
      5     -10.9887      1.00000
      6     -10.9887      1.00000
      7     -10.9887      1.00000
      8     -10.9887      1.00000
      9     -10.9887      1.00000
     10     -10.9887      1.00000
     11     -10.9887      1.00000
     12     -10.9887      1.00000
     13     -10.9254      1.00000
     14     -10.9254      1.00000
     15     -10.9254      1.00000
     16     -10.9254      1.00000
     17     -10.9254      1.00000
     18     -10.9254      1.00000
     19     -10.9254      1.00000
     20     -10.9254      1.00000
     21      -7.1925      1.00000
     22      -7.1925      1.00000
     23      -7.1925      1.00000
     24      -7.1925      1.00000
     25      -2.8941      1.00000
     26      -2.8941      1.00000
     27      -2.8941      1.00000
     28      -2.8941      1.00000
     29       2.6208      1.00000
     30       2.6208      1.00000
     31       2.6208      1.00000
     32       2.6208      1.00000
     33       2.6208      1.00000
     34       2.6208      1.00000
     35       2.6208      1.00000
     36       2.6208      1.00000
     37       4.6773      0.00000
     38       4.6773      0.00000
     39       4.6773      0.00000
     40       4.6773      0.00000
     41       8.3437      0.00000
     42       8.3437      0.00000
     43       8.3437      0.00000
     44       8.3437      0.00000
     45       8.3437      0.00000
     46       8.3437      0.00000
     47       8.3437      0.00000
     48       8.3437      0.00000


--------------------------------------------------------------------------------------------------------


 soft charge-density along one line, spin component           1
         0         1         2         3         4         5         6         7         8         9
 total charge-density along one line
 
 soft charge-density along one line, spin component           2
         0         1         2         3         4         5         6         7         8         9
 total charge-density along one line
 
 pseudopotential strength for first ion, spin component:           1
-14.125  -0.000   0.000   0.000  -0.000   2.084  -0.000  -0.000
 -0.000 -14.125   0.000  -0.000  -0.000  -0.000   2.084  -0.000
  0.000   0.000 -14.123  -0.000   0.000  -0.000  -0.000   2.083
  0.000  -0.000  -0.000 -14.125   0.000  -0.000   0.000   0.000
 -0.000  -0.000   0.000   0.000 -14.123   0.000   0.000   0.000
  2.084  -0.000  -0.000  -0.000   0.000   3.981   0.000   0.000
 -0.000   2.084  -0.000   0.000   0.000   0.000   3.981   0.000
 -0.000  -0.000   2.083   0.000   0.000   0.000   0.000   3.979
 -0.000   0.000   0.000   2.084  -0.000   0.000  -0.000   0.000
  0.000   0.000   0.000  -0.000   2.083  -0.000  -0.000  -0.000
 -0.000  -0.000   0.000  -0.000  -0.000   0.000  -0.000  -0.000
  0.000  -0.000  -0.000   0.000   0.000  -0.000   0.000  -0.000
  0.000  -0.000   0.000  -0.000  -0.000   0.000  -0.000   0.000
 -0.000  -0.000  -0.000   0.000   0.000   0.002  -0.000  -0.000
 -0.000  -0.000  -0.000  -0.000  -0.000  -0.000   0.002  -0.000
  0.000  -0.000   0.000  -0.001   0.000  -0.000   0.000  -0.000
 -0.001  -0.000  -0.000   0.000  -0.000  -0.000   0.000   0.000
  0.000  -0.001  -0.000  -0.000   0.000   0.000  -0.000   0.000
 pseudopotential strength for first ion, spin component:           2
-14.125  -0.000   0.000   0.000  -0.000   2.084  -0.000  -0.000
 -0.000 -14.125   0.000  -0.000  -0.000  -0.000   2.084  -0.000
  0.000   0.000 -14.123  -0.000   0.000  -0.000  -0.000   2.083
  0.000  -0.000  -0.000 -14.125   0.000  -0.000   0.000   0.000
 -0.000  -0.000   0.000   0.000 -14.123   0.000   0.000   0.000
  2.084  -0.000  -0.000  -0.000   0.000   3.981   0.000   0.000
 -0.000   2.084  -0.000   0.000   0.000   0.000   3.981   0.000
 -0.000  -0.000   2.083   0.000   0.000   0.000   0.000   3.979
 -0.000   0.000   0.000   2.084  -0.000   0.000  -0.000   0.000
  0.000   0.000   0.000  -0.000   2.083  -0.000  -0.000  -0.000
 -0.000  -0.000   0.000  -0.000  -0.000   0.000  -0.000  -0.000
  0.000  -0.000  -0.000   0.000   0.000  -0.000   0.000  -0.000
  0.000  -0.000   0.000  -0.000  -0.000   0.000  -0.000   0.000
 -0.000  -0.000  -0.000   0.000   0.000   0.002  -0.000  -0.000
 -0.000  -0.000  -0.000  -0.000  -0.000  -0.000   0.002  -0.000
  0.000  -0.000   0.000  -0.001   0.000  -0.000   0.000  -0.000
 -0.001  -0.000  -0.000   0.000  -0.000  -0.000   0.000   0.000
  0.000  -0.001  -0.000  -0.000   0.000   0.000  -0.000   0.000
 total augmentation occupancy for first ion, spin component:           1
  2.008   0.000   0.000   0.000  -0.000   0.021   0.000   0.000   0.000  -0.000   0.000  -0.000   0.000   0.019  -0.000  -0.000
  0.000   2.008   0.000  -0.000  -0.000   0.000   0.021   0.000  -0.000  -0.000  -0.000   0.000   0.000   0.000   0.019   0.000
  0.000   0.000   2.004   0.000  -0.000   0.000   0.000   0.011   0.000  -0.000  -0.000   0.000   0.000   0.000   0.000   0.000
  0.000  -0.000   0.000   2.008   0.000   0.000  -0.000   0.000   0.021   0.000  -0.000  -0.000   0.019   0.000  -0.000   0.002
 -0.000  -0.000  -0.000   0.000   2.004  -0.000  -0.000   0.000   0.000   0.011   0.000  -0.000   0.000  -0.000   0.000   0.000
  0.021   0.000   0.000   0.000  -0.000   0.042   0.000   0.000   0.000  -0.000   0.000   0.000  -0.000   0.150   0.000   0.000
  0.000   0.021   0.000  -0.000  -0.000   0.000   0.042   0.000  -0.000  -0.000  -0.000   0.000  -0.000   0.000   0.150  -0.000
  0.000   0.000   0.011   0.000  -0.000   0.000   0.000   0.012   0.000   0.000   0.000  -0.000   0.000   0.000   0.000   0.000
  0.000  -0.000   0.000   0.021   0.000   0.000  -0.000   0.000   0.042   0.000   0.000  -0.000   0.150   0.000  -0.000   0.002
 -0.000  -0.000   0.000   0.000   0.011  -0.000  -0.000   0.000   0.000   0.012   0.000  -0.000  -0.000  -0.000   0.000  -0.000
 -0.000   0.000  -0.000   0.000   0.000  -0.000  -0.000   0.000  -0.000   0.000   1.483   0.025   0.000   0.000   0.000  -0.000
 -0.000  -0.000   0.000  -0.000  -0.000  -0.000  -0.000   0.000  -0.000  -0.000   0.025   0.001   0.000   0.000   0.000   0.000
  0.000   0.000   0.000   0.019   0.000  -0.000  -0.000   0.000   0.150  -0.000   0.000   0.000   0.942   0.000  -0.000   0.014
  0.019   0.000   0.000   0.000  -0.000   0.150   0.000   0.000   0.000  -0.000   0.000   0.000   0.000   0.942   0.000   0.000
  0.000   0.019   0.000  -0.000   0.000  -0.000   0.150   0.000  -0.000   0.000  -0.000  -0.000  -0.000   0.000   0.942  -0.000
 -0.000   0.000   0.000   0.002  -0.000   0.000  -0.000   0.000   0.002  -0.000   0.000   0.000   0.014   0.000  -0.000   0.000
  0.002   0.000   0.000   0.000  -0.000   0.002   0.000   0.000   0.000  -0.000   0.000   0.000   0.000   0.014   0.000   0.000
 -0.000   0.002   0.000  -0.000   0.000   0.000   0.002   0.000  -0.000   0.000   0.000  -0.000  -0.000   0.000   0.014  -0.000
 total augmentation occupancy for first ion, spin component:           2
  0.000   0.000   0.000   0.000  -0.000   0.000   0.000   0.000   0.000  -0.000   0.000   0.000   0.000  -0.000   0.000   0.000
  0.000   0.000   0.000  -0.000   0.000   0.000   0.000   0.000  -0.000   0.000   0.000   0.000  -0.000  -0.000  -0.000   0.000
  0.000   0.000  -0.000   0.000  -0.000   0.000   0.000  -0.000   0.000  -0.000  -0.000  -0.000  -0.000  -0.000  -0.000   0.000
  0.000  -0.000   0.000   0.000  -0.000   0.000  -0.000   0.000   0.000  -0.000   0.000  -0.000  -0.000  -0.000   0.000   0.000
 -0.000   0.000  -0.000  -0.000  -0.000  -0.000   0.000  -0.000  -0.000  -0.000   0.000  -0.000   0.000   0.000   0.000  -0.000
  0.000   0.000   0.000   0.000  -0.000  -0.000  -0.000  -0.000  -0.000   0.000   0.000   0.000   0.000  -0.000  -0.000   0.000
  0.000   0.000   0.000  -0.000   0.000  -0.000  -0.000  -0.000   0.000   0.000   0.000   0.000  -0.000  -0.000  -0.000  -0.000
  0.000   0.000  -0.000   0.000  -0.000  -0.000  -0.000  -0.000  -0.000  -0.000  -0.000   0.000  -0.000  -0.000  -0.000  -0.000
  0.000  -0.000   0.000   0.000  -0.000  -0.000   0.000  -0.000  -0.000  -0.000  -0.000  -0.000  -0.000  -0.000   0.000  -0.000
 -0.000   0.000  -0.000  -0.000  -0.000   0.000   0.000  -0.000  -0.000  -0.000   0.000  -0.000   0.000   0.000   0.000   0.000
  0.000   0.000  -0.000   0.000   0.000   0.000   0.000  -0.000  -0.000  -0.000  -0.000  -0.000   0.000  -0.000   0.000   0.000
  0.000   0.000  -0.000   0.000   0.000   0.000   0.000   0.000  -0.000  -0.000  -0.000  -0.000   0.000  -0.000   0.000   0.000
  0.000  -0.000  -0.000  -0.000  -0.000   0.000  -0.000  -0.000  -0.000   0.000   0.000   0.000  -0.000  -0.000   0.000  -0.000
 -0.000  -0.000   0.000  -0.000  -0.000  -0.000  -0.000  -0.000  -0.000   0.000  -0.000  -0.000  -0.000  -0.000  -0.000  -0.000
  0.000  -0.000  -0.000   0.000   0.000  -0.000  -0.000  -0.000   0.000  -0.000   0.000   0.000   0.000  -0.000  -0.000   0.000
 -0.000  -0.000   0.000   0.000  -0.000   0.000  -0.000  -0.000  -0.000   0.000   0.000   0.000  -0.000  -0.000   0.000  -0.000
  0.000  -0.000  -0.000  -0.000  -0.000  -0.000  -0.000  -0.000  -0.000   0.000  -0.000  -0.000  -0.000  -0.000  -0.000  -0.000
  0.000   0.000   0.000   0.000  -0.000  -0.000  -0.000  -0.000   0.000  -0.000   0.000   0.000   0.000  -0.000  -0.000   0.000


------------------------ aborting loop because EDIFF is reached ----------------------------------------





 total charge

# of ion       s       p       d       tot
------------------------------------------
    1        0.882   0.799   9.994  11.675
    2        0.882   0.799   9.994  11.675
    3        0.882   0.799   9.994  11.675
    4        0.882   0.799   9.994  11.675
    5        1.212   1.588   0.031   2.831
    6        1.212   1.588   0.031   2.831
    7        1.212   1.588   0.031   2.831
    8        1.212   1.588   0.031   2.831
--------------------------------------------------
tot          8.376   9.547  40.099  58.022



 magnetization (x)

# of ion       s       p       d       tot
------------------------------------------
    1        0.000  -0.000   0.000  -0.000
    2        0.000  -0.000   0.000  -0.000
    3        0.000  -0.000   0.000  -0.000
    4        0.000  -0.000   0.000  -0.000
    5       -0.000  -0.000   0.000  -0.000
    6       -0.000  -0.000   0.000  -0.000
    7       -0.000  -0.000   0.000  -0.000
    8       -0.000  -0.000   0.000  -0.000
--------------------------------------------------
tot         -0.000  -0.000   0.000  -0.000
 
    CHARGE:  cpu time      0.0461: real time      0.0462
    FORLOC:  cpu time      0.0013: real time      0.0013
    FORNL :  cpu time      0.0514: real time      0.0521
    STRESS:  cpu time      0.1171: real time      0.1178
    FORCOR:  cpu time      0.0174: real time      0.0178
    FORHAR:  cpu time      0.0038: real time      0.0046
    MIXING:  cpu time      0.0010: real time      0.0010
    OFIELD:  cpu time      0.0007: real time      0.0010

  FORCE on cell =-STRESS in cart. coord.  units (eV):
  Direction    XX          YY          ZZ          XY          YZ          ZX
  --------------------------------------------------------------------------------------
  Alpha Z   240.03196   240.03196   240.03196
  Ewald   -1684.69273 -1684.69273 -1684.69273    -0.00000    -0.00000    -0.00000
  Hartree   963.20006   963.20006   963.20006    -0.00000    -0.00000    -0.00000
  E(xc)    -384.96616  -384.96616  -384.96616    -0.00000    -0.00000     0.00000
  Local    -246.06229  -246.06229  -246.06229    -0.00000     0.00000    -0.00000
  n-local   186.45763   189.54190   185.68381    -1.57674    -1.40379    -0.58873
  augment   480.20495   480.20495   480.20495     0.00000    -0.00000     0.00000
  Kinetic   438.65967   449.81393   446.74877    -3.13987    -3.83744    -1.43444
  Fock        0.00000     0.00000     0.00000     0.00000     0.00000     0.00000
  -------------------------------------------------------------------------------------
  Total       0.01771     0.01771     0.01771     0.00000    -0.00000    -0.00000
  in kB       0.15626     0.15626     0.15626     0.00000    -0.00000    -0.00000
  external pressure =        0.16 kB  Pullay stress =        0.00 kB


 VOLUME and BASIS-vectors are now :
 -----------------------------------------------------------------------------
  energy-cutoff  :      680.00
  volume of cell :      181.56
      direct lattice vectors                 reciprocal lattice vectors
     5.662477870  0.000000000  0.000000000     0.176601132  0.000000000  0.000000000
    -0.000000000  5.662477870  0.000000000     0.000000000  0.176601132  0.000000000
     0.000000000  0.000000000  5.662477870    -0.000000000 -0.000000000  0.176601132

  length of vectors
     5.662477870  5.662477870  5.662477870     0.176601132  0.176601132  0.176601132


 FORCES acting on ions
    electron-ion (+dipol)            ewald-force                    non-local-force                 convergence-correction
 -----------------------------------------------------------------------------------------------
   -.247E-12 -.199E-13 -.111E-13   -.568E-13 0.142E-13 0.568E-13   -.746E-16 0.301E-16 -.220E-16   0.966E-13 -.311E-13 -.202E-12
   0.102E-11 -.874E-12 -.139E-11   -.568E-13 0.284E-13 0.568E-13   -.529E-16 -.320E-17 -.651E-16   0.434E-13 -.162E-13 -.183E-12
   0.104E-11 -.613E-14 -.922E-11   -.284E-13 0.284E-13 0.568E-13   -.600E-16 0.308E-16 -.463E-17   0.463E-13 -.264E-13 0.764E-13
   -.287E-12 0.128E-11 0.126E-11   -.568E-13 0.426E-13 0.568E-13   -.249E-16 0.115E-16 -.147E-16   0.781E-13 -.204E-13 0.224E-13
   -.330E-12 -.366E-12 0.248E-12   0.581E-13 -.277E-13 -.578E-13   0.176E-16 -.283E-16 0.693E-17   0.741E-14 0.138E-13 -.155E-13
   -.287E-12 -.396E-12 0.225E-12   0.581E-13 -.283E-13 -.565E-13   -.986E-17 -.761E-17 0.131E-16   0.133E-13 0.172E-13 -.241E-13
   -.312E-12 0.522E-12 0.637E-12   0.556E-13 -.275E-13 -.574E-13   -.135E-16 -.769E-17 0.620E-17   0.143E-13 0.903E-14 -.158E-13
   -.332E-12 0.519E-12 0.644E-12   0.555E-13 -.300E-13 -.561E-13   0.203E-16 -.212E-16 -.457E-19   0.969E-14 0.993E-14 -.263E-13
 -----------------------------------------------------------------------------------------------
   0.262E-12 0.655E-12 -.761E-11   0.284E-13 0.188E-15 -.410E-15   -.198E-15 0.441E-17 -.802E-16   0.309E-12 -.441E-13 -.367E-12
 
 
 POSITION                                       TOTAL-FORCE (eV/Angst)
 -----------------------------------------------------------------------------------
      0.00000      0.00000      0.00000         0.000000     -0.000000      0.000000
      2.83124      2.83124      0.00000        -0.000000      0.000000      0.000000
      2.83124      0.00000      2.83124         0.000000     -0.000000      0.000000
     -0.00000      2.83124      2.83124         0.000000      0.000000      0.000000
      1.41562      1.41562      1.41562        -0.000000     -0.000000     -0.000000
      1.41562      4.24686      4.24686        -0.000000      0.000000     -0.000000
      4.24686      4.24686      1.41562        -0.000000     -0.000000     -0.000000
      4.24686      1.41562      4.24686        -0.000000     -0.000000     -0.000000
 -----------------------------------------------------------------------------------
    total drift:                                0.000000      0.000000     -0.000000


--------------------------------------------------------------------------------------------------------



  FREE ENERGIE OF THE ION-ELECTRON SYSTEM (eV)
  ---------------------------------------------------
  free  energy   TOTEN  =       -36.34439281 eV

  energy  without entropy=      -36.34439281  energy(sigma->0) =      -36.34439281
 


--------------------------------------------------------------------------------------------------------


    POTLOK:  cpu time      0.4973: real time      0.4985


--------------------------------------------------------------------------------------------------------


 writing wavefunctions
     LOOP+:  cpu time     11.7892: real time     13.5867
    4ORBIT:  cpu time      0.0000: real time      0.0000



 total charge

# of ion       s       p       d       tot
------------------------------------------
    1        0.882   0.799   9.994  11.675
    2        0.882   0.799   9.994  11.675
    3        0.882   0.799   9.994  11.675
    4        0.882   0.799   9.994  11.675
    5        1.212   1.588   0.031   2.831
    6        1.212   1.588   0.031   2.831
    7        1.212   1.588   0.031   2.831
    8        1.212   1.588   0.031   2.831
--------------------------------------------------
tot          8.376   9.547  40.099  58.022



 magnetization (x)

# of ion       s       p       d       tot
------------------------------------------
    1        0.000  -0.000   0.000  -0.000
    2        0.000  -0.000   0.000  -0.000
    3        0.000  -0.000   0.000  -0.000
    4        0.000  -0.000   0.000  -0.000
    5       -0.000  -0.000   0.000  -0.000
    6       -0.000  -0.000   0.000  -0.000
    7       -0.000  -0.000   0.000  -0.000
    8       -0.000  -0.000   0.000  -0.000
--------------------------------------------------
tot         -0.000  -0.000   0.000  -0.000
 
 BZINTS: Fermi energy:    3.846846;   72.000000 electrons
         Band energy:-0.488109E+03;  BLOECHL correction:    0.000000

 total amount of memory used by VASP MPI-rank0    35609. kBytes
=======================================================================

   base      :      30000. kBytes
   nonl-proj :       2237. kBytes
   fftplans  :        680. kBytes
   grid      :       1678. kBytes
   one-center:         31. kBytes
   wavefun   :        983. kBytes
 
  
  
 General timing and accounting informations for this job:
 ========================================================
  
                  Total CPU time used (sec):       21.555
                            User time (sec):       18.262
                          System time (sec):        3.293
                         Elapsed time (sec):       31.615
  
                   Maximum memory used (kb):      187028.
                   Average memory used (kb):          N/A
  
                          Minor page faults:        35164
                          Major page faults:            0
                 Voluntary context switches:         9423
