<?xml version="1.0" encoding="ISO-8859-1"?>
<modeling>
 <generator>
  <i name="program" type="string">vasp </i>
  <i name="version" type="string">6.4.2  </i>
  <i name="subversion" type="string">20Jul23 (build Mar 15 2024 16:31:38) complex                          parallel </i>
  <i name="platform" type="string">LinuxIFC </i>
  <i name="date" type="string">2025 03 04 </i>
  <i name="time" type="string">19:09:25 </i>
 </generator>
 <incar>
  <i type="string" name="PREC">Accurate</i>
  <i type="string" name="ALGO">Fast</i>
  <i type="int" name="ISPIN">     2</i>
  <i type="int" name="NELM">   200</i>
  <i name="EDIFF">      0.00001000</i>
  <i type="int" name="NSW">     0</i>
  <i name="ENCUT">    680.00000000</i>
  <i name="ENAUG">   1360.00000000</i>
  <v name="MAGMOM">      0.00000000      0.00000000      0.00000000      0.00000000      0.00000000      0.00000000      0.00000000      0.00000000</v>
  <i type="logical" name="LREAL"> F  </i>
  <i type="int" name="ISMEAR">    -5</i>
  <i name="SIGMA">      0.05000000</i>
  <i type="int" name="LMAXMIX">     4</i>
  <i type="logical" name="LWAVE"> T  </i>
  <i type="logical" name="LCHARG"> T  </i>
  <i type="logical" name="LVTOT"> T  </i>
  <i type="int" name="LORBIT">    11</i>
  <i type="logical" name="LELF"> F  </i>
  <i type="logical" name="LASPH"> T  </i>
  <i type="logical" name="LAECHG"> T  </i>
  <i type="string" name="GGA">Ps</i>
  <i type="logical" name="LMIXTAU"> T  </i>
 </incar>
 <primitive_cell>
  <structure name="primitive_cell" >
   <crystal>
    <varray name="basis" >
     <v>       2.83123894      -2.83123894       0.00000000 </v>
     <v>       2.83123894       0.00000000       2.83123894 </v>
     <v>       0.00000000      -2.83123894       2.83123894 </v>
    </varray>
    <i name="volume">     45.38993511 </i>
    <varray name="rec_basis" >
     <v>       0.17660113      -0.17660113      -0.17660113 </v>
     <v>       0.17660113       0.17660113       0.17660113 </v>
     <v>      -0.17660113      -0.17660113       0.17660113 </v>
    </varray>
   </crystal>
   <varray name="positions" >
    <v>       0.00000000       0.00000000       0.00000000 </v>
    <v>       0.75000000       0.75000000       0.75000000 </v>
   </varray>
  </structure>
  <varray name="primitive_index" >
   <v type="int" >        1 </v>
   <v type="int" >        5 </v>
  </varray>
 </primitive_cell>
 <kpoints>
  <generation param="Gamma">
   <v type="int" name="divisions">       4        4        4 </v>
   <v name="usershift">      0.00000000       0.00000000       0.00000000 </v>
   <v name="genvec1">      0.25000000       0.00000000       0.00000000 </v>
   <v name="genvec2">      0.00000000       0.25000000       0.00000000 </v>
   <v name="genvec3">     -0.00000000      -0.00000000       0.25000000 </v>
   <v name="shift">      0.00000000       0.00000000       0.00000000 </v>
  </generation>
  <varray name="kpointlist" >
   <v>       0.00000000       0.00000000       0.00000000 </v>
   <v>       0.25000000       0.00000000       0.00000000 </v>
   <v>       0.50000000       0.00000000       0.00000000 </v>
   <v>       0.25000000       0.25000000       0.00000000 </v>
   <v>       0.50000000       0.25000000       0.00000000 </v>
   <v>       0.50000000       0.50000000       0.00000000 </v>
   <v>       0.25000000       0.25000000       0.25000000 </v>
   <v>       0.50000000       0.25000000       0.25000000 </v>
   <v>       0.50000000       0.50000000       0.25000000 </v>
   <v>       0.50000000       0.50000000       0.50000000 </v>
  </varray>
  <varray name="weights" >
   <v>       0.01562500 </v>
   <v>       0.09375000 </v>
   <v>       0.04687500 </v>
   <v>       0.18750000 </v>
   <v>       0.18750000 </v>
   <v>       0.04687500 </v>
   <v>       0.12500000 </v>
   <v>       0.18750000 </v>
   <v>       0.09375000 </v>
   <v>       0.01562500 </v>
  </varray>
  <varray name="tetrahedronlist"  type="int" >
   <v type="int" >       12        7        8        8        9 </v>
   <v type="int" >       12        8        8        9        9 </v>
   <v type="int" >       12        8        9        9       10 </v>
   <v type="int" >       24        4        5        7        8 </v>
   <v type="int" >       12        5        7        8        8 </v>
   <v type="int" >       12        5        8        8        9 </v>
   <v type="int" >       24        4        5        5        8 </v>
   <v type="int" >       12        5        5        6        8 </v>
   <v type="int" >       12        5        6        8        9 </v>
   <v type="int" >       12        7        8        9       10 </v>
   <v type="int" >       12        4        5        8        9 </v>
   <v type="int" >       12        4        7        8        9 </v>
   <v type="int" >       12        4        5        6        9 </v>
   <v type="int" >       12        5        6        7        8 </v>
   <v type="int" >       12        4        5        6        7 </v>
   <v type="int" >       12        6        7        8        9 </v>
   <v type="int" >       12        2        4        7        8 </v>
   <v type="int" >       12        2        4        5        8 </v>
   <v type="int" >       12        2        3        5        8 </v>
   <v type="int" >       12        4        4        5        7 </v>
   <v type="int" >       12        2        4        4        5 </v>
   <v type="int" >       12        2        3        4        5 </v>
   <v type="int" >       12        3        4        5        5 </v>
   <v type="int" >       12        2        3        4        7 </v>
   <v type="int" >       12        3        4        5        7 </v>
   <v type="int" >       12        3        5        7        8 </v>
   <v type="int" >       12        2        4        4        7 </v>
   <v type="int" >       12        2        2        4        4 </v>
   <v type="int" >       12        1        2        2        4 </v>
   <v type="int" >       12        1        2        4        7 </v>
  </varray>
  <i name="volumeweight">      0.00260417 </i>
 </kpoints>
 <parameters>
  <separator name="general" >
   <i type="string" name="SYSTEM">unknown system</i>
   <i type="logical" name="LCOMPAT"> F  </i>
  </separator>
  <separator name="electronic" >
   <i type="string" name="PREC">accura</i>
   <i name="ENMAX">    680.00000000</i>
   <i name="ENAUG">   1360.00000000</i>
   <i name="EDIFF">      0.00001000</i>
   <i type="int" name="IALGO">    68</i>
   <i type="int" name="IWAVPR">    10</i>
   <i type="int" name="NBANDS">    48</i>
   <i type="int" name="NBANDSLOW">    -1</i>
   <i type="int" name="NBANDSHIGH">    -1</i>
   <i name="NELECT">     72.00000000</i>
   <i type="int" name="TURBO">     0</i>
   <i type="int" name="IRESTART">     0</i>
   <i type="int" name="NREBOOT">     0</i>
   <i type="int" name="NMIN">     0</i>
   <i name="EREF">      0.00000000</i>
   <separator name="electronic smearing" >
    <i type="int" name="ISMEAR">    -5</i>
    <i name="SIGMA">      0.05000000</i>
    <i name="KSPACING">      0.50000000</i>
    <i type="logical" name="KGAMMA"> T  </i>
    <i type="logical" name="KBLOWUP"> T  </i>
   </separator>
   <separator name="electronic projectors" >
    <i type="logical" name="LREAL"> F  </i>
    <v name="ROPT">      0.00000000      0.00000000</v>
    <i type="int" name="LMAXPAW">  -100</i>
    <i type="int" name="LMAXMIX">     4</i>
    <i type="logical" name="NLSPLINE"> F  </i>
   </separator>
   <separator name="electronic startup" >
    <i type="int" name="ISTART">     0</i>
    <i type="int" name="ICHARG">     2</i>
    <i type="int" name="INIWAV">     1</i>
   </separator>
   <separator name="electronic spin" >
    <i type="int" name="ISPIN">     2</i>
    <i type="logical" name="LNONCOLLINEAR"> F  </i>
    <v name="MAGMOM">      0.00000000      0.00000000      0.00000000      0.00000000      0.00000000      0.00000000      0.00000000      0.00000000</v>
    <i name="NUPDOWN">     -1.00000000</i>
    <i type="logical" name="LSORBIT"> F  </i>
    <v name="SAXIS">      0.00000000      0.00000000      1.00000000</v>
    <i type="logical" name="LSPIRAL"> F  </i>
    <v name="QSPIRAL">      0.00000000      0.00000000      0.00000000</v>
    <i type="logical" name="LZEROZ"> F  </i>
   </separator>
   <separator name="electronic exchange-correlation" >
    <i type="logical" name="LASPH"> T  </i>
    <i type="logical" name="LMETAGGA"> F  </i>
   </separator>
   <separator name="electronic convergence" >
    <i type="int" name="NELM">   200</i>
    <i type="int" name="NELMDL">    -5</i>
    <i type="int" name="NELMIN">     2</i>
    <i name="ENINI">    680.00000000</i>
    <separator name="electronic convergence detail" >
     <i type="logical" name="LDIAG"> T  </i>
     <i type="logical" name="LSUBROT"> F  </i>
     <i name="WEIMIN">      0.00000000</i>
     <i name="EBREAK">      0.00000005</i>
     <i name="DEPER">      0.30000000</i>
     <i type="int" name="NRMM">     4</i>
     <i name="TIME">      0.40000000</i>
    </separator>
   </separator>
   <separator name="electronic mixer" >
    <i name="AMIX">      0.40000000</i>
    <i name="BMIX">      1.00000000</i>
    <i name="AMIN">      0.10000000</i>
    <i name="AMIX_MAG">      1.60000000</i>
    <i name="BMIX_MAG">      1.00000000</i>
    <separator name="electronic mixer details" >
     <i type="int" name="IMIX">     4</i>
     <i type="logical" name="MIXFIRST"> F  </i>
     <i type="int" name="MAXMIX">   -45</i>
     <i name="WC">    100.00000000</i>
     <i type="int" name="INIMIX">     1</i>
     <i type="int" name="MIXPRE">     1</i>
     <i type="int" name="MREMOVE">     5</i>
    </separator>
   </separator>
   <separator name="electronic dipolcorrection" >
    <i type="logical" name="LDIPOL"> F  </i>
    <i type="logical" name="LMONO"> F  </i>
    <i type="int" name="IDIPOL">     0</i>
    <i name="EPSILON">      1.00000000</i>
    <v name="DIPOL">   -100.00000000   -100.00000000   -100.00000000</v>
    <i name="EFIELD">      0.00000000</i>
   </separator>
  </separator>
  <separator name="grids" >
   <i type="int" name="NGX">    48</i>
   <i type="int" name="NGY">    48</i>
   <i type="int" name="NGZ">    48</i>
   <i type="int" name="NGXF">    96</i>
   <i type="int" name="NGYF">    96</i>
   <i type="int" name="NGZF">    96</i>
   <i type="logical" name="ADDGRID"> F  </i>
  </separator>
  <separator name="ionic" >
   <i type="int" name="NSW">     0</i>
   <i type="int" name="IBRION">    -1</i>
   <i type="int" name="MDALGO">     0</i>
   <i type="int" name="ISIF">     2</i>
   <i name="PSTRESS">      0.00000000</i>
   <i name="EDIFFG">      0.00010000</i>
   <i type="int" name="NFREE">     0</i>
   <i name="POTIM">      0.50000000</i>
   <i name="SMASS">     -3.00000000</i>
   <i name="SCALEE">      1.00000000</i>
  </separator>
  <separator name="ionic md" >
   <i name="TEBEG">      0.00010000</i>
   <i name="TEEND">      0.00010000</i>
   <i type="int" name="NBLOCK">     1</i>
   <i type="int" name="KBLOCK">     1</i>
   <i type="int" name="NPACO">   256</i>
   <i name="APACO">     10.00000000</i>
  </separator>
  <separator name="symmetry" >
   <i type="int" name="ISYM">     2</i>
   <i name="SYMPREC">      0.00001000</i>
  </separator>
  <separator name="dos" >
   <i type="int" name="LORBIT">    11</i>
   <v name="RWIGS">     -1.00000000     -1.00000000</v>
   <i type="int" name="NEDOS">   301</i>
   <i name="EMIN">     10.00000000</i>
   <i name="EMAX">    -10.00000000</i>
   <i name="EFERMI">      0.00000000</i>
  </separator>
  <separator name="writing" >
   <i type="int" name="NWRITE">     2</i>
   <i type="logical" name="LWAVE"> T  </i>
   <i type="logical" name="LDOWNSAMPLE"> F  </i>
   <i type="logical" name="LCHARG"> T  </i>
   <i type="logical" name="LPARD"> F  </i>
   <i type="logical" name="LVTOT"> T  </i>
   <i type="logical" name="LVHAR"> F  </i>
   <i type="logical" name="LELF"> F  </i>
   <i type="logical" name="LOPTICS"> F  </i>
   <v name="STM">      0.00000000      0.00000000      0.00000000      0.00000000      0.00000000      0.00000000      0.00000000</v>
  </separator>
  <separator name="performance" >
   <i type="int" name="NPAR">    12</i>
   <i type="int" name="NSIM">     4</i>
   <i type="int" name="NBLK">    -1</i>
   <i type="logical" name="LPLANE"> T  </i>
   <i type="logical" name="LSCALAPACK"> T  </i>
   <i type="logical" name="LSCAAWARE"> F  </i>
   <i type="logical" name="LSCALU"> F  </i>
   <i type="logical" name="LASYNC"> F  </i>
   <i type="logical" name="LORBITALREAL"> F  </i>
  </separator>
  <separator name="miscellaneous" >
   <i type="int" name="IDIOT">     3</i>
   <i type="int" name="PHON_NSTRUCT">    -1</i>
   <i type="logical" name="LMUSIC"> F  </i>
   <v name="POMASS">     69.72300000     74.92200000</v>
   <v name="DARWINR">      0.00000000      0.00000000</v>
   <v name="DARWINV">      1.00000000      1.00000000</v>
   <i type="logical" name="LCORR"> T  </i>
  </separator>
  <i type="logical" name="GGA_COMPAT"> T  </i>
  <i type="logical" name="LBERRY"> F  </i>
  <i type="int" name="ICORELEVEL">     0</i>
  <i type="logical" name="LDAU"> F  </i>
  <i type="int" name="I_CONSTRAINED_M">     0</i>
  <separator name="electronic exchange-correlation" >
   <i type="string" name="GGA">PS</i>
   <i type="int" name="VOSKOWN">     0</i>
   <i type="logical" name="LHFCALC"> F  </i>
   <i type="string" name="PRECFOCK"></i>
   <i type="logical" name="LSYMGRAD"> F  </i>
   <i type="logical" name="LHFONE"> F  </i>
   <i type="logical" name="LRHFCALC"> F  </i>
   <i type="logical" name="LTHOMAS"> F  </i>
   <i type="logical" name="LMODELHF"> F  </i>
   <i type="logical" name="LFOCKACE"> F  </i>
   <i name="ENCUT4O">     -1.00000000</i>
   <i type="int" name="EXXOEP">     0</i>
   <i type="int" name="FOURORBIT">     0</i>
   <i name="AEXX">      0.00000000</i>
   <i name="HFALPHA">      0.00000000</i>
   <i name="MCALPHA">      0.00000000</i>
   <i name="ALDAX">      1.00000000</i>
   <i name="AGGAX">      1.00000000</i>
   <i name="ALDAC">      1.00000000</i>
   <i name="AGGAC">      1.00000000</i>
   <i type="int" name="NKREDX">     1</i>
   <i type="int" name="NKREDY">     1</i>
   <i type="int" name="NKREDZ">     1</i>
   <i type="logical" name="SHIFTRED"> F  </i>
   <i type="logical" name="ODDONLY"> F  </i>
   <i type="logical" name="EVENONLY"> F  </i>
   <i type="int" name="LMAXFOCK">     0</i>
   <i type="int" name="NMAXFOCKAE">     0</i>
   <i type="logical" name="LFOCKAEDFT"> F  </i>
   <i name="HFSCREEN">      0.00000000</i>
   <i name="HFSCREENC">      0.00000000</i>
   <i type="int" name="NBANDSGWLOW">     0</i>
  </separator>
  <separator name="vdW DFT" >
   <i type="logical" name="LUSE_VDW"> F  </i>
   <i type="int" name="IVDW_NL">     1</i>
   <i type="logical" name="LSPIN_VDW"> F  </i>
   <i name="Zab_VDW">     -0.84910000</i>
   <i name="PARAM1">      0.12340000</i>
   <i name="PARAM2">      1.00000000</i>
   <i name="PARAM3">      0.00000000</i>
  </separator>
  <separator name="model GW" >
   <i type="int" name="MODEL_GW">     0</i>
   <i name="MODEL_EPS0">     13.61698053</i>
   <i name="MODEL_ALPHA">      1.00000000</i>
  </separator>
  <separator name="linear response parameters" >
   <i type="logical" name="LEPSILON"> F  </i>
   <i type="logical" name="LRPA"> F  </i>
   <i type="logical" name="LNABLA"> F  </i>
   <i type="logical" name="LVEL"> F  </i>
   <i name="CSHIFT">      0.10000000</i>
   <i name="OMEGAMAX">     -1.00000000</i>
   <i name="DEG_THRESHOLD">      0.00200000</i>
   <i name="RTIME">     -0.10000000</i>
   <i name="WPLASMAI">      0.00000000</i>
   <v name="DFIELD">      0.00000000      0.00000000      0.00000000</v>
   <v name="WPLASMA">      0.00000000      0.00000000      0.00000000      0.00000000      0.00000000      0.00000000      0.00000000      0.00000000      0.00000000</v>
  </separator>
  <separator name="orbital magnetization" >
   <i type="logical" name="NUCIND"> F  </i>
   <v name="MAGPOS">      0.00000000      0.00000000      0.00000000</v>
   <i type="logical" name="LNICSALL"> T  </i>
   <i type="logical" name="ORBITALMAG"> F  </i>
   <i type="logical" name="LMAGBLOCH"> F  </i>
   <i type="logical" name="LCHIMAG"> F  </i>
   <i type="logical" name="LGAUGE"> T  </i>
   <i type="int" name="MAGATOM">     0</i>
   <v name="MAGDIPOL">      0.00000000      0.00000000      0.00000000</v>
   <v name="AVECCONST">      0.00000000      0.00000000      0.00000000</v>
  </separator>
  <separator name="response functions" >
   <i type="logical" name="LALL_IN_ONE"> F  </i>
   <i type="int" name="IALL_IN_ONE">    -1</i>
   <i type="int" name="NBANDS_WAVE">    -1</i>
   <i type="logical" name="LFINITE_TEMPERATURE"> F  </i>
   <i type="logical" name="LADDER"> F  </i>
   <i type="logical" name="LRPAFORCE"> F  </i>
   <i type="logical" name="LFXC"> F  </i>
   <i type="logical" name="LHARTREE"> T  </i>
   <i type="int" name="IBSE">     0</i>
   <v type="int" name="KPOINT">    -1     0     0     0</v>
   <i type="logical" name="LTCTC"> F  </i>
   <i type="logical" name="LTCTE"> F  </i>
   <i type="logical" name="LTETE"> F  </i>
   <i type="logical" name="LTRIPLET"> F  </i>
   <i type="logical" name="LFXCEPS"> F  </i>
   <i type="logical" name="LFXHEG"> F  </i>
   <i type="int" name="NATURALO">     2</i>
   <i type="logical" name="LHOLEGF"> F  </i>
   <i type="logical" name="L2ORDER"> F  </i>
   <i type="logical" name="LDMP1"> F  </i>
   <i type="logical" name="LMP2LT"> F  </i>
   <i type="logical" name="LSMP2LT"> F  </i>
   <i type="logical" name="LGWLF"> F  </i>
   <i name="ENCUTGW">     -1.60000002</i>
   <i name="ENCUTGWSOFT">     -1.60000002</i>
   <i name="ENCUTLF">     -1.00000000</i>
   <i type="logical" name="LESF_SPLINES"> F  </i>
   <i type="int" name="LMAXMP2">    -1</i>
   <i name="SCISSOR">      0.00000000</i>
   <i type="int" name="NOMEGA">     0</i>
   <i type="int" name="NOMEGAR">     0</i>
   <i type="int" name="NBANDSGW">    -1</i>
   <i type="int" name="NBANDSO">    -1</i>
   <i type="int" name="NBANDSV">    -1</i>
   <i type="int" name="NELMGW">     1</i>
   <i type="int" name="NELMHF">     1</i>
   <i type="int" name="DIM">     3</i>
   <i type="int" name="IESPILON">     4</i>
   <i type="int" name="ANTIRES">     0</i>
   <i name="OMEGAMAX">    -30.00000000</i>
   <i name="OMEGAMIN">    -30.00000000</i>
   <i name="OMEGATL">   -200.00000000</i>
   <i type="int" name="OMEGAGRID">     0</i>
   <i name="CSHIFT">     -0.10000000</i>
   <i type="logical" name="LSELFENERGY"> F  </i>
   <i type="logical" name="LSPECTRAL"> F  </i>
   <i type="logical" name="LSPECTRALGW"> F  </i>
   <i type="logical" name="LSINGLES"> F  </i>
   <i type="logical" name="LFERMIGW"> F  </i>
   <i type="logical" name="ODDONLYGW"> F  </i>
   <i type="logical" name="EVENONLYGW"> F  </i>
   <i type="int" name="NKREDLFX">     1</i>
   <i type="int" name="NKREDLFY">     1</i>
   <i type="int" name="NKREDLFZ">     1</i>
   <i type="int" name="MAXMEM">  2800</i>
   <i type="int" name="TELESCOPE">     0</i>
   <i type="int" name="NTAUPAR">    -1</i>
   <i type="int" name="NOMEGAPAR">    -1</i>
   <i name="DAMP_NEWTON">      0.80000001</i>
   <i name="LAMBDA">      1.00000000</i>
  </separator>
  <separator name="External order field" >
   <i name="OFIELD_KAPPA">      0.00000000</i>
   <v name="OFIELD_K">      0.00000000      0.00000000      0.00000000</v>
   <i name="OFIELD_Q6_NEAR">      0.00000000</i>
   <i name="OFIELD_Q6_FAR">      0.00000000</i>
   <i name="OFIELD_A">      0.00000000</i>
  </separator>
  <separator name="optional k-points parameters" >
   <i type="int" name="KPOINTS_OPT_MODE">     1</i>
   <i type="logical" name="LKPOINTS_OPT"> F  </i>
  </separator>
 </parameters>
 <atominfo>
  <atoms>       8 </atoms>
  <types>       2 </types>
  <array name="atoms" >
   <dimension dim="1">ion</dimension>
   <field type="string">element</field>
   <field type="int">atomtype</field>
   <set>
    <rc><c>Ga</c><c>   1</c></rc>
    <rc><c>Ga</c><c>   1</c></rc>
    <rc><c>Ga</c><c>   1</c></rc>
    <rc><c>Ga</c><c>   1</c></rc>
    <rc><c>As</c><c>   2</c></rc>
    <rc><c>As</c><c>   2</c></rc>
    <rc><c>As</c><c>   2</c></rc>
    <rc><c>As</c><c>   2</c></rc>
   </set>
  </array>
  <array name="atomtypes" >
   <dimension dim="1">type</dimension>
   <field type="int">atomspertype</field>
   <field type="string">element</field>
   <field>mass</field>
   <field>valence</field>
   <field type="string">pseudopotential</field>
   <set>
    <rc><c>   4</c><c>Ga</c><c>     69.72300000</c><c>     13.00000000</c><c>  PAW_PBE Ga_d 06Jul2010                </c></rc>
    <rc><c>   4</c><c>As</c><c>     74.92200000</c><c>      5.00000000</c><c>  PAW_PBE As 22Sep2009                  </c></rc>
   </set>
  </array>
 </atominfo>
 <structure name="initialpos" >
  <crystal>
   <varray name="basis" >
    <v>       5.66247787       0.00000000       0.00000000 </v>
    <v>      -0.00000000       5.66247787       0.00000000 </v>
    <v>       0.00000000       0.00000000       5.66247787 </v>
   </varray>
   <i name="volume">    181.55974043 </i>
   <varray name="rec_basis" >
    <v>       0.17660113       0.00000000       0.00000000 </v>
    <v>       0.00000000       0.17660113       0.00000000 </v>
    <v>      -0.00000000      -0.00000000       0.17660113 </v>
   </varray>
  </crystal>
  <varray name="positions" >
   <v>       0.00000000       0.00000000       0.00000000 </v>
   <v>       0.50000000       0.50000000       0.00000000 </v>
   <v>       0.50000000       0.00000000       0.50000000 </v>
   <v>       0.00000000       0.50000000       0.50000000 </v>
   <v>       0.25000000       0.25000000       0.25000000 </v>
   <v>       0.25000000       0.75000000       0.75000000 </v>
   <v>       0.75000000       0.75000000       0.25000000 </v>
   <v>       0.75000000       0.25000000       0.75000000 </v>
  </varray>
 </structure>
 <calculation>
  <scstep>
   <time name="dav">    0.60    1.99</time>
   <time name="total">    1.07    2.53</time>
   <energy>
    <i name="alphaZ">    240.03196352 </i>
    <i name="ewald">  -5054.07144589 </i>
    <i name="hartreedc">  -2907.65291757 </i>
    <i name="XCdc">    135.59603044 </i>
    <i name="pawpsdc">   6994.57723948 </i>
    <i name="pawaedc">  -8244.91655855 </i>
    <i name="eentropy">      0.00000000 </i>
    <i name="bandstr">    154.96614672 </i>
    <i name="atom">   9271.54367517 </i>
    <i name="e_fr_energy">    590.07413330 </i>
    <i name="e_wo_entrp">    590.07413330 </i>
    <i name="e_0_energy">    590.07413330 </i>
   </energy>
  </scstep>
  <scstep>
   <time name="dav">    0.44    0.44</time>
   <time name="total">    0.44    0.45</time>
   <energy>
    <i name="e_fr_energy">     45.82606948 </i>
    <i name="e_wo_entrp">     45.82606948 </i>
    <i name="e_0_energy">     45.82606948 </i>
   </energy>
  </scstep>
  <scstep>
   <time name="dav">    0.43    0.46</time>
   <time name="total">    0.44    0.47</time>
   <energy>
    <i name="e_fr_energy">    -33.47442079 </i>
    <i name="e_wo_entrp">    -33.47442079 </i>
    <i name="e_0_energy">    -33.47442079 </i>
   </energy>
  </scstep>
  <scstep>
   <time name="dav">    0.44    0.46</time>
   <time name="total">    0.44    0.46</time>
   <energy>
    <i name="e_fr_energy">    -37.05362031 </i>
    <i name="e_wo_entrp">    -37.05362031 </i>
    <i name="e_0_energy">    -37.05362031 </i>
   </energy>
  </scstep>
  <scstep>
   <time name="dav">    0.42    0.44</time>
   <time name="total">    0.49    0.52</time>
   <energy>
    <i name="e_fr_energy">    -37.13769512 </i>
    <i name="e_wo_entrp">    -37.13769512 </i>
    <i name="e_0_energy">    -37.13769512 </i>
   </energy>
  </scstep>
  <scstep>
   <time name="diag">    0.13    0.13</time>
   <time name="diis">    0.21    0.21</time>
   <time name="orth">    0.02    0.02</time>
   <time name="total">    0.90    0.94</time>
   <energy>
    <i name="e_fr_energy">    -36.47657342 </i>
    <i name="e_wo_entrp">    -36.47657342 </i>
    <i name="e_0_energy">    -36.47657342 </i>
   </energy>
  </scstep>
  <scstep>
   <time name="diag">    0.12    0.12</time>
   <time name="diis">    0.13    0.13</time>
   <time name="orth">    0.02    0.02</time>
   <time name="total">    0.81    0.82</time>
   <energy>
    <i name="e_fr_energy">    -36.35158582 </i>
    <i name="e_wo_entrp">    -36.35158582 </i>
    <i name="e_0_energy">    -36.35158582 </i>
   </energy>
  </scstep>
  <scstep>
   <time name="diag">    0.12    0.12</time>
   <time name="diis">    0.14    0.14</time>
   <time name="orth">    0.02    0.02</time>
   <time name="total">    0.82    0.84</time>
   <energy>
    <i name="e_fr_energy">    -36.34350972 </i>
    <i name="e_wo_entrp">    -36.34350972 </i>
    <i name="e_0_energy">    -36.34350972 </i>
   </energy>
  </scstep>
  <scstep>
   <time name="diag">    0.11    0.11</time>
   <time name="diis">    0.14    0.14</time>
   <time name="orth">    0.02    0.02</time>
   <time name="total">    0.82    0.84</time>
   <energy>
    <i name="e_fr_energy">    -36.34400197 </i>
    <i name="e_wo_entrp">    -36.34400197 </i>
    <i name="e_0_energy">    -36.34400197 </i>
   </energy>
  </scstep>
  <scstep>
   <time name="diag">    0.12    0.12</time>
   <time name="diis">    0.17    0.17</time>
   <time name="orth">    0.02    0.02</time>
   <time name="total">    0.85    0.87</time>
   <energy>
    <i name="e_fr_energy">    -36.34433354 </i>
    <i name="e_wo_entrp">    -36.34433354 </i>
    <i name="e_0_energy">    -36.34433354 </i>
   </energy>
  </scstep>
  <scstep>
   <time name="diag">    0.12    0.12</time>
   <time name="diis">    0.13    0.13</time>
   <time name="orth">    0.02    0.02</time>
   <time name="total">    0.81    0.83</time>
   <energy>
    <i name="e_fr_energy">    -36.34439123 </i>
    <i name="e_wo_entrp">    -36.34439123 </i>
    <i name="e_0_energy">    -36.34439123 </i>
   </energy>
  </scstep>
  <scstep>
   <time name="diag">    0.12    0.12</time>
   <time name="diis">    0.11    0.11</time>
   <time name="orth">    0.02    0.02</time>
   <time name="total">    0.74    0.76</time>
   <energy>
    <i name="alphaZ">    240.03196352 </i>
    <i name="ewald">  -5054.07144589 </i>
    <i name="hartreedc">  -2889.59929725 </i>
    <i name="XCdc">    135.81614987 </i>
    <i name="pawpsdc">   8020.90429218 </i>
    <i name="pawaedc">  -9272.86120659 </i>
    <i name="eentropy">      0.00000000 </i>
    <i name="bandstr">   -488.10852382 </i>
    <i name="atom">   9271.54367517 </i>
    <i name="e_fr_energy">    -36.34439281 </i>
    <i name="e_wo_entrp">    -36.34439281 </i>
    <i name="e_0_energy">    -36.34439281 </i>
   </energy>
  </scstep>
  <structure>
   <crystal>
    <varray name="basis" >
     <v>       5.66247787       0.00000000       0.00000000 </v>
     <v>      -0.00000000       5.66247787       0.00000000 </v>
     <v>       0.00000000       0.00000000       5.66247787 </v>
    </varray>
    <i name="volume">    181.55974043 </i>
    <varray name="rec_basis" >
     <v>       0.17660113       0.00000000       0.00000000 </v>
     <v>       0.00000000       0.17660113       0.00000000 </v>
     <v>      -0.00000000      -0.00000000       0.17660113 </v>
    </varray>
   </crystal>
   <varray name="positions" >
    <v>       0.00000000       0.00000000       0.00000000 </v>
    <v>       0.50000000       0.50000000       0.00000000 </v>
    <v>       0.50000000       0.00000000       0.50000000 </v>
    <v>       0.00000000       0.50000000       0.50000000 </v>
    <v>       0.25000000       0.25000000       0.25000000 </v>
    <v>       0.25000000       0.75000000       0.75000000 </v>
    <v>       0.75000000       0.75000000       0.25000000 </v>
    <v>       0.75000000       0.25000000       0.75000000 </v>
   </varray>
  </structure>
  <varray name="forces" >
   <v>       0.00000000      -0.00000000       0.00000000 </v>
   <v>      -0.00000000       0.00000000       0.00000000 </v>
   <v>       0.00000000      -0.00000000       0.00000000 </v>
   <v>       0.00000000       0.00000000       0.00000000 </v>
   <v>      -0.00000000      -0.00000000      -0.00000000 </v>
   <v>      -0.00000000       0.00000000      -0.00000000 </v>
   <v>      -0.00000000      -0.00000000      -0.00000000 </v>
   <v>      -0.00000000      -0.00000000      -0.00000000 </v>
  </varray>
  <varray name="stress" >
   <v>       0.15625716       0.00000000      -0.00000000 </v>
   <v>       0.00000000       0.15625716      -0.00000000 </v>
   <v>      -0.00000000      -0.00000000       0.15625716 </v>
  </varray>
  <energy>
   <i name="e_fr_energy">    -36.34439281 </i>
   <i name="e_wo_entrp">    -36.34439281 </i>
   <i name="e_0_energy">    -36.34439281 </i>
  </energy>
  <time name="totalsc">   11.79   13.59</time>
  <eigenvalues>
   <array>
    <dimension dim="1">band</dimension>
    <dimension dim="2">kpoint</dimension>
    <dimension dim="3">spin</dimension>
    <field>eigene</field>
    <field>occ</field>
    <set>
     <set comment="spin 1">
      <set comment="kpoint 1">
       <r>  -11.1193    1.0000 </r>
       <r>  -11.1193    1.0000 </r>
       <r>  -11.1193    1.0000 </r>
       <r>  -11.0080    1.0000 </r>
       <r>  -11.0080    1.0000 </r>
       <r>  -11.0080    1.0000 </r>
       <r>  -10.9592    1.0000 </r>
       <r>  -10.9592    1.0000 </r>
       <r>  -10.9592    1.0000 </r>
       <r>  -10.9592    1.0000 </r>
       <r>  -10.9592    1.0000 </r>
       <r>  -10.9592    1.0000 </r>
       <r>  -10.9549    1.0000 </r>
       <r>  -10.9549    1.0000 </r>
       <r>  -10.9549    1.0000 </r>
       <r>  -10.9292    1.0000 </r>
       <r>  -10.9292    1.0000 </r>
       <r>  -10.9164    1.0000 </r>
       <r>  -10.9164    1.0000 </r>
       <r>  -10.9164    1.0000 </r>
       <r>   -8.9566    1.0000 </r>
       <r>   -6.4548    1.0000 </r>
       <r>   -6.4548    1.0000 </r>
       <r>   -6.4548    1.0000 </r>
       <r>   -3.0672    1.0000 </r>
       <r>   -3.0672    1.0000 </r>
       <r>   -3.0672    1.0000 </r>
       <r>    1.0805    1.0000 </r>
       <r>    1.0805    1.0000 </r>
       <r>    1.0805    1.0000 </r>
       <r>    1.0805    1.0000 </r>
       <r>    1.0805    1.0000 </r>
       <r>    1.0805    1.0000 </r>
       <r>    3.7625    1.0000 </r>
       <r>    3.7625    1.0000 </r>
       <r>    3.7625    1.0000 </r>
       <r>    4.1827    0.0000 </r>
       <r>    5.1199    0.0000 </r>
       <r>    5.1199    0.0000 </r>
       <r>    5.1199    0.0000 </r>
       <r>    5.3362    0.0000 </r>
       <r>    5.3362    0.0000 </r>
       <r>    5.3362    0.0000 </r>
       <r>    7.4502    0.0000 </r>
       <r>    7.4502    0.0000 </r>
       <r>    7.4502    0.0000 </r>
       <r>   11.1372    0.0000 </r>
       <r>   13.8601    0.0000 </r>
      </set>
      <set comment="kpoint 2">
       <r>  -11.1133    1.0000 </r>
       <r>  -11.1133    1.0000 </r>
       <r>  -11.1064    1.0000 </r>
       <r>  -11.0292    1.0000 </r>
       <r>  -11.0011    1.0000 </r>
       <r>  -11.0011    1.0000 </r>
       <r>  -10.9679    1.0000 </r>
       <r>  -10.9679    1.0000 </r>
       <r>  -10.9666    1.0000 </r>
       <r>  -10.9666    1.0000 </r>
       <r>  -10.9624    1.0000 </r>
       <r>  -10.9624    1.0000 </r>
       <r>  -10.9506    1.0000 </r>
       <r>  -10.9475    1.0000 </r>
       <r>  -10.9475    1.0000 </r>
       <r>  -10.9321    1.0000 </r>
       <r>  -10.9273    1.0000 </r>
       <r>  -10.9199    1.0000 </r>
       <r>  -10.9199    1.0000 </r>
       <r>  -10.9183    1.0000 </r>
       <r>   -8.7135    1.0000 </r>
       <r>   -7.0697    1.0000 </r>
       <r>   -6.4258    1.0000 </r>
       <r>   -6.4258    1.0000 </r>
       <r>   -2.9792    1.0000 </r>
       <r>   -2.9792    1.0000 </r>
       <r>   -2.1621    1.0000 </r>
       <r>    0.6071    1.0000 </r>
       <r>    0.6071    1.0000 </r>
       <r>    0.7018    1.0000 </r>
       <r>    0.7018    1.0000 </r>
       <r>    1.3370    1.0000 </r>
       <r>    1.3370    1.0000 </r>
       <r>    1.7402    1.0000 </r>
       <r>    3.1018    1.0000 </r>
       <r>    3.1018    1.0000 </r>
       <r>    5.1313    0.0000 </r>
       <r>    5.9656    0.0000 </r>
       <r>    6.0627    0.0000 </r>
       <r>    6.2250    0.0000 </r>
       <r>    6.2250    0.0000 </r>
       <r>    6.4480    0.0000 </r>
       <r>    6.4480    0.0000 </r>
       <r>    6.7807    0.0000 </r>
       <r>    8.4102    0.0000 </r>
       <r>    8.4102    0.0000 </r>
       <r>   11.7003    0.0000 </r>
       <r>   11.8580    0.0000 </r>
      </set>
      <set comment="kpoint 3">
       <r>  -11.1064    1.0000 </r>
       <r>  -11.1064    1.0000 </r>
       <r>  -11.0716    1.0000 </r>
       <r>  -11.0716    1.0000 </r>
       <r>  -10.9842    1.0000 </r>
       <r>  -10.9842    1.0000 </r>
       <r>  -10.9842    1.0000 </r>
       <r>  -10.9842    1.0000 </r>
       <r>  -10.9774    1.0000 </r>
       <r>  -10.9774    1.0000 </r>
       <r>  -10.9638    1.0000 </r>
       <r>  -10.9638    1.0000 </r>
       <r>  -10.9408    1.0000 </r>
       <r>  -10.9408    1.0000 </r>
       <r>  -10.9402    1.0000 </r>
       <r>  -10.9402    1.0000 </r>
       <r>  -10.9252    1.0000 </r>
       <r>  -10.9252    1.0000 </r>
       <r>  -10.9228    1.0000 </r>
       <r>  -10.9228    1.0000 </r>
       <r>   -8.0300    1.0000 </r>
       <r>   -8.0300    1.0000 </r>
       <r>   -6.3962    1.0000 </r>
       <r>   -6.3962    1.0000 </r>
       <r>   -2.8793    1.0000 </r>
       <r>   -2.8793    1.0000 </r>
       <r>   -0.3479    1.0000 </r>
       <r>   -0.3479    1.0000 </r>
       <r>    0.2088    1.0000 </r>
       <r>    0.2088    1.0000 </r>
       <r>    0.3997    1.0000 </r>
       <r>    0.3997    1.0000 </r>
       <r>    2.0678    1.0000 </r>
       <r>    2.0678    1.0000 </r>
       <r>    2.0678    1.0000 </r>
       <r>    2.0677    1.0000 </r>
       <r>    5.6626    0.0000 </r>
       <r>    5.6626    0.0000 </r>
       <r>    6.9473    0.0000 </r>
       <r>    6.9473    0.0000 </r>
       <r>    8.3347    0.0000 </r>
       <r>    8.3348    0.0000 </r>
       <r>    8.3879    0.0000 </r>
       <r>    8.3879    0.0000 </r>
       <r>    9.0903    0.0000 </r>
       <r>    9.0907    0.0000 </r>
       <r>    9.6988    0.0000 </r>
       <r>    9.7142    0.0000 </r>
      </set>
      <set comment="kpoint 4">
       <r>  -11.1079    1.0000 </r>
       <r>  -11.1024    1.0000 </r>
       <r>  -11.1024    1.0000 </r>
       <r>  -11.0407    1.0000 </r>
       <r>  -11.0005    1.0000 </r>
       <r>  -10.9971    1.0000 </r>
       <r>  -10.9742    1.0000 </r>
       <r>  -10.9742    1.0000 </r>
       <r>  -10.9730    1.0000 </r>
       <r>  -10.9687    1.0000 </r>
       <r>  -10.9687    1.0000 </r>
       <r>  -10.9660    1.0000 </r>
       <r>  -10.9448    1.0000 </r>
       <r>  -10.9448    1.0000 </r>
       <r>  -10.9432    1.0000 </r>
       <r>  -10.9314    1.0000 </r>
       <r>  -10.9278    1.0000 </r>
       <r>  -10.9226    1.0000 </r>
       <r>  -10.9207    1.0000 </r>
       <r>  -10.9207    1.0000 </r>
       <r>   -8.4819    1.0000 </r>
       <r>   -6.9554    1.0000 </r>
       <r>   -6.9554    1.0000 </r>
       <r>   -6.4908    1.0000 </r>
       <r>   -2.8795    1.0000 </r>
       <r>   -2.2972    1.0000 </r>
       <r>   -2.2972    1.0000 </r>
       <r>   -0.1186    1.0000 </r>
       <r>    0.6001    1.0000 </r>
       <r>    0.7051    1.0000 </r>
       <r>    0.7051    1.0000 </r>
       <r>    1.2759    1.0000 </r>
       <r>    1.2759    1.0000 </r>
       <r>    1.5008    1.0000 </r>
       <r>    2.3891    1.0000 </r>
       <r>    3.4836    1.0000 </r>
       <r>    5.6322    0.0000 </r>
       <r>    5.9939    0.0000 </r>
       <r>    6.3257    0.0000 </r>
       <r>    6.3257    0.0000 </r>
       <r>    6.8799    0.0000 </r>
       <r>    6.8799    0.0000 </r>
       <r>    7.7573    0.0000 </r>
       <r>    7.9251    0.0000 </r>
       <r>    8.3221    0.0000 </r>
       <r>    9.0952    0.0000 </r>
       <r>    9.9579    0.0000 </r>
       <r>    9.9580    0.0000 </r>
      </set>
      <set comment="kpoint 5">
       <r>  -11.1000    1.0000 </r>
       <r>  -11.1000    1.0000 </r>
       <r>  -11.0735    1.0000 </r>
       <r>  -11.0735    1.0000 </r>
       <r>  -10.9877    1.0000 </r>
       <r>  -10.9877    1.0000 </r>
       <r>  -10.9849    1.0000 </r>
       <r>  -10.9849    1.0000 </r>
       <r>  -10.9806    1.0000 </r>
       <r>  -10.9806    1.0000 </r>
       <r>  -10.9698    1.0000 </r>
       <r>  -10.9698    1.0000 </r>
       <r>  -10.9372    1.0000 </r>
       <r>  -10.9372    1.0000 </r>
       <r>  -10.9370    1.0000 </r>
       <r>  -10.9370    1.0000 </r>
       <r>  -10.9263    1.0000 </r>
       <r>  -10.9263    1.0000 </r>
       <r>  -10.9241    1.0000 </r>
       <r>  -10.9241    1.0000 </r>
       <r>   -7.8358    1.0000 </r>
       <r>   -7.8358    1.0000 </r>
       <r>   -6.6990    1.0000 </r>
       <r>   -6.6990    1.0000 </r>
       <r>   -2.6123    1.0000 </r>
       <r>   -2.6123    1.0000 </r>
       <r>   -0.9372    1.0000 </r>
       <r>   -0.9372    1.0000 </r>
       <r>   -0.0653    1.0000 </r>
       <r>   -0.0653    1.0000 </r>
       <r>    1.3507    1.0000 </r>
       <r>    1.3507    1.0000 </r>
       <r>    1.4401    1.0000 </r>
       <r>    1.4401    1.0000 </r>
       <r>    2.4579    1.0000 </r>
       <r>    2.4579    1.0000 </r>
       <r>    6.7511    0.0000 </r>
       <r>    6.7511    0.0000 </r>
       <r>    7.0278    0.0000 </r>
       <r>    7.0278    0.0000 </r>
       <r>    7.2002    0.0000 </r>
       <r>    7.2002    0.0000 </r>
       <r>    8.9125    0.0000 </r>
       <r>    8.9129    0.0000 </r>
       <r>    9.0307    0.0000 </r>
       <r>    9.0314    0.0000 </r>
       <r>    9.1173    0.0000 </r>
       <r>    9.1192    0.0000 </r>
      </set>
      <set comment="kpoint 6">
       <r>  -11.0847    1.0000 </r>
       <r>  -11.0847    1.0000 </r>
       <r>  -11.0847    1.0000 </r>
       <r>  -11.0847    1.0000 </r>
       <r>  -10.9850    1.0000 </r>
       <r>  -10.9850    1.0000 </r>
       <r>  -10.9850    1.0000 </r>
       <r>  -10.9850    1.0000 </r>
       <r>  -10.9829    1.0000 </r>
       <r>  -10.9829    1.0000 </r>
       <r>  -10.9829    1.0000 </r>
       <r>  -10.9829    1.0000 </r>
       <r>  -10.9311    1.0000 </r>
       <r>  -10.9311    1.0000 </r>
       <r>  -10.9311    1.0000 </r>
       <r>  -10.9311    1.0000 </r>
       <r>  -10.9290    1.0000 </r>
       <r>  -10.9290    1.0000 </r>
       <r>  -10.9290    1.0000 </r>
       <r>  -10.9290    1.0000 </r>
       <r>   -7.3182    1.0000 </r>
       <r>   -7.3182    1.0000 </r>
       <r>   -7.3182    1.0000 </r>
       <r>   -7.3182    1.0000 </r>
       <r>   -1.8957    1.0000 </r>
       <r>   -1.8957    1.0000 </r>
       <r>   -1.8957    1.0000 </r>
       <r>   -1.8957    1.0000 </r>
       <r>    0.3778    1.0000 </r>
       <r>    0.3778    1.0000 </r>
       <r>    0.3778    1.0000 </r>
       <r>    0.3778    1.0000 </r>
       <r>    2.5409    1.0000 </r>
       <r>    2.5409    1.0000 </r>
       <r>    2.5409    1.0000 </r>
       <r>    2.5409    1.0000 </r>
       <r>    6.4229    0.0000 </r>
       <r>    6.4229    0.0000 </r>
       <r>    6.4229    0.0000 </r>
       <r>    6.4229    0.0000 </r>
       <r>    9.2972    0.0000 </r>
       <r>    9.3015    0.0000 </r>
       <r>    9.3205    0.0000 </r>
       <r>    9.3498    0.0000 </r>
       <r>    9.3744    0.0000 </r>
       <r>    9.3897    0.0000 </r>
       <r>    9.4122    0.0000 </r>
       <r>    9.4865    0.0000 </r>
      </set>
      <set comment="kpoint 7">
       <r>  -11.0994    1.0000 </r>
       <r>  -11.0994    1.0000 </r>
       <r>  -11.0994    1.0000 </r>
       <r>  -11.0512    1.0000 </r>
       <r>  -10.9968    1.0000 </r>
       <r>  -10.9968    1.0000 </r>
       <r>  -10.9782    1.0000 </r>
       <r>  -10.9782    1.0000 </r>
       <r>  -10.9782    1.0000 </r>
       <r>  -10.9729    1.0000 </r>
       <r>  -10.9729    1.0000 </r>
       <r>  -10.9729    1.0000 </r>
       <r>  -10.9402    1.0000 </r>
       <r>  -10.9402    1.0000 </r>
       <r>  -10.9402    1.0000 </r>
       <r>  -10.9289    1.0000 </r>
       <r>  -10.9289    1.0000 </r>
       <r>  -10.9222    1.0000 </r>
       <r>  -10.9222    1.0000 </r>
       <r>  -10.9222    1.0000 </r>
       <r>   -8.2648    1.0000 </r>
       <r>   -6.9046    1.0000 </r>
       <r>   -6.9046    1.0000 </r>
       <r>   -6.9046    1.0000 </r>
       <r>   -2.5229    1.0000 </r>
       <r>   -2.5229    1.0000 </r>
       <r>   -2.5229    1.0000 </r>
       <r>   -0.3976    1.0000 </r>
       <r>    0.5078    1.0000 </r>
       <r>    0.5078    1.0000 </r>
       <r>    0.5078    1.0000 </r>
       <r>    1.7199    1.0000 </r>
       <r>    1.7199    1.0000 </r>
       <r>    1.7199    1.0000 </r>
       <r>    3.0833    1.0000 </r>
       <r>    3.0833    1.0000 </r>
       <r>    5.1336    0.0000 </r>
       <r>    5.8792    0.0000 </r>
       <r>    5.8792    0.0000 </r>
       <r>    5.8792    0.0000 </r>
       <r>    8.3127    0.0000 </r>
       <r>    8.3127    0.0000 </r>
       <r>    8.3962    0.0000 </r>
       <r>    8.3962    0.0000 </r>
       <r>    8.3964    0.0000 </r>
       <r>    9.6246    0.0000 </r>
       <r>    9.8921    0.0000 </r>
       <r>    9.8936    0.0000 </r>
      </set>
      <set comment="kpoint 8">
       <r>  -11.0961    1.0000 </r>
       <r>  -11.0961    1.0000 </r>
       <r>  -11.0768    1.0000 </r>
       <r>  -11.0768    1.0000 </r>
       <r>  -10.9893    1.0000 </r>
       <r>  -10.9893    1.0000 </r>
       <r>  -10.9864    1.0000 </r>
       <r>  -10.9864    1.0000 </r>
       <r>  -10.9834    1.0000 </r>
       <r>  -10.9834    1.0000 </r>
       <r>  -10.9758    1.0000 </r>
       <r>  -10.9758    1.0000 </r>
       <r>  -10.9337    1.0000 </r>
       <r>  -10.9337    1.0000 </r>
       <r>  -10.9336    1.0000 </r>
       <r>  -10.9336    1.0000 </r>
       <r>  -10.9257    1.0000 </r>
       <r>  -10.9257    1.0000 </r>
       <r>  -10.9242    1.0000 </r>
       <r>  -10.9242    1.0000 </r>
       <r>   -7.6698    1.0000 </r>
       <r>   -7.6698    1.0000 </r>
       <r>   -6.8511    1.0000 </r>
       <r>   -6.8511    1.0000 </r>
       <r>   -2.7381    1.0000 </r>
       <r>   -2.7381    1.0000 </r>
       <r>   -1.6413    1.0000 </r>
       <r>   -1.6413    1.0000 </r>
       <r>    0.5162    1.0000 </r>
       <r>    0.5162    1.0000 </r>
       <r>    1.8180    1.0000 </r>
       <r>    1.8180    1.0000 </r>
       <r>    1.9800    1.0000 </r>
       <r>    1.9800    1.0000 </r>
       <r>    2.3210    1.0000 </r>
       <r>    2.3210    1.0000 </r>
       <r>    5.9455    0.0000 </r>
       <r>    5.9455    0.0000 </r>
       <r>    6.7247    0.0000 </r>
       <r>    6.7247    0.0000 </r>
       <r>    7.8389    0.0000 </r>
       <r>    7.8389    0.0000 </r>
       <r>    7.8614    0.0000 </r>
       <r>    7.8614    0.0000 </r>
       <r>    9.2834    0.0000 </r>
       <r>    9.2879    0.0000 </r>
       <r>    9.8661    0.0000 </r>
       <r>    9.9838    0.0000 </r>
      </set>
      <set comment="kpoint 9">
       <r>  -11.0862    1.0000 </r>
       <r>  -11.0862    1.0000 </r>
       <r>  -11.0862    1.0000 </r>
       <r>  -11.0862    1.0000 </r>
       <r>  -10.9870    1.0000 </r>
       <r>  -10.9870    1.0000 </r>
       <r>  -10.9870    1.0000 </r>
       <r>  -10.9870    1.0000 </r>
       <r>  -10.9860    1.0000 </r>
       <r>  -10.9860    1.0000 </r>
       <r>  -10.9860    1.0000 </r>
       <r>  -10.9860    1.0000 </r>
       <r>  -10.9281    1.0000 </r>
       <r>  -10.9281    1.0000 </r>
       <r>  -10.9281    1.0000 </r>
       <r>  -10.9281    1.0000 </r>
       <r>  -10.9271    1.0000 </r>
       <r>  -10.9271    1.0000 </r>
       <r>  -10.9271    1.0000 </r>
       <r>  -10.9271    1.0000 </r>
       <r>   -7.2574    1.0000 </r>
       <r>   -7.2574    1.0000 </r>
       <r>   -7.2574    1.0000 </r>
       <r>   -7.2574    1.0000 </r>
       <r>   -2.4829    1.0000 </r>
       <r>   -2.4829    1.0000 </r>
       <r>   -2.4829    1.0000 </r>
       <r>   -2.4829    1.0000 </r>
       <r>    1.4111    1.0000 </r>
       <r>    1.4111    1.0000 </r>
       <r>    1.4111    1.0000 </r>
       <r>    1.4111    1.0000 </r>
       <r>    2.5801    1.0000 </r>
       <r>    2.5801    1.0000 </r>
       <r>    2.5801    1.0000 </r>
       <r>    2.5801    1.0000 </r>
       <r>    5.7929    0.0000 </r>
       <r>    5.7929    0.0000 </r>
       <r>    5.7929    0.0000 </r>
       <r>    5.7929    0.0000 </r>
       <r>    8.2355    0.0000 </r>
       <r>    8.2355    0.0000 </r>
       <r>    8.2355    0.0000 </r>
       <r>    8.2355    0.0000 </r>
       <r>    8.7621    0.0000 </r>
       <r>    8.7621    0.0000 </r>
       <r>    8.7621    0.0000 </r>
       <r>    8.7621    0.0000 </r>
      </set>
      <set comment="kpoint 10">
       <r>  -11.0879    1.0000 </r>
       <r>  -11.0879    1.0000 </r>
       <r>  -11.0879    1.0000 </r>
       <r>  -11.0879    1.0000 </r>
       <r>  -10.9888    1.0000 </r>
       <r>  -10.9888    1.0000 </r>
       <r>  -10.9888    1.0000 </r>
       <r>  -10.9888    1.0000 </r>
       <r>  -10.9888    1.0000 </r>
       <r>  -10.9888    1.0000 </r>
       <r>  -10.9888    1.0000 </r>
       <r>  -10.9888    1.0000 </r>
       <r>  -10.9254    1.0000 </r>
       <r>  -10.9254    1.0000 </r>
       <r>  -10.9254    1.0000 </r>
       <r>  -10.9254    1.0000 </r>
       <r>  -10.9254    1.0000 </r>
       <r>  -10.9254    1.0000 </r>
       <r>  -10.9254    1.0000 </r>
       <r>  -10.9254    1.0000 </r>
       <r>   -7.1925    1.0000 </r>
       <r>   -7.1925    1.0000 </r>
       <r>   -7.1925    1.0000 </r>
       <r>   -7.1925    1.0000 </r>
       <r>   -2.8941    1.0000 </r>
       <r>   -2.8941    1.0000 </r>
       <r>   -2.8941    1.0000 </r>
       <r>   -2.8941    1.0000 </r>
       <r>    2.6208    1.0000 </r>
       <r>    2.6208    1.0000 </r>
       <r>    2.6208    1.0000 </r>
       <r>    2.6208    1.0000 </r>
       <r>    2.6208    1.0000 </r>
       <r>    2.6208    1.0000 </r>
       <r>    2.6208    1.0000 </r>
       <r>    2.6208    1.0000 </r>
       <r>    4.6773    0.0000 </r>
       <r>    4.6773    0.0000 </r>
       <r>    4.6773    0.0000 </r>
       <r>    4.6773    0.0000 </r>
       <r>    8.3437    0.0000 </r>
       <r>    8.3437    0.0000 </r>
       <r>    8.3437    0.0000 </r>
       <r>    8.3437    0.0000 </r>
       <r>    8.3437    0.0000 </r>
       <r>    8.3437    0.0000 </r>
       <r>    8.3437    0.0000 </r>
       <r>    8.3437    0.0000 </r>
      </set>
     </set>
     <set comment="spin 2">
      <set comment="kpoint 1">
       <r>  -11.1193    1.0000 </r>
       <r>  -11.1193    1.0000 </r>
       <r>  -11.1193    1.0000 </r>
       <r>  -11.0080    1.0000 </r>
       <r>  -11.0080    1.0000 </r>
       <r>  -11.0080    1.0000 </r>
       <r>  -10.9592    1.0000 </r>
       <r>  -10.9592    1.0000 </r>
       <r>  -10.9592    1.0000 </r>
       <r>  -10.9592    1.0000 </r>
       <r>  -10.9592    1.0000 </r>
       <r>  -10.9592    1.0000 </r>
       <r>  -10.9549    1.0000 </r>
       <r>  -10.9549    1.0000 </r>
       <r>  -10.9549    1.0000 </r>
       <r>  -10.9292    1.0000 </r>
       <r>  -10.9292    1.0000 </r>
       <r>  -10.9164    1.0000 </r>
       <r>  -10.9164    1.0000 </r>
       <r>  -10.9164    1.0000 </r>
       <r>   -8.9566    1.0000 </r>
       <r>   -6.4548    1.0000 </r>
       <r>   -6.4548    1.0000 </r>
       <r>   -6.4548    1.0000 </r>
       <r>   -3.0672    1.0000 </r>
       <r>   -3.0672    1.0000 </r>
       <r>   -3.0672    1.0000 </r>
       <r>    1.0805    1.0000 </r>
       <r>    1.0805    1.0000 </r>
       <r>    1.0805    1.0000 </r>
       <r>    1.0805    1.0000 </r>
       <r>    1.0805    1.0000 </r>
       <r>    1.0805    1.0000 </r>
       <r>    3.7625    1.0000 </r>
       <r>    3.7625    1.0000 </r>
       <r>    3.7625    1.0000 </r>
       <r>    4.1827    0.0000 </r>
       <r>    5.1199    0.0000 </r>
       <r>    5.1199    0.0000 </r>
       <r>    5.1199    0.0000 </r>
       <r>    5.3362    0.0000 </r>
       <r>    5.3362    0.0000 </r>
       <r>    5.3362    0.0000 </r>
       <r>    7.4502    0.0000 </r>
       <r>    7.4502    0.0000 </r>
       <r>    7.4502    0.0000 </r>
       <r>   11.1373    0.0000 </r>
       <r>   13.8611    0.0000 </r>
      </set>
      <set comment="kpoint 2">
       <r>  -11.1133    1.0000 </r>
       <r>  -11.1133    1.0000 </r>
       <r>  -11.1064    1.0000 </r>
       <r>  -11.0292    1.0000 </r>
       <r>  -11.0011    1.0000 </r>
       <r>  -11.0011    1.0000 </r>
       <r>  -10.9679    1.0000 </r>
       <r>  -10.9679    1.0000 </r>
       <r>  -10.9666    1.0000 </r>
       <r>  -10.9666    1.0000 </r>
       <r>  -10.9624    1.0000 </r>
       <r>  -10.9624    1.0000 </r>
       <r>  -10.9506    1.0000 </r>
       <r>  -10.9475    1.0000 </r>
       <r>  -10.9475    1.0000 </r>
       <r>  -10.9321    1.0000 </r>
       <r>  -10.9273    1.0000 </r>
       <r>  -10.9199    1.0000 </r>
       <r>  -10.9199    1.0000 </r>
       <r>  -10.9183    1.0000 </r>
       <r>   -8.7135    1.0000 </r>
       <r>   -7.0697    1.0000 </r>
       <r>   -6.4259    1.0000 </r>
       <r>   -6.4259    1.0000 </r>
       <r>   -2.9792    1.0000 </r>
       <r>   -2.9792    1.0000 </r>
       <r>   -2.1621    1.0000 </r>
       <r>    0.6071    1.0000 </r>
       <r>    0.6071    1.0000 </r>
       <r>    0.7018    1.0000 </r>
       <r>    0.7018    1.0000 </r>
       <r>    1.3370    1.0000 </r>
       <r>    1.3370    1.0000 </r>
       <r>    1.7402    1.0000 </r>
       <r>    3.1018    1.0000 </r>
       <r>    3.1018    1.0000 </r>
       <r>    5.1313    0.0000 </r>
       <r>    5.9656    0.0000 </r>
       <r>    6.0627    0.0000 </r>
       <r>    6.2250    0.0000 </r>
       <r>    6.2250    0.0000 </r>
       <r>    6.4480    0.0000 </r>
       <r>    6.4480    0.0000 </r>
       <r>    6.7808    0.0000 </r>
       <r>    8.4101    0.0000 </r>
       <r>    8.4101    0.0000 </r>
       <r>   11.6977    0.0000 </r>
       <r>   11.8676    0.0000 </r>
      </set>
      <set comment="kpoint 3">
       <r>  -11.1064    1.0000 </r>
       <r>  -11.1064    1.0000 </r>
       <r>  -11.0716    1.0000 </r>
       <r>  -11.0716    1.0000 </r>
       <r>  -10.9841    1.0000 </r>
       <r>  -10.9841    1.0000 </r>
       <r>  -10.9841    1.0000 </r>
       <r>  -10.9841    1.0000 </r>
       <r>  -10.9774    1.0000 </r>
       <r>  -10.9774    1.0000 </r>
       <r>  -10.9638    1.0000 </r>
       <r>  -10.9638    1.0000 </r>
       <r>  -10.9408    1.0000 </r>
       <r>  -10.9408    1.0000 </r>
       <r>  -10.9402    1.0000 </r>
       <r>  -10.9402    1.0000 </r>
       <r>  -10.9252    1.0000 </r>
       <r>  -10.9252    1.0000 </r>
       <r>  -10.9228    1.0000 </r>
       <r>  -10.9228    1.0000 </r>
       <r>   -8.0300    1.0000 </r>
       <r>   -8.0300    1.0000 </r>
       <r>   -6.3963    1.0000 </r>
       <r>   -6.3963    1.0000 </r>
       <r>   -2.8793    1.0000 </r>
       <r>   -2.8793    1.0000 </r>
       <r>   -0.3479    1.0000 </r>
       <r>   -0.3479    1.0000 </r>
       <r>    0.2087    1.0000 </r>
       <r>    0.2087    1.0000 </r>
       <r>    0.3997    1.0000 </r>
       <r>    0.3997    1.0000 </r>
       <r>    2.0677    1.0000 </r>
       <r>    2.0677    1.0000 </r>
       <r>    2.0677    1.0000 </r>
       <r>    2.0677    1.0000 </r>
       <r>    5.6626    0.0000 </r>
       <r>    5.6626    0.0000 </r>
       <r>    6.9473    0.0000 </r>
       <r>    6.9473    0.0000 </r>
       <r>    8.3347    0.0000 </r>
       <r>    8.3349    0.0000 </r>
       <r>    8.3879    0.0000 </r>
       <r>    8.3879    0.0000 </r>
       <r>    9.0903    0.0000 </r>
       <r>    9.0907    0.0000 </r>
       <r>    9.6972    0.0000 </r>
       <r>    9.6993    0.0000 </r>
      </set>
      <set comment="kpoint 4">
       <r>  -11.1079    1.0000 </r>
       <r>  -11.1024    1.0000 </r>
       <r>  -11.1024    1.0000 </r>
       <r>  -11.0407    1.0000 </r>
       <r>  -11.0005    1.0000 </r>
       <r>  -10.9971    1.0000 </r>
       <r>  -10.9742    1.0000 </r>
       <r>  -10.9742    1.0000 </r>
       <r>  -10.9729    1.0000 </r>
       <r>  -10.9687    1.0000 </r>
       <r>  -10.9687    1.0000 </r>
       <r>  -10.9659    1.0000 </r>
       <r>  -10.9448    1.0000 </r>
       <r>  -10.9448    1.0000 </r>
       <r>  -10.9432    1.0000 </r>
       <r>  -10.9314    1.0000 </r>
       <r>  -10.9278    1.0000 </r>
       <r>  -10.9226    1.0000 </r>
       <r>  -10.9207    1.0000 </r>
       <r>  -10.9207    1.0000 </r>
       <r>   -8.4820    1.0000 </r>
       <r>   -6.9554    1.0000 </r>
       <r>   -6.9554    1.0000 </r>
       <r>   -6.4908    1.0000 </r>
       <r>   -2.8795    1.0000 </r>
       <r>   -2.2973    1.0000 </r>
       <r>   -2.2973    1.0000 </r>
       <r>   -0.1186    1.0000 </r>
       <r>    0.6001    1.0000 </r>
       <r>    0.7051    1.0000 </r>
       <r>    0.7051    1.0000 </r>
       <r>    1.2759    1.0000 </r>
       <r>    1.2759    1.0000 </r>
       <r>    1.5008    1.0000 </r>
       <r>    2.3891    1.0000 </r>
       <r>    3.4835    1.0000 </r>
       <r>    5.6323    0.0000 </r>
       <r>    5.9939    0.0000 </r>
       <r>    6.3257    0.0000 </r>
       <r>    6.3257    0.0000 </r>
       <r>    6.8799    0.0000 </r>
       <r>    6.8799    0.0000 </r>
       <r>    7.7574    0.0000 </r>
       <r>    7.9251    0.0000 </r>
       <r>    8.3221    0.0000 </r>
       <r>    9.0952    0.0000 </r>
       <r>    9.9579    0.0000 </r>
       <r>    9.9581    0.0000 </r>
      </set>
      <set comment="kpoint 5">
       <r>  -11.1000    1.0000 </r>
       <r>  -11.1000    1.0000 </r>
       <r>  -11.0734    1.0000 </r>
       <r>  -11.0734    1.0000 </r>
       <r>  -10.9877    1.0000 </r>
       <r>  -10.9877    1.0000 </r>
       <r>  -10.9849    1.0000 </r>
       <r>  -10.9849    1.0000 </r>
       <r>  -10.9806    1.0000 </r>
       <r>  -10.9806    1.0000 </r>
       <r>  -10.9698    1.0000 </r>
       <r>  -10.9698    1.0000 </r>
       <r>  -10.9372    1.0000 </r>
       <r>  -10.9372    1.0000 </r>
       <r>  -10.9370    1.0000 </r>
       <r>  -10.9370    1.0000 </r>
       <r>  -10.9263    1.0000 </r>
       <r>  -10.9263    1.0000 </r>
       <r>  -10.9241    1.0000 </r>
       <r>  -10.9241    1.0000 </r>
       <r>   -7.8358    1.0000 </r>
       <r>   -7.8358    1.0000 </r>
       <r>   -6.6990    1.0000 </r>
       <r>   -6.6990    1.0000 </r>
       <r>   -2.6123    1.0000 </r>
       <r>   -2.6123    1.0000 </r>
       <r>   -0.9372    1.0000 </r>
       <r>   -0.9372    1.0000 </r>
       <r>   -0.0653    1.0000 </r>
       <r>   -0.0653    1.0000 </r>
       <r>    1.3507    1.0000 </r>
       <r>    1.3507    1.0000 </r>
       <r>    1.4400    1.0000 </r>
       <r>    1.4400    1.0000 </r>
       <r>    2.4579    1.0000 </r>
       <r>    2.4579    1.0000 </r>
       <r>    6.7511    0.0000 </r>
       <r>    6.7511    0.0000 </r>
       <r>    7.0278    0.0000 </r>
       <r>    7.0278    0.0000 </r>
       <r>    7.2002    0.0000 </r>
       <r>    7.2002    0.0000 </r>
       <r>    8.9125    0.0000 </r>
       <r>    8.9131    0.0000 </r>
       <r>    9.0306    0.0000 </r>
       <r>    9.0313    0.0000 </r>
       <r>    9.1174    0.0000 </r>
       <r>    9.1177    0.0000 </r>
      </set>
      <set comment="kpoint 6">
       <r>  -11.0847    1.0000 </r>
       <r>  -11.0847    1.0000 </r>
       <r>  -11.0847    1.0000 </r>
       <r>  -11.0847    1.0000 </r>
       <r>  -10.9850    1.0000 </r>
       <r>  -10.9850    1.0000 </r>
       <r>  -10.9850    1.0000 </r>
       <r>  -10.9850    1.0000 </r>
       <r>  -10.9829    1.0000 </r>
       <r>  -10.9829    1.0000 </r>
       <r>  -10.9829    1.0000 </r>
       <r>  -10.9829    1.0000 </r>
       <r>  -10.9311    1.0000 </r>
       <r>  -10.9311    1.0000 </r>
       <r>  -10.9311    1.0000 </r>
       <r>  -10.9311    1.0000 </r>
       <r>  -10.9290    1.0000 </r>
       <r>  -10.9290    1.0000 </r>
       <r>  -10.9290    1.0000 </r>
       <r>  -10.9290    1.0000 </r>
       <r>   -7.3182    1.0000 </r>
       <r>   -7.3182    1.0000 </r>
       <r>   -7.3182    1.0000 </r>
       <r>   -7.3182    1.0000 </r>
       <r>   -1.8958    1.0000 </r>
       <r>   -1.8958    1.0000 </r>
       <r>   -1.8958    1.0000 </r>
       <r>   -1.8958    1.0000 </r>
       <r>    0.3778    1.0000 </r>
       <r>    0.3778    1.0000 </r>
       <r>    0.3778    1.0000 </r>
       <r>    0.3778    1.0000 </r>
       <r>    2.5409    1.0000 </r>
       <r>    2.5409    1.0000 </r>
       <r>    2.5409    1.0000 </r>
       <r>    2.5409    1.0000 </r>
       <r>    6.4229    0.0000 </r>
       <r>    6.4229    0.0000 </r>
       <r>    6.4229    0.0000 </r>
       <r>    6.4230    0.0000 </r>
       <r>    9.2977    0.0000 </r>
       <r>    9.3074    0.0000 </r>
       <r>    9.3333    0.0000 </r>
       <r>    9.3599    0.0000 </r>
       <r>    9.3751    0.0000 </r>
       <r>    9.4160    0.0000 </r>
       <r>    9.4494    0.0000 </r>
       <r>    9.4836    0.0000 </r>
      </set>
      <set comment="kpoint 7">
       <r>  -11.0994    1.0000 </r>
       <r>  -11.0994    1.0000 </r>
       <r>  -11.0994    1.0000 </r>
       <r>  -11.0512    1.0000 </r>
       <r>  -10.9968    1.0000 </r>
       <r>  -10.9968    1.0000 </r>
       <r>  -10.9782    1.0000 </r>
       <r>  -10.9782    1.0000 </r>
       <r>  -10.9782    1.0000 </r>
       <r>  -10.9729    1.0000 </r>
       <r>  -10.9729    1.0000 </r>
       <r>  -10.9729    1.0000 </r>
       <r>  -10.9401    1.0000 </r>
       <r>  -10.9401    1.0000 </r>
       <r>  -10.9401    1.0000 </r>
       <r>  -10.9289    1.0000 </r>
       <r>  -10.9289    1.0000 </r>
       <r>  -10.9222    1.0000 </r>
       <r>  -10.9222    1.0000 </r>
       <r>  -10.9222    1.0000 </r>
       <r>   -8.2649    1.0000 </r>
       <r>   -6.9046    1.0000 </r>
       <r>   -6.9046    1.0000 </r>
       <r>   -6.9046    1.0000 </r>
       <r>   -2.5229    1.0000 </r>
       <r>   -2.5229    1.0000 </r>
       <r>   -2.5229    1.0000 </r>
       <r>   -0.3976    1.0000 </r>
       <r>    0.5078    1.0000 </r>
       <r>    0.5078    1.0000 </r>
       <r>    0.5078    1.0000 </r>
       <r>    1.7199    1.0000 </r>
       <r>    1.7199    1.0000 </r>
       <r>    1.7199    1.0000 </r>
       <r>    3.0833    1.0000 </r>
       <r>    3.0833    1.0000 </r>
       <r>    5.1336    0.0000 </r>
       <r>    5.8792    0.0000 </r>
       <r>    5.8792    0.0000 </r>
       <r>    5.8792    0.0000 </r>
       <r>    8.3127    0.0000 </r>
       <r>    8.3127    0.0000 </r>
       <r>    8.3962    0.0000 </r>
       <r>    8.3962    0.0000 </r>
       <r>    8.3964    0.0000 </r>
       <r>    9.6173    0.0000 </r>
       <r>    9.8919    0.0000 </r>
       <r>    9.8928    0.0000 </r>
      </set>
      <set comment="kpoint 8">
       <r>  -11.0961    1.0000 </r>
       <r>  -11.0961    1.0000 </r>
       <r>  -11.0768    1.0000 </r>
       <r>  -11.0768    1.0000 </r>
       <r>  -10.9893    1.0000 </r>
       <r>  -10.9893    1.0000 </r>
       <r>  -10.9863    1.0000 </r>
       <r>  -10.9863    1.0000 </r>
       <r>  -10.9834    1.0000 </r>
       <r>  -10.9834    1.0000 </r>
       <r>  -10.9758    1.0000 </r>
       <r>  -10.9758    1.0000 </r>
       <r>  -10.9337    1.0000 </r>
       <r>  -10.9337    1.0000 </r>
       <r>  -10.9336    1.0000 </r>
       <r>  -10.9336    1.0000 </r>
       <r>  -10.9257    1.0000 </r>
       <r>  -10.9257    1.0000 </r>
       <r>  -10.9242    1.0000 </r>
       <r>  -10.9242    1.0000 </r>
       <r>   -7.6698    1.0000 </r>
       <r>   -7.6698    1.0000 </r>
       <r>   -6.8511    1.0000 </r>
       <r>   -6.8511    1.0000 </r>
       <r>   -2.7381    1.0000 </r>
       <r>   -2.7381    1.0000 </r>
       <r>   -1.6413    1.0000 </r>
       <r>   -1.6413    1.0000 </r>
       <r>    0.5162    1.0000 </r>
       <r>    0.5162    1.0000 </r>
       <r>    1.8180    1.0000 </r>
       <r>    1.8180    1.0000 </r>
       <r>    1.9800    1.0000 </r>
       <r>    1.9800    1.0000 </r>
       <r>    2.3210    1.0000 </r>
       <r>    2.3210    1.0000 </r>
       <r>    5.9455    0.0000 </r>
       <r>    5.9455    0.0000 </r>
       <r>    6.7247    0.0000 </r>
       <r>    6.7247    0.0000 </r>
       <r>    7.8389    0.0000 </r>
       <r>    7.8389    0.0000 </r>
       <r>    7.8614    0.0000 </r>
       <r>    7.8614    0.0000 </r>
       <r>    9.2834    0.0000 </r>
       <r>    9.2859    0.0000 </r>
       <r>    9.8645    0.0000 </r>
       <r>    9.9085    0.0000 </r>
      </set>
      <set comment="kpoint 9">
       <r>  -11.0862    1.0000 </r>
       <r>  -11.0862    1.0000 </r>
       <r>  -11.0862    1.0000 </r>
       <r>  -11.0862    1.0000 </r>
       <r>  -10.9870    1.0000 </r>
       <r>  -10.9870    1.0000 </r>
       <r>  -10.9870    1.0000 </r>
       <r>  -10.9870    1.0000 </r>
       <r>  -10.9860    1.0000 </r>
       <r>  -10.9860    1.0000 </r>
       <r>  -10.9860    1.0000 </r>
       <r>  -10.9860    1.0000 </r>
       <r>  -10.9281    1.0000 </r>
       <r>  -10.9281    1.0000 </r>
       <r>  -10.9281    1.0000 </r>
       <r>  -10.9281    1.0000 </r>
       <r>  -10.9271    1.0000 </r>
       <r>  -10.9271    1.0000 </r>
       <r>  -10.9271    1.0000 </r>
       <r>  -10.9271    1.0000 </r>
       <r>   -7.2574    1.0000 </r>
       <r>   -7.2574    1.0000 </r>
       <r>   -7.2574    1.0000 </r>
       <r>   -7.2574    1.0000 </r>
       <r>   -2.4829    1.0000 </r>
       <r>   -2.4829    1.0000 </r>
       <r>   -2.4829    1.0000 </r>
       <r>   -2.4829    1.0000 </r>
       <r>    1.4111    1.0000 </r>
       <r>    1.4111    1.0000 </r>
       <r>    1.4111    1.0000 </r>
       <r>    1.4111    1.0000 </r>
       <r>    2.5801    1.0000 </r>
       <r>    2.5801    1.0000 </r>
       <r>    2.5801    1.0000 </r>
       <r>    2.5801    1.0000 </r>
       <r>    5.7929    0.0000 </r>
       <r>    5.7929    0.0000 </r>
       <r>    5.7929    0.0000 </r>
       <r>    5.7929    0.0000 </r>
       <r>    8.2355    0.0000 </r>
       <r>    8.2355    0.0000 </r>
       <r>    8.2355    0.0000 </r>
       <r>    8.2355    0.0000 </r>
       <r>    8.7621    0.0000 </r>
       <r>    8.7621    0.0000 </r>
       <r>    8.7621    0.0000 </r>
       <r>    8.7621    0.0000 </r>
      </set>
      <set comment="kpoint 10">
       <r>  -11.0878    1.0000 </r>
       <r>  -11.0878    1.0000 </r>
       <r>  -11.0878    1.0000 </r>
       <r>  -11.0878    1.0000 </r>
       <r>  -10.9887    1.0000 </r>
       <r>  -10.9887    1.0000 </r>
       <r>  -10.9887    1.0000 </r>
       <r>  -10.9887    1.0000 </r>
       <r>  -10.9887    1.0000 </r>
       <r>  -10.9887    1.0000 </r>
       <r>  -10.9887    1.0000 </r>
       <r>  -10.9887    1.0000 </r>
       <r>  -10.9254    1.0000 </r>
       <r>  -10.9254    1.0000 </r>
       <r>  -10.9254    1.0000 </r>
       <r>  -10.9254    1.0000 </r>
       <r>  -10.9254    1.0000 </r>
       <r>  -10.9254    1.0000 </r>
       <r>  -10.9254    1.0000 </r>
       <r>  -10.9254    1.0000 </r>
       <r>   -7.1925    1.0000 </r>
       <r>   -7.1925    1.0000 </r>
       <r>   -7.1925    1.0000 </r>
       <r>   -7.1925    1.0000 </r>
       <r>   -2.8941    1.0000 </r>
       <r>   -2.8941    1.0000 </r>
       <r>   -2.8941    1.0000 </r>
       <r>   -2.8941    1.0000 </r>
       <r>    2.6208    1.0000 </r>
       <r>    2.6208    1.0000 </r>
       <r>    2.6208    1.0000 </r>
       <r>    2.6208    1.0000 </r>
       <r>    2.6208    1.0000 </r>
       <r>    2.6208    1.0000 </r>
       <r>    2.6208    1.0000 </r>
       <r>    2.6208    1.0000 </r>
       <r>    4.6773    0.0000 </r>
       <r>    4.6773    0.0000 </r>
       <r>    4.6773    0.0000 </r>
       <r>    4.6773    0.0000 </r>
       <r>    8.3437    0.0000 </r>
       <r>    8.3437    0.0000 </r>
       <r>    8.3437    0.0000 </r>
       <r>    8.3437    0.0000 </r>
       <r>    8.3437    0.0000 </r>
       <r>    8.3437    0.0000 </r>
       <r>    8.3437    0.0000 </r>
       <r>    8.3437    0.0000 </r>
      </set>
     </set>
    </set>
   </array>
  </eigenvalues>
  <separator name="orbital magnetization" >
   <v name="MAGDIPOLOUT">      0.00000000      0.00000000      0.00000000</v>
  </separator>
  <dos>
   <i name="efermi">      3.84684605 </i>
   <total>
    <array>
     <dimension dim="1">gridpoints</dimension>
     <dimension dim="2">spin</dimension>
     <field>energy</field>
     <field>total</field>
     <field>integrated</field>
     <set>
      <set comment="spin 1">
       <r>   -12.3683     0.0000     0.0000 </r>
       <r>   -12.2767     0.0000     0.0000 </r>
       <r>   -12.1851     0.0000     0.0000 </r>
       <r>   -12.0936     0.0000     0.0000 </r>
       <r>   -12.0020     0.0000     0.0000 </r>
       <r>   -11.9104     0.0000     0.0000 </r>
       <r>   -11.8188     0.0000     0.0000 </r>
       <r>   -11.7272     0.0000     0.0000 </r>
       <r>   -11.6356     0.0000     0.0000 </r>
       <r>   -11.5440     0.0000     0.0000 </r>
       <r>   -11.4524     0.0000     0.0000 </r>
       <r>   -11.3608     0.0000     0.0000 </r>
       <r>   -11.2692     0.0000     0.0000 </r>
       <r>   -11.1776     0.0000     0.0000 </r>
       <r>   -11.0860    77.2909     2.5210 </r>
       <r>   -10.9944   115.9799     4.6039 </r>
       <r>   -10.9028   156.2585    20.0000 </r>
       <r>   -10.8112     0.0000    20.0000 </r>
       <r>   -10.7196     0.0000    20.0000 </r>
       <r>   -10.6280     0.0000    20.0000 </r>
       <r>   -10.5364     0.0000    20.0000 </r>
       <r>   -10.4448     0.0000    20.0000 </r>
       <r>   -10.3532     0.0000    20.0000 </r>
       <r>   -10.2617     0.0000    20.0000 </r>
       <r>   -10.1701     0.0000    20.0000 </r>
       <r>   -10.0785     0.0000    20.0000 </r>
       <r>    -9.9869     0.0000    20.0000 </r>
       <r>    -9.8953     0.0000    20.0000 </r>
       <r>    -9.8037     0.0000    20.0000 </r>
       <r>    -9.7121     0.0000    20.0000 </r>
       <r>    -9.6205     0.0000    20.0000 </r>
       <r>    -9.5289     0.0000    20.0000 </r>
       <r>    -9.4373     0.0000    20.0000 </r>
       <r>    -9.3457     0.0000    20.0000 </r>
       <r>    -9.2541     0.0000    20.0000 </r>
       <r>    -9.1625     0.0000    20.0000 </r>
       <r>    -9.0709     0.0000    20.0000 </r>
       <r>    -8.9793     0.0000    20.0000 </r>
       <r>    -8.8877     0.0214    20.0005 </r>
       <r>    -8.7961     0.1163    20.0062 </r>
       <r>    -8.7045     0.2878    20.0241 </r>
       <r>    -8.6129     0.4578    20.0589 </r>
       <r>    -8.5213     0.5504    20.1056 </r>
       <r>    -8.4298     0.5765    20.1574 </r>
       <r>    -8.3382     0.6241    20.2121 </r>
       <r>    -8.2466     0.7093    20.2729 </r>
       <r>    -8.1550     0.8121    20.3425 </r>
       <r>    -8.0634     0.9232    20.4220 </r>
       <r>    -7.9718     1.0339    20.5117 </r>
       <r>    -7.8802     1.1136    20.6103 </r>
       <r>    -7.7886     1.3412    20.7190 </r>
       <r>    -7.6970     1.7108    20.8590 </r>
       <r>    -7.6054     1.8498    21.0251 </r>
       <r>    -7.5138     1.8454    21.1948 </r>
       <r>    -7.4222     1.7783    21.3613 </r>
       <r>    -7.3306     1.6485    21.5187 </r>
       <r>    -7.2390     1.7921    21.6691 </r>
       <r>    -7.1474     2.2586    21.8566 </r>
       <r>    -7.0558     2.7891    22.0803 </r>
       <r>    -6.9642     3.3652    22.3769 </r>
       <r>    -6.8726     4.1113    22.7015 </r>
       <r>    -6.7810     3.6924    23.0806 </r>
       <r>    -6.6894     2.9179    23.3801 </r>
       <r>    -6.5979     2.4634    23.6265 </r>
       <r>    -6.5063     2.0163    23.8316 </r>
       <r>    -6.4147     0.7758    23.9994 </r>
       <r>    -6.3231     0.0000    24.0000 </r>
       <r>    -6.2315     0.0000    24.0000 </r>
       <r>    -6.1399     0.0000    24.0000 </r>
       <r>    -6.0483     0.0000    24.0000 </r>
       <r>    -5.9567     0.0000    24.0000 </r>
       <r>    -5.8651     0.0000    24.0000 </r>
       <r>    -5.7735     0.0000    24.0000 </r>
       <r>    -5.6819     0.0000    24.0000 </r>
       <r>    -5.5903     0.0000    24.0000 </r>
       <r>    -5.4987     0.0000    24.0000 </r>
       <r>    -5.4071     0.0000    24.0000 </r>
       <r>    -5.3155     0.0000    24.0000 </r>
       <r>    -5.2239     0.0000    24.0000 </r>
       <r>    -5.1323     0.0000    24.0000 </r>
       <r>    -5.0407     0.0000    24.0000 </r>
       <r>    -4.9491     0.0000    24.0000 </r>
       <r>    -4.8575     0.0000    24.0000 </r>
       <r>    -4.7659     0.0000    24.0000 </r>
       <r>    -4.6744     0.0000    24.0000 </r>
       <r>    -4.5828     0.0000    24.0000 </r>
       <r>    -4.4912     0.0000    24.0000 </r>
       <r>    -4.3996     0.0000    24.0000 </r>
       <r>    -4.3080     0.0000    24.0000 </r>
       <r>    -4.2164     0.0000    24.0000 </r>
       <r>    -4.1248     0.0000    24.0000 </r>
       <r>    -4.0332     0.0000    24.0000 </r>
       <r>    -3.9416     0.0000    24.0000 </r>
       <r>    -3.8500     0.0000    24.0000 </r>
       <r>    -3.7584     0.0000    24.0000 </r>
       <r>    -3.6668     0.0000    24.0000 </r>
       <r>    -3.5752     0.0000    24.0000 </r>
       <r>    -3.4836     0.0000    24.0000 </r>
       <r>    -3.3920     0.0000    24.0000 </r>
       <r>    -3.3004     0.0000    24.0000 </r>
       <r>    -3.2088     0.0000    24.0000 </r>
       <r>    -3.1172     0.0000    24.0000 </r>
       <r>    -3.0256     0.1616    24.0022 </r>
       <r>    -2.9340     1.2133    24.0651 </r>
       <r>    -2.8425     2.1767    24.2191 </r>
       <r>    -2.7509     3.3827    24.4718 </r>
       <r>    -2.6593     5.9162    24.9142 </r>
       <r>    -2.5677     4.5452    25.4147 </r>
       <r>    -2.4761     2.6972    25.7394 </r>
       <r>    -2.3845     2.0547    25.9554 </r>
       <r>    -2.2929     1.6724    26.1226 </r>
       <r>    -2.2013     1.5793    26.2806 </r>
       <r>    -2.1097     1.1115    26.3952 </r>
       <r>    -2.0181     1.0352    26.4931 </r>
       <r>    -1.9265     1.0010    26.5861 </r>
       <r>    -1.8349     0.9975    26.6776 </r>
       <r>    -1.7433     0.9869    26.7685 </r>
       <r>    -1.6517     0.9663    26.8581 </r>
       <r>    -1.5601     0.9289    26.9449 </r>
       <r>    -1.4685     0.8873    27.0281 </r>
       <r>    -1.3769     0.8428    27.1074 </r>
       <r>    -1.2853     0.7954    27.1824 </r>
       <r>    -1.1937     0.7451    27.2530 </r>
       <r>    -1.1021     0.6918    27.3188 </r>
       <r>    -1.0106     0.6357    27.3796 </r>
       <r>    -0.9190     0.5849    27.4353 </r>
       <r>    -0.8274     0.5661    27.4880 </r>
       <r>    -0.7358     0.5469    27.5390 </r>
       <r>    -0.6442     0.5273    27.5882 </r>
       <r>    -0.5526     0.5074    27.6356 </r>
       <r>    -0.4610     0.4871    27.6811 </r>
       <r>    -0.3694     0.4642    27.7248 </r>
       <r>    -0.2778     0.4205    27.7653 </r>
       <r>    -0.1862     0.3801    27.8019 </r>
       <r>    -0.0946     0.3427    27.8350 </r>
       <r>    -0.0030     0.6434    27.8750 </r>
       <r>     0.0886     1.1676    27.9574 </r>
       <r>     0.1802     1.7674    28.0912 </r>
       <r>     0.2718     2.3938    28.2824 </r>
       <r>     0.3634     2.8993    28.5259 </r>
       <r>     0.4550     3.2055    28.8075 </r>
       <r>     0.5466     3.8177    29.1151 </r>
       <r>     0.6382     3.5212    29.4827 </r>
       <r>     0.7298     3.3557    29.8297 </r>
       <r>     0.8213     2.1662    30.0502 </r>
       <r>     0.9129     1.8181    30.2314 </r>
       <r>     1.0045     1.6290    30.3881 </r>
       <r>     1.0961     1.6020    30.5347 </r>
       <r>     1.1877     1.8727    30.6910 </r>
       <r>     1.2793     3.1008    30.8901 </r>
       <r>     1.3709     3.5561    31.2994 </r>
       <r>     1.4625     3.9362    31.6270 </r>
       <r>     1.5541     4.8370    32.0482 </r>
       <r>     1.6457     4.5716    32.4834 </r>
       <r>     1.7373     3.7225    32.8685 </r>
       <r>     1.8289     2.3553    33.1456 </r>
       <r>     1.9205     1.8480    33.3379 </r>
       <r>     2.0121     1.3964    33.4854 </r>
       <r>     2.1037     1.2222    33.6032 </r>
       <r>     2.1953     1.2101    33.7137 </r>
       <r>     2.2869     1.3163    33.8285 </r>
       <r>     2.3785     3.5359    34.0086 </r>
       <r>     2.4701     5.4127    34.4825 </r>
       <r>     2.5617     3.7323    34.9055 </r>
       <r>     2.6532     2.2566    35.1648 </r>
       <r>     2.7448     1.7883    35.3495 </r>
       <r>     2.8364     1.3940    35.4947 </r>
       <r>     2.9280     1.0735    35.6071 </r>
       <r>     3.0196     0.8269    35.6936 </r>
       <r>     3.1112     0.6949    35.7612 </r>
       <r>     3.2028     0.7666    35.8291 </r>
       <r>     3.2944     0.7030    35.8975 </r>
       <r>     3.3860     0.5042    35.9538 </r>
       <r>     3.4776     0.1702    35.9857 </r>
       <r>     3.5692     0.0690    35.9956 </r>
       <r>     3.6608     0.0191    35.9994 </r>
       <r>     3.7524     0.0002    36.0000 </r>
       <r>     3.8440     0.0000    36.0000 </r>
       <r>     3.9356     0.0000    36.0000 </r>
       <r>     4.0272     0.0000    36.0000 </r>
       <r>     4.1188     0.0000    36.0000 </r>
       <r>     4.2104     0.0001    36.0000 </r>
       <r>     4.3020     0.0020    36.0001 </r>
       <r>     4.3936     0.0064    36.0004 </r>
       <r>     4.4851     0.0131    36.0013 </r>
       <r>     4.5767     0.0223    36.0029 </r>
       <r>     4.6683     0.0339    36.0055 </r>
       <r>     4.7599     0.0510    36.0093 </r>
       <r>     4.8515     0.0782    36.0151 </r>
       <r>     4.9431     0.1156    36.0239 </r>
       <r>     5.0347     0.1631    36.0366 </r>
       <r>     5.1263     0.2208    36.0541 </r>
       <r>     5.2179     0.4366    36.0839 </r>
       <r>     5.3095     0.6414    36.1335 </r>
       <r>     5.4011     0.8250    36.2008 </r>
       <r>     5.4927     0.9899    36.2840 </r>
       <r>     5.5843     1.1362    36.3815 </r>
       <r>     5.6759     1.3092    36.4925 </r>
       <r>     5.7675     1.6191    36.6256 </r>
       <r>     5.8591     3.0152    36.8244 </r>
       <r>     5.9507     4.1669    37.1671 </r>
       <r>     6.0423     3.6153    37.5207 </r>
       <r>     6.1339     3.6407    37.8371 </r>
       <r>     6.2255     3.8742    38.1823 </r>
       <r>     6.3170     3.8198    38.5610 </r>
       <r>     6.4086     3.4838    38.8898 </r>
       <r>     6.5002     3.2188    39.1963 </r>
       <r>     6.5918     2.9708    39.4798 </r>
       <r>     6.6834     2.7183    39.7403 </r>
       <r>     6.7750     2.4058    39.9755 </r>
       <r>     6.8666     2.0592    40.1815 </r>
       <r>     6.9582     1.5117    40.3461 </r>
       <r>     7.0498     0.9860    40.4534 </r>
       <r>     7.1414     1.2810    40.5564 </r>
       <r>     7.2330     1.5283    40.6887 </r>
       <r>     7.3246     1.5448    40.8294 </r>
       <r>     7.4162     1.5708    40.9720 </r>
       <r>     7.5078     1.6080    41.1175 </r>
       <r>     7.5994     1.6618    41.2671 </r>
       <r>     7.6910     1.7328    41.4224 </r>
       <r>     7.7826     1.8257    41.5851 </r>
       <r>     7.8742     2.1507    41.7617 </r>
       <r>     7.9658     3.0510    42.0010 </r>
       <r>     8.0574     3.6645    42.3112 </r>
       <r>     8.1490     3.9384    42.6619 </r>
       <r>     8.2405     3.8074    43.0221 </r>
       <r>     8.3321     2.9770    43.3090 </r>
       <r>     8.4237     2.5254    43.6003 </r>
       <r>     8.5153     2.4488    43.8277 </r>
       <r>     8.6069     2.4271    44.0506 </r>
       <r>     8.6985     2.4604    44.2740 </r>
       <r>     8.7901     2.5294    44.5027 </r>
       <r>     8.8817     2.6670    44.7396 </r>
       <r>     8.9733     2.9834    44.9966 </r>
       <r>     9.0649     4.6530    45.3176 </r>
       <r>     9.1565     3.6740    45.6863 </r>
       <r>     9.2481     3.0833    45.9977 </r>
       <r>     9.3397     2.4737    46.2490 </r>
       <r>     9.4313     2.1803    46.4609 </r>
       <r>     9.5229     2.0431    46.6531 </r>
       <r>     9.6145     2.0604    46.8399 </r>
       <r>     9.7061     2.1464    47.0329 </r>
       <r>     9.7977     2.0694    47.2280 </r>
       <r>     9.8893     1.4867    47.4006 </r>
       <r>     9.9809     0.5559    47.4932 </r>
       <r>    10.0724     0.5078    47.5413 </r>
       <r>    10.1640     0.4748    47.5863 </r>
       <r>    10.2556     0.4429    47.6283 </r>
       <r>    10.3472     0.4121    47.6675 </r>
       <r>    10.4388     0.3825    47.7039 </r>
       <r>    10.5304     0.3539    47.7376 </r>
       <r>    10.6220     0.3265    47.7687 </r>
       <r>    10.7136     0.3002    47.7974 </r>
       <r>    10.8052     0.2750    47.8238 </r>
       <r>    10.8968     0.2508    47.8478 </r>
       <r>    10.9884     0.2278    47.8697 </r>
       <r>    11.0800     0.2060    47.8896 </r>
       <r>    11.1716     0.1850    47.9075 </r>
       <r>    11.2632     0.1633    47.9235 </r>
       <r>    11.3548     0.1404    47.9374 </r>
       <r>    11.4464     0.1164    47.9492 </r>
       <r>    11.5380     0.0911    47.9587 </r>
       <r>    11.6296     0.0646    47.9658 </r>
       <r>    11.7212     0.0423    47.9705 </r>
       <r>    11.8128     0.0380    47.9742 </r>
       <r>    11.9043     0.0345    47.9775 </r>
       <r>    11.9959     0.0313    47.9805 </r>
       <r>    12.0875     0.0283    47.9833 </r>
       <r>    12.1791     0.0255    47.9857 </r>
       <r>    12.2707     0.0228    47.9879 </r>
       <r>    12.3623     0.0202    47.9899 </r>
       <r>    12.4539     0.0178    47.9916 </r>
       <r>    12.5455     0.0156    47.9932 </r>
       <r>    12.6371     0.0135    47.9945 </r>
       <r>    12.7287     0.0115    47.9956 </r>
       <r>    12.8203     0.0098    47.9966 </r>
       <r>    12.9119     0.0081    47.9974 </r>
       <r>    13.0035     0.0066    47.9981 </r>
       <r>    13.0951     0.0053    47.9987 </r>
       <r>    13.1867     0.0041    47.9991 </r>
       <r>    13.2783     0.0031    47.9994 </r>
       <r>    13.3699     0.0022    47.9996 </r>
       <r>    13.4615     0.0014    47.9998 </r>
       <r>    13.5531     0.0009    47.9999 </r>
       <r>    13.6447     0.0004    48.0000 </r>
       <r>    13.7362     0.0001    48.0000 </r>
       <r>    13.8278     0.0000    48.0000 </r>
       <r>    13.9194     0.0000    48.0000 </r>
       <r>    14.0110     0.0000    48.0000 </r>
       <r>    14.1026     0.0000    48.0000 </r>
       <r>    14.1942     0.0000    48.0000 </r>
       <r>    14.2858     0.0000    48.0000 </r>
       <r>    14.3774     0.0000    48.0000 </r>
       <r>    14.4690     0.0000    48.0000 </r>
       <r>    14.5606     0.0000    48.0000 </r>
       <r>    14.6522     0.0000    48.0000 </r>
       <r>    14.7438     0.0000    48.0000 </r>
       <r>    14.8354     0.0000    48.0000 </r>
       <r>    14.9270     0.0000    48.0000 </r>
       <r>    15.0186     0.0000    48.0000 </r>
       <r>    15.1102     0.0000    48.0000 </r>
      </set>
      <set comment="spin 2">
       <r>   -12.3683     0.0000     0.0000 </r>
       <r>   -12.2767     0.0000     0.0000 </r>
       <r>   -12.1851     0.0000     0.0000 </r>
       <r>   -12.0936     0.0000     0.0000 </r>
[...]
        <r>  0.0129  0.0019  0.0040  0.0018  0.0069  0.0031  0.0000  0.0033  0.0000 </r>
        <r>  0.0395  0.0018  0.0013  0.0019  0.0022  0.0033  0.0000  0.0031  0.0000 </r>
        <r>  0.0754  0.0003  0.0001  0.0001  0.0000  0.0000  0.0000  0.0002  0.0000 </r>
        <r>  0.0741  0.0001  0.0003  0.0001  0.0002  0.0000  0.0000  0.0000  0.0000 </r>
        <r>  0.0742  0.0001  0.0001  0.0003  0.0000  0.0002  0.0000  0.0000  0.0000 </r>
        <r>  0.2827  0.0001  0.0001  0.0001  0.0000  0.0000  0.0000  0.0000  0.0000 </r>
       </set>
       <set comment="band 25">
        <r>  0.0069  0.0048  0.0031  0.0116  0.0000  0.0001  0.0000  0.0000  0.0000 </r>
        <r>  0.0420  0.0116  0.0005  0.0048  0.0000  0.0000  0.0000  0.0001  0.0000 </r>
        <r>  0.0641  0.0005  0.0116  0.0031  0.0001  0.0000  0.0000  0.0000  0.0000 </r>
        <r>  0.1563  0.0031  0.0048  0.0005  0.0000  0.0000  0.0000  0.0000  0.0000 </r>
        <r>  0.0143  0.0016  0.0144  0.0137  0.0002  0.0002  0.0000  0.0000  0.0000 </r>
        <r>  0.0081  0.0144  0.0016  0.0241  0.0000  0.0003  0.0000  0.0002  0.0000 </r>
        <r>  0.0085  0.0137  0.0241  0.0016  0.0003  0.0000  0.0000  0.0002  0.0000 </r>
        <r>  0.0010  0.0241  0.0137  0.0144  0.0002  0.0002  0.0000  0.0003  0.0000 </r>
       </set>
       <set comment="band 26">
        <r>  0.0026  0.0092  0.0028  0.0078  0.0000  0.0000  0.0000  0.0000  0.0000 </r>
        <r>  0.0381  0.0078  0.0002  0.0092  0.0000  0.0000  0.0000  0.0000  0.0000 </r>
        <r>  0.1234  0.0002  0.0078  0.0028  0.0000  0.0000  0.0000  0.0000  0.0000 </r>
        <r>  0.1052  0.0028  0.0092  0.0002  0.0000  0.0000  0.0000  0.0000  0.0000 </r>
        <r>  0.0036  0.0278  0.0001  0.0199  0.0000  0.0002  0.0000  0.0003  0.0000 </r>
        <r>  0.0117  0.0001  0.0278  0.0062  0.0003  0.0001  0.0000  0.0000  0.0000 </r>
        <r>  0.0000  0.0199  0.0062  0.0278  0.0001  0.0003  0.0000  0.0002  0.0000 </r>
        <r>  0.0164  0.0062  0.0199  0.0001  0.0002  0.0000  0.0000  0.0001  0.0000 </r>
       </set>
       <set comment="band 27">
        <r>  0.1761  0.0030  0.0035  0.0004  0.0000  0.0000  0.0000  0.0000  0.0000 </r>
        <r>  0.0476  0.0004  0.0131  0.0030  0.0001  0.0000  0.0000  0.0000  0.0000 </r>
        <r>  0.0400  0.0131  0.0004  0.0035  0.0000  0.0000  0.0000  0.0001  0.0000 </r>
        <r>  0.0056  0.0035  0.0030  0.0131  0.0000  0.0001  0.0000  0.0000  0.0000 </r>
        <r>  0.0018  0.0087  0.0276  0.0146  0.0003  0.0002  0.0000  0.0001  0.0000 </r>
        <r>  0.0086  0.0276  0.0087  0.0030  0.0001  0.0000  0.0000  0.0003  0.0000 </r>
        <r>  0.0163  0.0146  0.0030  0.0087  0.0000  0.0001  0.0000  0.0002  0.0000 </r>
        <r>  0.0051  0.0030  0.0146  0.0276  0.0002  0.0003  0.0000  0.0000  0.0000 </r>
       </set>
       <set comment="band 28">
        <r>  0.0837  0.0031  0.0105  0.0002  0.0001  0.0000  0.0000  0.0000  0.0000 </r>
        <r>  0.1416  0.0002  0.0062  0.0031  0.0000  0.0000  0.0000  0.0000  0.0000 </r>
        <r>  0.0418  0.0062  0.0002  0.0105  0.0000  0.0001  0.0000  0.0000  0.0000 </r>
        <r>  0.0023  0.0105  0.0031  0.0062  0.0000  0.0000  0.0000  0.0001  0.0000 </r>
        <r>  0.0122  0.0157  0.0118  0.0057  0.0001  0.0001  0.0000  0.0002  0.0000 </r>
        <r>  0.0034  0.0118  0.0157  0.0206  0.0002  0.0003  0.0000  0.0001  0.0000 </r>
        <r>  0.0070  0.0057  0.0206  0.0157  0.0003  0.0002  0.0000  0.0001  0.0000 </r>
        <r>  0.0093  0.0206  0.0057  0.0118  0.0001  0.0001  0.0000  0.0003  0.0000 </r>
       </set>
       <set comment="band 29">
        <r>  0.0000  0.0049  0.0030  0.0159  0.0004  0.0021  0.0016  0.0006  0.0002 </r>
        <r>  0.0000  0.0031  0.0346  0.0256  0.0045  0.0034  0.0001  0.0004  0.0013 </r>
        <r>  0.0000  0.0029  0.0107  0.0269  0.0014  0.0035  0.0004  0.0004  0.0008 </r>
        <r>  0.0000  0.0160  0.0084  0.0217  0.0011  0.0028  0.0005  0.0021  0.0004 </r>
        <r>  0.0000  0.0010  0.0060  0.1148  0.0001  0.0010  0.0002  0.0000  0.0001 </r>
        <r>  0.0000  0.0136  0.0036  0.0762  0.0000  0.0007  0.0001  0.0001  0.0003 </r>
        <r>  0.0000  0.0386  0.0737  0.0054  0.0007  0.0000  0.0000  0.0003  0.0000 </r>
        <r>  0.0000  0.0058  0.0412  0.0015  0.0004  0.0000  0.0000  0.0001  0.0000 </r>
       </set>
       <set comment="band 30">
        <r>  0.0000  0.0127  0.0066  0.0140  0.0009  0.0018  0.0005  0.0017  0.0008 </r>
        <r>  0.0000  0.0052  0.0103  0.0432  0.0013  0.0057  0.0003  0.0007  0.0007 </r>
        <r>  0.0000  0.0276  0.0025  0.0104  0.0003  0.0014  0.0009  0.0036  0.0014 </r>
        <r>  0.0000  0.0164  0.0196  0.0051  0.0026  0.0007  0.0001  0.0022  0.0005 </r>
        <r>  0.0000  0.0556  0.0149  0.0161  0.0001  0.0001  0.0000  0.0005  0.0001 </r>
        <r>  0.0000  0.0170  0.0446  0.0367  0.0004  0.0003  0.0001  0.0001  0.0001 </r>
        <r>  0.0000  0.0306  0.0039  0.0448  0.0000  0.0004  0.0000  0.0003  0.0001 </r>
        <r>  0.0000  0.0329  0.0221  0.0621  0.0002  0.0005  0.0001  0.0003  0.0002 </r>
       </set>
       <set comment="band 31">
        <r>  0.0000  0.0141  0.0101  0.0041  0.0013  0.0005  0.0009  0.0019  0.0005 </r>
        <r>  0.0000  0.0486  0.0196  0.0121  0.0026  0.0016  0.0005  0.0064  0.0002 </r>
        <r>  0.0000  0.0019  0.0264  0.0004  0.0035  0.0001  0.0000  0.0003  0.0008 </r>
        <r>  0.0000  0.0104  0.0008  0.0253  0.0001  0.0033  0.0012  0.0014  0.0012 </r>
        <r>  0.0000  0.0223  0.0204  0.0460  0.0002  0.0004  0.0000  0.0002  0.0000 </r>
        <r>  0.0000  0.0218  0.0086  0.0078  0.0001  0.0001  0.0002  0.0002  0.0002 </r>
        <r>  0.0000  0.1196  0.0111  0.0207  0.0001  0.0002  0.0001  0.0011  0.0001 </r>
        <r>  0.0000  0.0010  0.0847  0.0172  0.0007  0.0002  0.0000  0.0000  0.0001 </r>
       </set>
       <set comment="band 32">
        <r>  0.0000  0.0008  0.0013  0.0189  0.0002  0.0025  0.0010  0.0001  0.0008 </r>
        <r>  0.0000  0.0050  0.0229  0.0204  0.0030  0.0027  0.0001  0.0007  0.0013 </r>
        <r>  0.0000  0.0249  0.0127  0.0251  0.0017  0.0033  0.0006  0.0033  0.0004 </r>
        <r>  0.0000  0.0170  0.0130  0.0118  0.0017  0.0015  0.0006  0.0022  0.0005 </r>
        <r>  0.0000  0.0044  0.0204  0.0005  0.0002  0.0000  0.0000  0.0000  0.0002 </r>
        <r>  0.0000  0.0288  0.0657  0.0657  0.0006  0.0006  0.0001  0.0003  0.0000 </r>
        <r>  0.0000  0.0122  0.0061  0.0996  0.0001  0.0009  0.0001  0.0001  0.0000 </r>
        <r>  0.0000  0.0593  0.0173  0.0014  0.0002  0.0000  0.0002  0.0005  0.0001 </r>
       </set>
       <set comment="band 33">
        <r>  0.0000  0.0008  0.0150  0.0302  0.0020  0.0040  0.0000  0.0001  0.0011 </r>
        <r>  0.0000  0.0059  0.0005  0.0031  0.0001  0.0004  0.0007  0.0008  0.0010 </r>
        <r>  0.0000  0.0151  0.0425  0.0041  0.0056  0.0005  0.0001  0.0020  0.0001 </r>
        <r>  0.0000  0.0347  0.0015  0.0203  0.0002  0.0027  0.0019  0.0046  0.0005 </r>
        <r>  0.0000  0.0182  0.0265  0.0029  0.0002  0.0000  0.0001  0.0002  0.0002 </r>
        <r>  0.0000  0.0179  0.0541  0.0307  0.0005  0.0003  0.0000  0.0002  0.0000 </r>
        <r>  0.0000  0.0061  0.0350  0.0466  0.0003  0.0004  0.0001  0.0001  0.0001 </r>
        <r>  0.0000  0.0817  0.0153  0.0463  0.0001  0.0004  0.0002  0.0007  0.0001 </r>
       </set>
       <set comment="band 34">
        <r>  0.0000  0.0342  0.0080  0.0025  0.0011  0.0003  0.0007  0.0045  0.0007 </r>
        <r>  0.0000  0.0219  0.0159  0.0009  0.0021  0.0001  0.0004  0.0029  0.0005 </r>
        <r>  0.0000  0.0248  0.0108  0.0157  0.0014  0.0021  0.0012  0.0033  0.0007 </r>
        <r>  0.0000  0.0043  0.0273  0.0074  0.0036  0.0010  0.0005  0.0006  0.0006 </r>
        <r>  0.0000  0.0191  0.1264  0.0235  0.0011  0.0002  0.0000  0.0002  0.0001 </r>
        <r>  0.0000  0.1127  0.0010  0.0147  0.0000  0.0001  0.0000  0.0010  0.0001 </r>
        <r>  0.0000  0.0306  0.0016  0.0188  0.0000  0.0002  0.0004  0.0003  0.0001 </r>
        <r>  0.0000  0.0249  0.0070  0.0010  0.0001  0.0000  0.0000  0.0002  0.0001 </r>
       </set>
       <set comment="band 35">
        <r>  0.0000  0.0187  0.0548  0.0120  0.0072  0.0016  0.0002  0.0025  0.0003 </r>
        <r>  0.0000  0.0099  0.0050  0.0030  0.0007  0.0004  0.0025  0.0013  0.0003 </r>
        <r>  0.0000  0.0015  0.0101  0.0324  0.0013  0.0043  0.0005  0.0002  0.0005 </r>
        <r>  0.0000  0.0048  0.0099  0.0115  0.0013  0.0015  0.0005  0.0006  0.0005 </r>
        <r>  0.0000  0.0123  0.0245  0.0194  0.0002  0.0002  0.0003  0.0001  0.0000 </r>
        <r>  0.0000  0.0230  0.0210  0.0143  0.0002  0.0001  0.0001  0.0002  0.0000 </r>
        <r>  0.0000  0.0077  0.0870  0.0017  0.0008  0.0000  0.0001  0.0001  0.0002 </r>
        <r>  0.0000  0.0337  0.0427  0.0941  0.0004  0.0008  0.0001  0.0003  0.0000 </r>
       </set>
       <set comment="band 36">
        <r>  0.0000  0.0295  0.0170  0.0181  0.0022  0.0024  0.0003  0.0039  0.0008 </r>
        <r>  0.0000  0.0162  0.0070  0.0075  0.0009  0.0010  0.0008  0.0021  0.0001 </r>
        <r>  0.0000  0.0171  0.0001  0.0009  0.0000  0.0001  0.0016  0.0022  0.0006 </r>
        <r>  0.0000  0.0121  0.0353  0.0129  0.0046  0.0017  0.0000  0.0016  0.0010 </r>
        <r>  0.0000  0.1213  0.0150  0.0311  0.0001  0.0003  0.0001  0.0011  0.0000 </r>
        <r>  0.0000  0.0194  0.0557  0.0081  0.0005  0.0001  0.0001  0.0002  0.0001 </r>
        <r>  0.0000  0.0088  0.0357  0.0166  0.0003  0.0001  0.0000  0.0001  0.0001 </r>
        <r>  0.0000  0.0150  0.0240  0.0306  0.0002  0.0003  0.0002  0.0001  0.0002 </r>
       </set>
       <set comment="band 37">
        <r>  0.0608  0.0021  0.0088  0.0039  0.0029  0.0013  0.0000  0.0007  0.0000 </r>
        <r>  0.1376  0.0039  0.0039  0.0021  0.0013  0.0007  0.0000  0.0013  0.0000 </r>
        <r>  0.0323  0.0039  0.0039  0.0088  0.0013  0.0029  0.0000  0.0013  0.0000 </r>
        <r>  0.0618  0.0088  0.0021  0.0039  0.0007  0.0013  0.0000  0.0029  0.0000 </r>
        <r>  0.0299  0.0074  0.0018  0.0023  0.0010  0.0013  0.0000  0.0043  0.0000 </r>
        <r>  0.0243  0.0018  0.0074  0.0028  0.0043  0.0017  0.0000  0.0010  0.0000 </r>
        <r>  0.0189  0.0023  0.0028  0.0074  0.0017  0.0043  0.0000  0.0013  0.0000 </r>
        <r>  0.0771  0.0028  0.0023  0.0018  0.0013  0.0010  0.0000  0.0017  0.0000 </r>
       </set>
       <set comment="band 38">
        <r>  0.1374  0.0002  0.0028  0.0068  0.0009  0.0022  0.0000  0.0001  0.0000 </r>
        <r>  0.0447  0.0068  0.0088  0.0002  0.0029  0.0001  0.0000  0.0022  0.0000 </r>
        <r>  0.0039  0.0088  0.0068  0.0028  0.0022  0.0009  0.0000  0.0029  0.0000 </r>
        <r>  0.1065  0.0028  0.0002  0.0088  0.0001  0.0029  0.0000  0.0009  0.0000 </r>
        <r>  0.0531  0.0024  0.0002  0.0067  0.0001  0.0039  0.0000  0.0014  0.0000 </r>
        <r>  0.0699  0.0002  0.0024  0.0051  0.0014  0.0029  0.0000  0.0001  0.0000 </r>
        <r>  0.0019  0.0067  0.0051  0.0024  0.0029  0.0014  0.0000  0.0039  0.0000 </r>
        <r>  0.0253  0.0051  0.0067  0.0002  0.0039  0.0001  0.0000  0.0029  0.0000 </r>
       </set>
       <set comment="band 39">
        <r>  0.0822  0.0048  0.0020  0.0066  0.0007  0.0022  0.0000  0.0016  0.0000 </r>
        <r>  0.0318  0.0066  0.0052  0.0048  0.0017  0.0016  0.0000  0.0022  0.0000 </r>
        <r>  0.0755  0.0052  0.0066  0.0020  0.0022  0.0007  0.0000  0.0017  0.0000 </r>
        <r>  0.1030  0.0020  0.0048  0.0052  0.0016  0.0017  0.0000  0.0007  0.0000 </r>
        <r>  0.0137  0.0042  0.0073  0.0015  0.0043  0.0009  0.0000  0.0024  0.0000 </r>
        <r>  0.0155  0.0073  0.0042  0.0013  0.0024  0.0008  0.0000  0.0043  0.0000 </r>
        <r>  0.0771  0.0015  0.0013  0.0042  0.0008  0.0024  0.0000  0.0009  0.0000 </r>
        <r>  0.0439  0.0013  0.0015  0.0073  0.0009  0.0043  0.0000  0.0008  0.0000 </r>
       </set>
       <set comment="band 40">
        <r>  0.0121  0.0115  0.0050  0.0013  0.0016  0.0004  0.0000  0.0038  0.0000 </r>
        <r>  0.0785  0.0013  0.0008  0.0115  0.0003  0.0038  0.0000  0.0004  0.0000 </r>
        <r>  0.1807  0.0008  0.0013  0.0050  0.0004  0.0016  0.0000  0.0003  0.0000 </r>
        <r>  0.0211  0.0050  0.0115  0.0008  0.0038  0.0003  0.0000  0.0016  0.0000 </r>
        <r>  0.0536  0.0004  0.0050  0.0039  0.0029  0.0022  0.0000  0.0002  0.0000 </r>
        <r>  0.0405  0.0050  0.0004  0.0051  0.0002  0.0030  0.0000  0.0029  0.0000 </r>
        <r>  0.0523  0.0039  0.0051  0.0004  0.0030  0.0002  0.0000  0.0022  0.0000 </r>
        <r>  0.0039  0.0051  0.0039  0.0050  0.0022  0.0029  0.0000  0.0030  0.0000 </r>
       </set>
       <set comment="band 41">
        <r>  0.0000  0.0286  0.0310  0.0250  0.0028  0.0023  0.0045  0.0026  0.0003 </r>
        <r>  0.0000  0.0075  0.0217  0.0018  0.0020  0.0002  0.0065  0.0007  0.0009 </r>
        <r>  0.0000  0.0030  0.0561  0.0126  0.0051  0.0011  0.0061  0.0003  0.0022 </r>
        <r>  0.0000  0.0093  0.0291  0.0096  0.0026  0.0009  0.0118  0.0008  0.0006 </r>
        <r>  0.0000  0.0060  0.0032  0.0019  0.0017  0.0010  0.0106  0.0032  0.0014 </r>
        <r>  0.0000  0.0042  0.0142  0.0088  0.0075  0.0046  0.0069  0.0022  0.0003 </r>
        <r>  0.0000  0.0031  0.0133  0.0018  0.0071  0.0009  0.0026  0.0017  0.0022 </r>
        <r>  0.0000  0.0005  0.0087  0.0016  0.0046  0.0009  0.0112  0.0003  0.0004 </r>
       </set>
       <set comment="band 42">
        <r>  0.0000  0.0129  0.0074  0.0163  0.0007  0.0015  0.0064  0.0012  0.0007 </r>
        <r>  0.0000  0.0091  0.0305  0.0539  0.0028  0.0049  0.0016  0.0008  0.0076 </r>
        <r>  0.0000  0.0037  0.0091  0.0151  0.0008  0.0014  0.0037  0.0003  0.0081 </r>
        <r>  0.0000  0.0428  0.0177  0.0168  0.0016  0.0015  0.0019  0.0039  0.0029 </r>
        <r>  0.0000  0.0091  0.0033  0.0026  0.0018  0.0014  0.0030  0.0048  0.0111 </r>
        <r>  0.0000  0.0015  0.0096  0.0175  0.0051  0.0093  0.0014  0.0008  0.0028 </r>
        <r>  0.0000  0.0036  0.0038  0.0001  0.0020  0.0000  0.0027  0.0019  0.0047 </r>
        <r>  0.0000  0.0054  0.0018  0.0090  0.0009  0.0048  0.0076  0.0029  0.0023 </r>
       </set>
       <set comment="band 43">
        <r>  0.0000  0.0229  0.0092  0.0175  0.0008  0.0016  0.0003  0.0021  0.0059 </r>
        <r>  0.0000  0.0164  0.0016  0.0009  0.0001  0.0001  0.0019  0.0015  0.0079 </r>
        <r>  0.0000  0.0260  0.0302  0.0396  0.0027  0.0036  0.0069  0.0023  0.0010 </r>
        <r>  0.0000  0.0214  0.0330  0.0168  0.0030  0.0015  0.0063  0.0019  0.0026 </r>
        <r>  0.0000  0.0026  0.0165  0.0128  0.0088  0.0068  0.0031  0.0014  0.0015 </r>
        <r>  0.0000  0.0045  0.0004  0.0004  0.0002  0.0002  0.0003  0.0024  0.0137 </r>
        <r>  0.0000  0.0133  0.0039  0.0030  0.0021  0.0016  0.0131  0.0070  0.0008 </r>
        <r>  0.0000  0.0044  0.0003  0.0052  0.0002  0.0027  0.0003  0.0023  0.0029 </r>
       </set>
       <set comment="band 44">
        <r>  0.0000  0.0235  0.0024  0.0425  0.0002  0.0038  0.0004  0.0021  0.0032 </r>
        <r>  0.0000  0.0429  0.0017  0.0505  0.0002  0.0046  0.0005  0.0039  0.0048 </r>
        <r>  0.0000  0.0161  0.0059  0.0148  0.0005  0.0013  0.0013  0.0015  0.0099 </r>
        <r>  0.0000  0.0210  0.0063  0.0076  0.0006  0.0007  0.0012  0.0019  0.0116 </r>
        <r>  0.0000  0.0177  0.0006  0.0044  0.0003  0.0023  0.0005  0.0094  0.0011 </r>
        <r>  0.0000  0.0103  0.0014  0.0015  0.0008  0.0008  0.0017  0.0055  0.0022 </r>
        <r>  0.0000  0.0009  0.0006  0.0210  0.0003  0.0111  0.0004  0.0005  0.0086 </r>
        <r>  0.0000  0.0008  0.0021  0.0061  0.0011  0.0032  0.0011  0.0004  0.0201 </r>
       </set>
       <set comment="band 45">
        <r>  0.0000  0.0088  0.0183  0.0082  0.0017  0.0007  0.0097  0.0008  0.0090 </r>
        <r>  0.0000  0.0016  0.0461  0.0205  0.0042  0.0019  0.0038  0.0001  0.0002 </r>
        <r>  0.0000  0.0068  0.0048  0.0033  0.0004  0.0003  0.0060  0.0006  0.0021 </r>
        <r>  0.0000  0.0075  0.0285  0.0809  0.0026  0.0073  0.0010  0.0007  0.0010 </r>
        <r>  0.0000  0.0017  0.0090  0.0036  0.0048  0.0019  0.0054  0.0009  0.0003 </r>
        <r>  0.0000  0.0010  0.0121  0.0028  0.0064  0.0015  0.0001  0.0006  0.0036 </r>
        <r>  0.0000  0.0033  0.0068  0.0106  0.0036  0.0056  0.0071  0.0017  0.0063 </r>
        <r>  0.0000  0.0011  0.0002  0.0153  0.0001  0.0081  0.0096  0.0006  0.0033 </r>
       </set>
       <set comment="band 46">
        <r>  0.0000  0.0095  0.0792  0.0039  0.0072  0.0004  0.0028  0.0009  0.0003 </r>
        <r>  0.0000  0.0181  0.0133  0.0171  0.0012  0.0016  0.0166  0.0016  0.0010 </r>
        <r>  0.0000  0.0013  0.0154  0.0307  0.0014  0.0028  0.0048  0.0001  0.0021 </r>
        <r>  0.0000  0.0162  0.0230  0.0075  0.0021  0.0007  0.0032  0.0015  0.0020 </r>
        <r>  0.0000  0.0016  0.0016  0.0116  0.0008  0.0061  0.0036  0.0008  0.0005 </r>
        <r>  0.0000  0.0014  0.0015  0.0027  0.0008  0.0014  0.0236  0.0007  0.0032 </r>
        <r>  0.0000  0.0094  0.0046  0.0024  0.0024  0.0013  0.0013  0.0050  0.0004 </r>
        <r>  0.0000  0.0006  0.0298  0.0002  0.0158  0.0001  0.0012  0.0003  0.0017 </r>
       </set>
       <set comment="band 47">
        <r>  0.0000  0.0019  0.0040  0.0199  0.0004  0.0018  0.0078  0.0002  0.0087 </r>
        <r>  0.0000  0.0324  0.0373  0.0020  0.0034  0.0002  0.0008  0.0029  0.0051 </r>
        <r>  0.0000  0.0729  0.0159  0.0227  0.0014  0.0021  0.0005  0.0066  0.0004 </r>
        <r>  0.0000  0.0160  0.0025  0.0079  0.0002  0.0007  0.0033  0.0014  0.0062 </r>
        <r>  0.0000  0.0034  0.0094  0.0022  0.0050  0.0012  0.0000  0.0018  0.0091 </r>
        <r>  0.0000  0.0173  0.0057  0.0086  0.0030  0.0046  0.0016  0.0092  0.0037 </r>
        <r>  0.0000  0.0059  0.0000  0.0028  0.0000  0.0015  0.0074  0.0031  0.0074 </r>
        <r>  0.0000  0.0086  0.0020  0.0014  0.0011  0.0007  0.0045  0.0046  0.0018 </r>
       </set>
       <set comment="band 48">
        <r>  0.0000  0.0488  0.0053  0.0236  0.0005  0.0021  0.0010  0.0044  0.0048 </r>
        <r>  0.0000  0.0289  0.0048  0.0101  0.0004  0.0009  0.0011  0.0026  0.0053 </r>
        <r>  0.0000  0.0272  0.0195  0.0181  0.0018  0.0016  0.0035  0.0025  0.0071 </r>
        <r>  0.0000  0.0226  0.0168  0.0097  0.0015  0.0009  0.0041  0.0020  0.0060 </r>
        <r>  0.0000  0.0028  0.0013  0.0058  0.0007  0.0031  0.0095  0.0015  0.0106 </r>
        <r>  0.0000  0.0046  0.0000  0.0025  0.0000  0.0013  0.0000  0.0025  0.0060 </r>
        <r>  0.0000  0.0055  0.0120  0.0032  0.0063  0.0017  0.0010  0.0029  0.0053 </r>
        <r>  0.0000  0.0235  0.0000  0.0061  0.0000  0.0032  0.0000  0.0125  0.0032 </r>
       </set>
      </set>
     </set>
    </set>
   </array>
  </projected>
 </calculation>
 <structure name="finalpos" >
  <crystal>
   <varray name="basis" >
    <v>       5.66247787       0.00000000       0.00000000 </v>
    <v>      -0.00000000       5.66247787       0.00000000 </v>
    <v>       0.00000000       0.00000000       5.66247787 </v>
   </varray>
   <i name="volume">    181.55974043 </i>
   <varray name="rec_basis" >
    <v>       0.17660113       0.00000000       0.00000000 </v>
    <v>       0.00000000       0.17660113       0.00000000 </v>
    <v>      -0.00000000      -0.00000000       0.17660113 </v>
   </varray>
  </crystal>
  <varray name="positions" >
   <v>       0.00000000       0.00000000       0.00000000 </v>
   <v>       0.50000000       0.50000000       0.00000000 </v>
   <v>       0.50000000       0.00000000       0.50000000 </v>
   <v>       0.00000000       0.50000000       0.50000000 </v>
   <v>       0.25000000       0.25000000       0.25000000 </v>
   <v>       0.25000000       0.75000000       0.75000000 </v>
   <v>       0.75000000       0.75000000       0.25000000 </v>
   <v>       0.75000000       0.25000000       0.75000000 </v>
  </varray>
 </structure>
</modeling>
