 vasp.6.4.2 20Jul23 (build Mar 15 2024 16:31:38) complex                        
  
 executed on             LinuxIFC date 2025.03.19  15:41:36
 running  120 mpi-ranks, on    3 nodes
 distrk:  each k-point on  120 cores,    1 groups
 distr:  one band on NCORE=  10 cores,   12 groups


--------------------------------------------------------------------------------------------------------


 INCAR:
   ALGO = Fast
   CSHIFT = 1e-05
   EDIFF = 1e-05
   ENAUG = 1360
   ENCUT = 680
   GGA = Ps
   ICHARG = 11
   ISMEAR = -5
   ISPIN = 1
   ISYM = 2
   LAECHG = True
   LASPH = True
   LCHARG = False
   LELF = False
   LMAXMIX = 4
   LMIXTAU = True
   LOPTICS = True
   LORBIT = 11
   LREAL = False
   LVTOT = True
   LWAVE = True
   NBANDS = 58
   NCORE = 10
   NEDOS = 2000
   NELM = 200
   NSW = 0
   PREC = Accurate
   SIGMA = 0.05

 POTCAR:    PAW_PBE Ga_d 06Jul2010                
 POTCAR:    PAW_PBE Cu 22Jun2005                  
 POTCAR:    PAW_PBE Se 06Sep2000                  
 WARNING: For LVTOT=.TRUE., VASP.5.x writes the TOTAL local potential to the
     file LOCPOT. If you want only the Hartree contributions, use LVHAR=.TRUE.
     instead. 

 POTCAR:    PAW_PBE Ga_d 06Jul2010                
   VRHFIN =Ga: s2p1                                                                                 
   LEXCH  = PE                                                                                      
   EATOM  =  2148.8298 eV,  157.9345 Ry                                                             
                                                                                                    
   TITEL  = PAW_PBE Ga_d 06Jul2010                                                                  
   LULTRA =        F    use ultrasoft PP ?                                                          
   IUNSCR =        1    unscreen: 0-lin 1-nonlin 2-no                                               
   RPACOR =    1.700    partial core radius                                                         
   POMASS =   69.723; ZVAL   =   13.000    mass and valenz                                          
   RCORE  =    2.300    outmost cutoff radius                                                       
   RWIGS  =    2.300; RWIGS  =    1.217    wigner-seitz radius (au A)                               
   ENMAX  =  282.691; ENMIN  =  212.018 eV                                                          
   ICORE  =        3    local potential                                                             
   LCOR   =        T    correct aug charges                                                         
   LPAW   =        T    paw PP                                                                      
   EAUG   =  490.690                                                                                
   DEXC   =    0.000                                                                                
   RMAX   =    2.341    core radius for proj-oper                                                   
   RAUG   =    1.300    factor for augmentation sphere                                              
   RDEP   =    2.413    radius for radial grids                                                     
   RDEPT  =    1.856    core radius for aug-charge                                                  
                                                                                                    
   Atomic configuration                                                                             
    9 entries                                                                                       
     n  l   j            E        occ.                                                              
     1  0  0.50    -10228.7831   2.0000                                                             
     2  0  0.50     -1262.1604   2.0000                                                             
     2  1  1.50     -1098.6333   6.0000                                                             
     3  0  0.50      -148.1110   2.0000                                                             
     3  1  1.50       -98.8436   6.0000                                                             
     3  2  2.50       -19.1549  10.0000                                                             
     4  0  0.50        -8.9483   2.0000                                                             
     4  1  0.50        -2.5791   1.0000                                                             
     4  3  2.50        -2.7416   0.0000                                                             
   Description                                                                                      
     l       E           TYP  RCUT    TYP  RCUT                                                     
     2    -19.1549037     23  2.300                                                                 
     2     -5.4423304     23  2.300                                                                 
     0     -8.9483111     23  2.300                                                                 
     0     68.0291300     23  2.300                                                                 
     1     -2.5790802     23  2.100                                                                 
     1     81.6349560     23  2.300                                                                 
     3      6.8029130     23  2.300                                                                 
  local pseudopotential read in
  partial core-charges read in
  partial kinetic energy density read in
  atomic valenz-charges read in
  non local Contribution for L=           2  read in
    real space projection operators read in
  non local Contribution for L=           2  read in
    real space projection operators read in
  non local Contribution for L=           0  read in
    real space projection operators read in
  non local Contribution for L=           0  read in
    real space projection operators read in
  non local Contribution for L=           1  read in
    real space projection operators read in
  non local Contribution for L=           1  read in
    real space projection operators read in
    PAW grid and wavefunctions read in
 
   number of l-projection  operators is LMAX  =           6
   number of lm-projection operators is LMMAX =          18
 
 POTCAR:    PAW_PBE Cu 22Jun2005                  
   VRHFIN =Cu: d10 p1                                                                               
   LEXCH  = PE                                                                                      
   EATOM  =  1390.9808 eV,  102.2342 Ry                                                             
                                                                                                    
   TITEL  = PAW_PBE Cu 22Jun2005                                                                    
   LULTRA =        F    use ultrasoft PP ?                                                          
   IUNSCR =        1    unscreen: 0-lin 1-nonlin 2-no                                               
   RPACOR =    2.000    partial core radius                                                         
   POMASS =   63.546; ZVAL   =   11.000    mass and valenz                                          
   RCORE  =    2.300    outmost cutoff radius                                                       
   RWIGS  =    2.200; RWIGS  =    1.164    wigner-seitz radius (au A)                               
   ENMAX  =  295.446; ENMIN  =  221.585 eV                                                          
   ICORE  =        3    local potential                                                             
   LCOR   =        T    correct aug charges                                                         
   LPAW   =        T    paw PP                                                                      
   EAUG   =  586.980                                                                                
   DEXC   =    0.000                                                                                
   RMAX   =    2.344    core radius for proj-oper                                                   
   RAUG   =    1.300    factor for augmentation sphere                                              
   RDEP   =    2.302    radius for radial grids                                                     
   RDEPT  =    1.771    core radius for aug-charge                                                  
                                                                                                    
   Atomic configuration                                                                             
    9 entries                                                                                       
     n  l   j            E        occ.                                                              
     1  0  0.50     -8850.2468   2.0000                                                             
     2  0  0.50     -1062.3498   2.0000                                                             
     2  1  1.50      -916.8226   6.0000                                                             
     3  0  0.50      -114.6929   2.0000                                                             
     3  1  1.50       -72.1325   6.0000                                                             
     3  2  2.50        -5.0394  10.0000                                                             
     4  0  0.50        -4.6097   1.0000                                                             
     4  1  0.50        -4.0817   0.0000                                                             
     4  3  2.50        -1.3606   0.0000                                                             
   Description                                                                                      
     l       E           TYP  RCUT    TYP  RCUT                                                     
     2     -5.0393973     23  2.200                                                                 
     2     10.8846608     23  2.200                                                                 
     0     -4.6097109     23  2.200                                                                 
     0      8.2520465     23  2.200                                                                 
     1     -2.7211652     23  2.200                                                                 
     1     21.7055443     23  2.200                                                                 
     3      2.7211652     23  2.300                                                                 
  local pseudopotential read in
  partial core-charges read in
  partial kinetic energy density read in
  atomic valenz-charges read in
  non local Contribution for L=           2  read in
    real space projection operators read in
  non local Contribution for L=           2  read in
    real space projection operators read in
  non local Contribution for L=           0  read in
    real space projection operators read in
  non local Contribution for L=           0  read in
    real space projection operators read in
  non local Contribution for L=           1  read in
    real space projection operators read in
  non local Contribution for L=           1  read in
    real space projection operators read in
    PAW grid and wavefunctions read in
 
   number of l-projection  operators is LMAX  =           6
   number of lm-projection operators is LMMAX =          18
 
 POTCAR:    PAW_PBE Se 06Sep2000                  
   VRHFIN =Se: s2p4                                                                                 
   LEXCH  = PE                                                                                      
   EATOM  =   257.1286 eV,   18.8984 Ry                                                             
                                                                                                    
   TITEL  = PAW_PBE Se 06Sep2000                                                                    
   LULTRA =        F    use ultrasoft PP ?                                                          
   IUNSCR =        1    unscreen: 0-lin 1-nonlin 2-no                                               
   RPACOR =    1.900    partial core radius                                                         
   POMASS =   78.960; ZVAL   =    6.000    mass and valenz                                          
   RCORE  =    2.100    outmost cutoff radius                                                       
   RWIGS  =    2.200; RWIGS  =    1.164    wigner-seitz radius (au A)                               
   ENMAX  =  211.555; ENMIN  =  158.666 eV                                                          
   ICORE  =        3    local potential                                                             
   LCOR   =        T    correct aug charges                                                         
   LPAW   =        T    paw PP                                                                      
   EAUG   =  446.842                                                                                
   DEXC   =    0.000                                                                                
   RMAX   =    2.147    core radius for proj-oper                                                   
   RAUG   =    1.300    factor for augmentation sphere                                              
   RDEP   =    2.177    radius for radial grids                                                     
   RDEPT  =    1.928    core radius for aug-charge                                                  
                                                                                                    
   Atomic configuration                                                                             
   10 entries                                                                                       
     n  l   j            E        occ.                                                              
     1  0  0.50    -12503.4787   2.0000                                                             
     2  0  0.50     -1606.9547   2.0000                                                             
     2  1  1.50     -1413.3140   6.0000                                                             
     3  0  0.50      -213.4885   2.0000                                                             
     3  1  1.50      -152.9538   6.0000                                                             
     3  2  2.50       -53.1221  10.0000                                                             
     4  0  0.50       -17.2865   2.0000                                                             
     4  1  0.50        -6.5110   4.0000                                                             
     4  2  2.50        -6.8029   0.0000                                                             
     4  3  2.50        -6.8029   0.0000                                                             
   Description                                                                                      
     l       E           TYP  RCUT    TYP  RCUT                                                     
     0    -17.2865377     23  2.100                                                                 
     0    -15.3094411     23  2.100                                                                 
     1     -6.5110275     23  2.100                                                                 
     1     -0.0695192     23  2.100                                                                 
     2     -6.8029130     23  2.100                                                                 
     3     -1.3605826      7  2.100                                                                 
  local pseudopotential read in
  partial core-charges read in
  partial kinetic energy density read in
  atomic valenz-charges read in
  non local Contribution for L=           0  read in
    real space projection operators read in
  non local Contribution for L=           0  read in
    real space projection operators read in
  non local Contribution for L=           1  read in
    real space projection operators read in
  non local Contribution for L=           1  read in
    real space projection operators read in
  non local Contribution for L=           2  read in
    real space projection operators read in
    PAW grid and wavefunctions read in
 
   number of l-projection  operators is LMAX  =           5
   number of lm-projection operators is LMMAX =          13
 
 -----------------------------------------------------------------------------
|                                                                             |
|               ----> ADVICE to this user running VASP <----                  |
|                                                                             |
|     You enforced a specific xc type in the INCAR file but a different       |
|     type was found in the POTCAR file.                                      |
|     I HOPE YOU KNOW WHAT YOU ARE DOING!                                     |
|                                                                             |
 -----------------------------------------------------------------------------

  PAW_PBE Ga_d 06Jul2010                :
 energy of atom  1       EATOM=-2148.8298
 kinetic energy error for atom=    0.0008 (will be added to EATOM!!)
  PAW_PBE Cu 22Jun2005                  :
 energy of atom  2       EATOM=-1390.9808
 kinetic energy error for atom=    0.0018 (will be added to EATOM!!)
  PAW_PBE Se 06Sep2000                  :
 energy of atom  3       EATOM= -257.1286
 kinetic energy error for atom=    0.0004 (will be added to EATOM!!)
 
 
 POSCAR: Ga2 Cu2 Se4
  positions in direct lattice
  No initial velocities read in
 exchange correlation table for  LEXCH =       14
   RHO(1)=    0.500       N(1)  =     2000
   RHO(2)=  100.500       N(2)  =     4000
 


--------------------------------------------------------------------------------------------------------


 ion  position               nearest neighbor table
   1  0.500  0.500  0.000-   8 2.43   7 2.43   6 2.43   5 2.43
   2  0.750  0.250  0.500-   6 2.43   8 2.43   5 2.43   7 2.43
   3  0.000  0.000  0.000-   5 2.41   6 2.41   7 2.41   8 2.41
   4  0.250  0.750  0.500-   7 2.41   5 2.41   8 2.41   6 2.41
   5  0.371  0.375  0.250-   3 2.41   4 2.41   2 2.43   1 2.43
   6  0.125  0.629  0.750-   3 2.41   4 2.41   2 2.43   1 2.43
   7  0.625  0.121  0.750-   4 2.41   3 2.41   1 2.43   2 2.43
   8  0.879  0.875  0.250-   4 2.41   3 2.41   1 2.43   2 2.43
 
  LATTYP: Found a body centered tetragonal cell.
 ALAT       =     5.6027357700
 C/A-ratio  =     1.9830197459
  
  Lattice vectors:
  
 A1 = (   1.0357585192,  -5.0026425748,  -4.5228292072)
 A2 = (  -5.1087403584,   0.0000000000,  -4.5228296824)
 A3 = (   4.0729818392,   5.0026425748,   2.2225205196)


Analysis of symmetry for initial positions (statically):
=====================================================================
 Subroutine PRICEL returns:
 Original cell was already a primitive cell.
 

 Routine SETGRP: Setting up the symmetry group for a 
 body centered tetragonal supercell.


 Subroutine GETGRP returns: Found  8 space group operations
 (whereof  4 operations were pure point group operations)
 out of a pool of 16 trial point group operations.


The static configuration has the point symmetry S_4 .
 The point group associated with its full space group is D_2d.


Analysis of symmetry for dynamics (positions and initial velocities):
=====================================================================
 Subroutine PRICEL returns:
 Original cell was already a primitive cell.
 

 Routine SETGRP: Setting up the symmetry group for a 
 body centered tetragonal supercell.


 Subroutine GETGRP returns: Found  8 space group operations
 (whereof  4 operations were pure point group operations)
 out of a pool of 16 trial point group operations.


The dynamic configuration has the point symmetry S_4 .
 The point group associated with its full space group is D_2d.


 Subroutine INISYM returns: Found  8 space group operations
 (whereof  4 operations are pure point group operations),
 and found     1 'primitive' translations


----------------------------------------------------------------------------------------

                                     Primitive cell                                     

  volume of cell :     174.3803

  direct lattice vectors                    reciprocal lattice vectors
     5.108740358  0.000000000 -2.300308688     0.195742968  0.040527070  0.000000000
    -1.035758519  5.002642575 -2.300309163     0.000000000  0.199894353  0.000000000
     0.000000000  0.000000000  6.823138370     0.065991517  0.081054136  0.146560123

  length of vectors
     5.602735770  5.602736000  6.823138370     0.199894354  0.199894353  0.180012563

  position of ions in fractional coordinates (direct lattice)
     0.500000000  0.500000000  1.000000000
     0.750000000  0.250000000  0.500000000
     0.000000000  0.000000000  0.000000000
     0.250000000  0.750000000  0.500000000
     0.371215780  0.375000000  0.250000000
     0.125000000  0.628784220  0.750000000
     0.625000000  0.121215780  0.750000000
     0.878784220  0.875000000  0.250000000

  ion indices of the primitive-cell ions
   primitive index   ion index
                 1           1
                 2           2
                 3           3
                 4           4
                 5           5
                 6           6
                 7           7
                 8           8

----------------------------------------------------------------------------------------

 
 
 KPOINTS: pymatgen with grid density = 1138 / numb

Automatic generation of k-mesh.
 Grid dimensions read from file:
 generate k-points for:    5    5    4

 Generating k-lattice:

  Cartesian coordinates                     Fractional coordinates (reciprocal lattice)
     0.039148594  0.008105414  0.000000000     0.200000000  0.000000000  0.000000000
     0.000000000  0.039978871  0.000000000     0.000000000  0.200000000  0.000000000
     0.016497879  0.020263534  0.036640031    -0.000000000 -0.000000000  0.250000000

  Length of vectors
     0.039978871  0.039978871  0.045003141

  Shift w.r.t. Gamma in fractional coordinates (k-lattice)
     0.000000000  0.000000000  0.000000000

 -----------------------------------------------------------------------------
|                                                                             |
|           W    W    AA    RRRRR   N    N  II  N    N   GGGG   !!!           |
|           W    W   A  A   R    R  NN   N  II  NN   N  G    G  !!!           |
|           W    W  A    A  R    R  N N  N  II  N N  N  G       !!!           |
|           W WW W  AAAAAA  RRRRR   N  N N  II  N  N N  G  GGG   !            |
|           WW  WW  A    A  R   R   N   NN  II  N   NN  G    G                |
|           W    W  A    A  R    R  N    N  II  N    N   GGGG   !!!           |
|                                                                             |
|     Your reciprocal lattice and k-lattice belong to different lattice       |
|     classes:                                                                |
|                                                                             |
|        The reciprocal lattice is body-centered tetragonal,                  |
|        whereas your k-lattice is base-centered monoclinic.                  |
|                                                                             |
|     Results are often still useful ...                                      |
|                                                                             |
 -----------------------------------------------------------------------------

 WARNING: IBZKPT: internal override: KBLOWUP is changed to .FALSE.
      ... skipping the blow-up phase ...

 TETIRR: Found    150 inequivalent tetrahedra from      600
 
 Subroutine IBZKPT returns following result:
 ===========================================
 
 Found     33 irreducible k-points:
 
 Following reciprocal coordinates:
            Coordinates               Weight
  0.000000  0.000000  0.000000      1.000000
  0.200000  0.000000  0.000000      4.000000
  0.400000  0.000000  0.000000      4.000000
  0.200000  0.200000  0.000000      2.000000
  0.400000  0.200000  0.000000      4.000000
 -0.400000  0.200000  0.000000      4.000000
 -0.200000  0.200000  0.000000      2.000000
  0.400000  0.400000  0.000000      2.000000
 -0.400000  0.400000  0.000000      2.000000
  0.000000 -0.000000  0.250000      2.000000
  0.200000  0.000000  0.250000      4.000000
  0.400000  0.000000  0.250000      4.000000
 -0.400000 -0.000000  0.250000      4.000000
 -0.200000 -0.000000  0.250000      4.000000
  0.200000  0.200000  0.250000      2.000000
  0.400000  0.200000  0.250000      4.000000
 -0.400000  0.200000  0.250000      4.000000
 -0.200000  0.200000  0.250000      4.000000
  0.400000  0.400000  0.250000      2.000000
 -0.400000  0.400000  0.250000      4.000000
 -0.200000  0.400000  0.250000      4.000000
 -0.400000 -0.400000  0.250000      2.000000
 -0.200000 -0.400000  0.250000      4.000000
 -0.200000 -0.200000  0.250000      2.000000
  0.000000 -0.000000  0.500000      1.000000
  0.200000  0.000000  0.500000      4.000000
  0.400000  0.000000  0.500000      4.000000
  0.200000  0.200000  0.500000      2.000000
  0.400000  0.200000  0.500000      4.000000
 -0.400000  0.200000  0.500000      4.000000
 -0.200000  0.200000  0.500000      2.000000
  0.400000  0.400000  0.500000      2.000000
 -0.400000  0.400000  0.500000      2.000000
 
 Following cartesian coordinates:
            Coordinates               Weight
  0.000000  0.000000  0.000000      1.000000
  0.039149  0.008105  0.000000      4.000000
  0.078297  0.016211  0.000000      4.000000
  0.039149  0.048084  0.000000      2.000000
  0.078297  0.056190  0.000000      4.000000
 -0.078297  0.023768  0.000000      4.000000
 -0.039149  0.031873  0.000000      2.000000
  0.078297  0.096169  0.000000      2.000000
 -0.078297  0.063747  0.000000      2.000000
  0.016498  0.020264  0.036640      2.000000
  0.055646  0.028369  0.036640      4.000000
  0.094795  0.036474  0.036640      4.000000
 -0.061799  0.004053  0.036640      4.000000
 -0.022651  0.012158  0.036640      4.000000
  0.055646  0.068348  0.036640      2.000000
  0.094795  0.076453  0.036640      4.000000
 -0.061799  0.044032  0.036640      4.000000
 -0.022651  0.052137  0.036640      4.000000
  0.094795  0.116432  0.036640      2.000000
 -0.061799  0.084010  0.036640      4.000000
 -0.022651  0.092116  0.036640      4.000000
 -0.061799 -0.075905  0.036640      2.000000
 -0.022651 -0.067800  0.036640      4.000000
 -0.022651 -0.027821  0.036640      2.000000
  0.032996  0.040527  0.073280      1.000000
  0.072144  0.048632  0.073280      4.000000
  0.111293  0.056738  0.073280      4.000000
  0.072144  0.088611  0.073280      2.000000
  0.111293  0.096717  0.073280      4.000000
 -0.045301  0.064295  0.073280      4.000000
 -0.006153  0.072401  0.073280      2.000000
  0.111293  0.136696  0.073280      2.000000
 -0.045301  0.104274  0.073280      2.000000
 
 -----------------------------------------------------------------------------
|                                                                             |
|           W    W    AA    RRRRR   N    N  II  N    N   GGGG   !!!           |
|           W    W   A  A   R    R  NN   N  II  NN   N  G    G  !!!           |
|           W    W  A    A  R    R  N N  N  II  N N  N  G       !!!           |
|           W WW W  AAAAAA  RRRRR   N  N N  II  N  N N  G  GGG   !            |
|           WW  WW  A    A  R   R   N   NN  II  N   NN  G    G                |
|           W    W  A    A  R    R  N    N  II  N    N   GGGG   !!!           |
|                                                                             |
|     The number of bands has been changed from the values supplied in        |
|     the INCAR file. This is a result of running the parallel version.       |
|     The orbitals not found in the WAVECAR file will be initialized with     |
|     random numbers, which is usually adequate. For correlated               |
|     calculations, however, you should redo the groundstate calculation.     |
|     I found NBANDS = 58. Now, NBANDS = 60.                                  |
|                                                                             |
 -----------------------------------------------------------------------------



--------------------------------------------------------------------------------------------------------




 Dimension of arrays:
   k-points           NKPTS =     33   k-points in BZ     NKDIM =     33   number of bands    NBANDS=     60
   number of dos      NEDOS =   2000   number of ions     NIONS =      8
   non local maximal  LDIM  =      6   non local SUM 2l+1 LMDIM =     18
   total plane-waves  NPLWV = 138240
   max r-space proj   IRMAX =      1   max aug-charges    IRDMAX=  34767
   dimension x,y,z NGX =    48 NGY =   48 NGZ =   60
   dimension x,y,z NGXF=    96 NGYF=   96 NGZF=  120
   support grid    NGXF=    96 NGYF=   96 NGZF=  120
   ions per type =               2   2   4
   NGX,Y,Z   is equivalent  to a cutoff of  14.24, 14.24, 14.62 a.u.
   NGXF,Y,Z  is equivalent  to a cutoff of  28.49, 28.49, 29.24 a.u.

 SYSTEM =  unknown system                          
 POSCAR =  Ga2 Cu2 Se4                             

 Startparameter for this run:
   NWRITE =      2    write-flag & timer
   PREC   = accura    normal or accurate (medium, high low for compatibility)
   ISTART =      0    job   : 0-new  1-cont  2-samecut
   ICHARG =     11    charge: 1-file 2-atom 10-const
   ISPIN  =      1    spin polarized calculation?
   LNONCOLLINEAR =      F non collinear calculations
   LSORBIT =      F    spin-orbit coupling
   INIWAV =      1    electr: 0-lowe 1-rand  2-diag
   LASPH  =      T    aspherical Exc in radial PAW
 Electronic Relaxation 1
   ENCUT  =  680.0 eV  49.98 Ry    7.07 a.u.  11.91 11.91 14.51*2*pi/ulx,y,z
   ENINI  =  680.0     initial cutoff
   ENAUG  = 1360.0 eV  augmentation charge cutoff
   NELM   =    200;   NELMIN=  2; NELMDL= -5     # of ELM steps 
   EDIFF  = 0.1E-04   stopping-criterion for ELM
   LREAL  =      F    real-space projection
   NLSPLINE    = F    spline interpolate recip. space projectors
   LCOMPAT=      F    compatible to vasp.4.4
   GGA_COMPAT  = T    GGA compatible to vasp.4.4-vasp.4.6
   LMAXPAW     = -100 max onsite density
   LMAXMIX     =    4 max onsite mixed and CHGCAR
   VOSKOWN=      0    Vosko Wilk Nusair interpolation
   ROPT   =    0.00000   0.00000   0.00000
 Ionic relaxation
   EDIFFG = 0.1E-03   stopping-criterion for IOM
   NSW    =      0    number of steps for IOM
   NBLOCK =      1;   KBLOCK =      1    inner block; outer block 
   IBRION =     -1    ionic relax: 0-MD 1-quasi-New 2-CG
   NFREE  =      0    steps in history (QN), initial steepest desc. (CG)
   ISIF   =      2    stress and relaxation
   IWAVPR =     10    prediction:  0-non 1-charg 2-wave 3-comb
   ISYM   =      2    0-nonsym 1-usesym 2-fastsym
   LCORR  =      T    Harris-Foulkes like correction to forces

   POTIM  = 0.5000    time-step for ionic-motion
   TEIN   =    0.0    initial temperature
   TEBEG  =    0.0;   TEEND  =   0.0 temperature during run
   SMASS  =  -3.00    Nose mass-parameter (am)
   estimated Nose-frequenzy (Omega)   =  0.10E-29 period in steps = 0.13E+47 mass=  -0.717E-27a.u.
   SCALEE = 1.0000    scale energy and forces
   NPACO  =    256;   APACO  = 10.0  distance and # of slots for P.C.
   PSTRESS=    0.0 pullay stress

  Mass of Ions in am
   POMASS =  69.72 63.55 78.96
  Ionic Valenz
   ZVAL   =  13.00 11.00  6.00
  Atomic Wigner-Seitz radii
   RWIGS  =  -1.00 -1.00 -1.00
  virtual crystal weights 
   VCA    =   1.00  1.00  1.00
   NELECT =      72.0000    total number of electrons
   NUPDOWN=      -1.0000    fix difference up-down

 DOS related values:
   EMIN   =  10.00;   EMAX   =-10.00  energy-range for DOS
   EFERMI =   0.00;   METHOD = LEGACY      
   ISMEAR =    -5;   SIGMA  =   0.05  broadening in eV -4-tet -1-fermi 0-gaus

 Electronic relaxation 2 (details)
   IALGO  =     68    algorithm
   LDIAG  =      T    sub-space diagonalisation (order eigenvalues)
   LSUBROT=      F    optimize rotation matrix (better conditioning)
   TURBO    =      0    0=normal 1=particle mesh
   IRESTART =      0    0=no restart 2=restart with 2 vectors
   NREBOOT  =      0    no. of reboots
   NMIN     =      0    reboot dimension
   EREF     =   0.00    reference energy to select bands
   IMIX   =      4    mixing-type and parameters
     AMIX     =   0.40;   BMIX     =  1.00
     AMIX_MAG =   1.60;   BMIX_MAG =  1.00
     AMIN     =   0.10
     WC   =   100.;   INIMIX=   1;  MIXPRE=   1;  MAXMIX= -45

 Intra band minimization:
   WEIMIN = 0.0000     energy-eigenvalue tresh-hold
   EBREAK =  0.42E-07  absolut break condition
   DEPER  =   0.30     relativ break condition  

   TIME   =   0.40     timestep for ELM

  volume/ion in A,a.u.               =      21.80       147.10
  Fermi-wavevector in a.u.,A,eV,Ry     =   1.219045  2.303662 20.219229  1.486071
  Thomas-Fermi vector in A             =   2.354311
 
 Write flags
   LWAVE        =      T    write WAVECAR
   LDOWNSAMPLE  =      F    k-point downsampling of WAVECAR
   LCHARG       =      F    write CHGCAR
   LVTOT        =      T    write LOCPOT, total local potential
   LVHAR        =      F    write LOCPOT, Hartree potential only
   LELF         =      F    write electronic localiz. function (ELF)
   LORBIT       =     11    0 simple, 1 ext, 2 COOP (PROOUT), +10 PAW based schemes


 Dipole corrections
   LMONO  =      F    monopole corrections only (constant potential shift)
   LDIPOL =      F    correct potential (dipole corrections)
   IDIPOL =      0    1-x, 2-y, 3-z, 4-all directions 
   EPSILON=  1.0000000 bulk dielectric constant

 Exchange correlation treatment:
   GGA     =    PS    GGA type
   LEXCH   =    14    internal setting for exchange type
   LIBXC   =     F    Libxc                    
   VOSKOWN =     0    Vosko Wilk Nusair interpolation
   LHFCALC =     F    Hartree Fock is set to
   LHFONE  =     F    Hartree Fock one center treatment
   AEXX    =    0.0000 exact exchange contribution

 Linear response parameters
   LEPSILON=     F    determine dielectric tensor
   LRPA    =     F    only Hartree local field effects (RPA)
   LNABLA  =     F    use nabla operator in PAW spheres
   LVEL    =     F    velocity operator in full k-point grid
   CSHIFT  =0.0000    complex shift for real part using Kramers Kronig
   OMEGAMAX=  -1.0    maximum frequency
   DEG_THRESHOLD= 0.2000000E-02 threshold for treating states as degnerate
   RTIME   =   -0.100 relaxation time in fs
  (WPLASMAI=    0.000 imaginary part of plasma frequency in eV, 0.658/RTIME)
   DFIELD  = 0.0000000 0.0000000 0.0000000 field for delta impulse in time
 
  Optional k-point grid parameters
   LKPOINTS_OPT  =     F    use optional k-point grid
   KPOINTS_OPT_MODE=     1    mode for optional k-point grid
 
 Orbital magnetization related:
   ORBITALMAG=     F  switch on orbital magnetization
   LCHIMAG   =     F  perturbation theory with respect to B field
   DQ        =  0.001000  dq finite difference perturbation B field
   LLRAUG    =     F  two centre corrections for induced B field
   LBONE     =     F  B-component reconstruction in AE one-centre
   LVGVCALC  =     T  calculate vGv susceptibility
   LVGVAPPL  =     F  apply vGv susceptibility instead of pGv for G=0

 Random number generation:
   RANDOM_GENERATOR = DEFAULT
   PCG_SEED         = not used


--------------------------------------------------------------------------------------------------------


 Static calculation
 charge density and potential remain constant during run
 non-spin polarized calculation
 RMM-DIIS sequential band-by-band and
  variant of blocked Davidson during initial phase
 perform sub-space diagonalisation
    before iterative eigenvector-optimisation
 no mixing
 using additional bands           24
 reciprocal scheme for non local part
 use partial core corrections
 calculate Harris-corrections to forces 
   (improved forces if not selfconsistent)
 use gradient corrections 
 WARNING: stress and forces are not correct
  (second derivative of E(xc) not defined)
 use of overlap-Matrix (Vanderbilt PP)
 Fermi weights with tetrahedron method with Bloechl corrections


--------------------------------------------------------------------------------------------------------


  energy-cutoff  :      680.00
  volume of cell :      174.38
      direct lattice vectors                 reciprocal lattice vectors
     5.108740358  0.000000000 -2.300308688     0.195742968  0.040527070  0.000000000
    -1.035758519  5.002642575 -2.300309163     0.000000000  0.199894353  0.000000000
     0.000000000  0.000000000  6.823138370     0.065991517  0.081054136  0.146560123

  length of vectors
     5.602735770  5.602736000  6.823138370     0.199894354  0.199894353  0.180012563


 
 k-points in units of 2pi/SCALE and weight: pymatgen with grid density = 1138 / numb
   0.00000000  0.00000000  0.00000000       0.010
   0.03914859  0.00810541  0.00000000       0.040
   0.07829719  0.01621083  0.00000000       0.040
   0.03914859  0.04808428  0.00000000       0.020
   0.07829719  0.05618970  0.00000000       0.040
  -0.07829719  0.02376804  0.00000000       0.040
  -0.03914859  0.03187346  0.00000000       0.020
   0.07829719  0.09616857  0.00000000       0.020
  -0.07829719  0.06374691  0.00000000       0.020
   0.01649788  0.02026353  0.03664003       0.020
   0.05564647  0.02836895  0.03664003       0.040
   0.09479507  0.03647436  0.03664003       0.040
  -0.06179931  0.00405271  0.03664003       0.040
  -0.02265071  0.01215812  0.03664003       0.040
   0.05564647  0.06834782  0.03664003       0.020
   0.09479507  0.07645323  0.03664003       0.040
  -0.06179931  0.04403158  0.03664003       0.040
  -0.02265071  0.05213699  0.03664003       0.040
   0.09479507  0.11643210  0.03664003       0.020
  -0.06179931  0.08401045  0.03664003       0.040
  -0.02265071  0.09211586  0.03664003       0.040
  -0.06179931 -0.07590504  0.03664003       0.020
  -0.02265071 -0.06779962  0.03664003       0.040
  -0.02265071 -0.02782075  0.03664003       0.020
   0.03299576  0.04052707  0.07328006       0.010
   0.07214435  0.04863248  0.07328006       0.040
   0.11129295  0.05673790  0.07328006       0.040
   0.07214435  0.08861135  0.07328006       0.020
   0.11129295  0.09671677  0.07328006       0.040
  -0.04530143  0.06429511  0.07328006       0.040
  -0.00615284  0.07240052  0.07328006       0.020
   0.11129295  0.13669564  0.07328006       0.020
  -0.04530143  0.10427398  0.07328006       0.020
 
 k-points in reciprocal lattice and weights: pymatgen with grid density = 1138 / numb
   0.00000000  0.00000000  0.00000000       0.010
   0.20000000  0.00000000  0.00000000       0.040
   0.40000000  0.00000000  0.00000000       0.040
   0.20000000  0.20000000  0.00000000       0.020
   0.40000000  0.20000000  0.00000000       0.040
  -0.40000000  0.20000000  0.00000000       0.040
  -0.20000000  0.20000000  0.00000000       0.020
   0.40000000  0.40000000  0.00000000       0.020
  -0.40000000  0.40000000  0.00000000       0.020
   0.00000000 -0.00000000  0.25000000       0.020
   0.20000000  0.00000000  0.25000000       0.040
   0.40000000  0.00000000  0.25000000       0.040
  -0.40000000 -0.00000000  0.25000000       0.040
  -0.20000000 -0.00000000  0.25000000       0.040
   0.20000000  0.20000000  0.25000000       0.020
   0.40000000  0.20000000  0.25000000       0.040
  -0.40000000  0.20000000  0.25000000       0.040
  -0.20000000  0.20000000  0.25000000       0.040
   0.40000000  0.40000000  0.25000000       0.020
  -0.40000000  0.40000000  0.25000000       0.040
  -0.20000000  0.40000000  0.25000000       0.040
  -0.40000000 -0.40000000  0.25000000       0.020
  -0.20000000 -0.40000000  0.25000000       0.040
  -0.20000000 -0.20000000  0.25000000       0.020
   0.00000000 -0.00000000  0.50000000       0.010
   0.20000000  0.00000000  0.50000000       0.040
   0.40000000  0.00000000  0.50000000       0.040
   0.20000000  0.20000000  0.50000000       0.020
   0.40000000  0.20000000  0.50000000       0.040
  -0.40000000  0.20000000  0.50000000       0.040
  -0.20000000  0.20000000  0.50000000       0.020
   0.40000000  0.40000000  0.50000000       0.020
  -0.40000000  0.40000000  0.50000000       0.020
 
 position of ions in fractional coordinates (direct lattice) 
   0.50000000  0.50000000  0.00000000
   0.75000000  0.25000000  0.50000000
   0.00000000  0.00000000  0.00000000
   0.25000000  0.75000000  0.50000000
   0.37121578  0.37500000  0.25000000
   0.12500000  0.62878422  0.75000000
   0.62500000  0.12121578  0.75000000
   0.87878422  0.87500000  0.25000000
 
 position of ions in cartesian coordinates  (Angst):
   2.03649092  2.50132129 -2.30030893
   3.57261564  1.25066064  1.11126038
   0.00000000  0.00000000  0.00000000
   0.50036620  3.75198193  1.11126014
   1.50803559  1.87599097 -0.01074223
  -0.01267607  3.14558271  3.38341709
   3.06741245  0.60639922  3.40082708
   3.58319171  4.37731225 -2.32846090
 


--------------------------------------------------------------------------------------------------------


 k-point   1 :   0.0000 0.0000 0.0000  plane waves:    7043
 k-point   2 :   0.2000 0.0000 0.0000  plane waves:    7022
 k-point   3 :   0.4000 0.0000 0.0000  plane waves:    7026
 k-point   4 :   0.2000 0.2000 0.0000  plane waves:    7017
 k-point   5 :   0.4000 0.2000 0.0000  plane waves:    7031
 k-point   6 :  -0.4000 0.2000 0.0000  plane waves:    7030
 k-point   7 :  -0.2000 0.2000 0.0000  plane waves:    7009
 k-point   8 :   0.4000 0.4000 0.0000  plane waves:    7033
 k-point   9 :  -0.4000 0.4000 0.0000  plane waves:    7023
 k-point  10 :   0.0000-0.0000 0.2500  plane waves:    6992
 k-point  11 :   0.2000 0.0000 0.2500  plane waves:    7008
 k-point  12 :   0.4000 0.0000 0.2500  plane waves:    7004
 k-point  13 :  -0.4000-0.0000 0.2500  plane waves:    7041
 k-point  14 :  -0.2000-0.0000 0.2500  plane waves:    7015
 k-point  15 :   0.2000 0.2000 0.2500  plane waves:    7013
 k-point  16 :   0.4000 0.2000 0.2500  plane waves:    7019
 k-point  17 :  -0.4000 0.2000 0.2500  plane waves:    7033
 k-point  18 :  -0.2000 0.2000 0.2500  plane waves:    7023
 k-point  19 :   0.4000 0.4000 0.2500  plane waves:    7039
 k-point  20 :  -0.4000 0.4000 0.2500  plane waves:    7025
 k-point  21 :  -0.2000 0.4000 0.2500  plane waves:    7022
 k-point  22 :  -0.4000-0.4000 0.2500  plane waves:    7034
 k-point  23 :  -0.2000-0.4000 0.2500  plane waves:    7041
 k-point  24 :  -0.2000-0.2000 0.2500  plane waves:    7015
 k-point  25 :   0.0000-0.0000 0.5000  plane waves:    6984
 k-point  26 :   0.2000 0.0000 0.5000  plane waves:    6996
 k-point  27 :   0.4000 0.0000 0.5000  plane waves:    7013
 k-point  28 :   0.2000 0.2000 0.5000  plane waves:    7022
 k-point  29 :   0.4000 0.2000 0.5000  plane waves:    7019
 k-point  30 :  -0.4000 0.2000 0.5000  plane waves:    7020
 k-point  31 :  -0.2000 0.2000 0.5000  plane waves:    6988
 k-point  32 :   0.4000 0.4000 0.5000  plane waves:    7026
 k-point  33 :  -0.4000 0.4000 0.5000  plane waves:    7028

 maximum and minimum number of plane-waves per node :       735      685

 maximum number of plane-waves:      7043
 maximum index in each direction: 
   IXMAX=   12   IYMAX=   12   IZMAX=   14
   IXMIN=  -12   IYMIN=  -12   IZMIN=  -15


 parallel 3D FFT for wavefunctions:
    minimum data exchange during FFTs selected (reduces bandwidth)
 parallel 3D FFT for charge:
    minimum data exchange during FFTs selected (reduces bandwidth)


 total amount of memory used by VASP MPI-rank0    44292. kBytes
=======================================================================

   base      :      30000. kBytes
   nonl-proj :      10183. kBytes
   fftplans  :        836. kBytes
   grid      :       1326. kBytes
   one-center:         15. kBytes
   wavefun   :       1932. kBytes
 
     INWAV:  cpu time      0.0000: real time      0.0001
 initial charge density was supplied:
 number of electron      72.0000014 magnetization 
 keeping initial charge density in first step


--------------------------------------------------------------------------------------------------------


 Maximum index for augmentation-charges          927 (set IRDMAX)


--------------------------------------------------------------------------------------------------------


 First call to EWALD:  gamma=   0.317
 Maximum number of real-space cells 3x 3x 3
 Maximum number of reciprocal cells 3x 3x 3

    FEWALD:  cpu time      0.0035: real time      0.0036


--------------------------------------- Ionic step        1  -------------------------------------------




--------------------------------------- Iteration      1(   1)  ---------------------------------------


    POTLOK:  cpu time      0.0188: real time      0.0219
    SETDIJ:  cpu time      0.1554: real time      0.1564
     EDDAV:  cpu time      0.8203: real time      0.8261
 BZINTS: Fermi energy:   18.811158;   72.000000 electrons
         Band energy: 0.476995E+03;  BLOECHL correction:   -0.152798
       DOS:  cpu time      0.0252: real time      0.0258
    --------------------------------------------
      LOOP:  cpu time      1.0197: real time      1.0302

 eigenvalue-minimisations  :  4392
 total energy-change (2. order) : 0.7139078E+03  (-0.3558406E+04)
 number of electron      72.0000014 magnetization 
 augmentation part       72.0000014 magnetization 

 Free energy of the ion-electron system (eV)
  ---------------------------------------------------
  alpha Z        PSCENC =       236.66789905
  Ewald energy   TEWEN  =     -4863.29910036
  -Hartree energ DENC   =     -2591.85111713
  -exchange      EXHF   =         0.00000000
  -V(xc)+E(xc)   XCENC  =       181.04870358
  PAW double counting   =      7586.99673414    -8416.56917974
  entropy T*S    EENTRO =         0.00000000
  eigenvalues    EBANDS =       476.99540059
  atomic energy  EATOM  =      8103.91845111
  Solvation  Ediel_sol  =         0.00000000
  ---------------------------------------------------
  free energy    TOTEN  =       713.90779123 eV

  energy without entropy =      713.90779123  energy(sigma->0) =      713.90779123


--------------------------------------------------------------------------------------------------------




--------------------------------------- Iteration      1(   2)  ---------------------------------------


     EDDAV:  cpu time      0.7106: real time      0.7148
 BZINTS: Fermi energy:    7.327182;   72.000000 electrons
         Band energy:-0.146023E+03;  BLOECHL correction:   -0.003226
       DOS:  cpu time      0.0219: real time      0.0219
    --------------------------------------------
      LOOP:  cpu time      0.7325: real time      0.7368

 eigenvalue-minimisations  :  3972
 total energy-change (2. order) :-0.6230183E+03  (-0.5686663E+03)
 number of electron      72.0000014 magnetization 
 augmentation part       72.0000014 magnetization 

 Free energy of the ion-electron system (eV)
  ---------------------------------------------------
  alpha Z        PSCENC =       236.66789905
  Ewald energy   TEWEN  =     -4863.29910036
  -Hartree energ DENC   =     -2591.85111713
  -exchange      EXHF   =         0.00000000
  -V(xc)+E(xc)   XCENC  =       181.04870358
  PAW double counting   =      7586.99673414    -8416.56917974
  entropy T*S    EENTRO =         0.00000000
  eigenvalues    EBANDS =      -146.02290853
  atomic energy  EATOM  =      8103.91845111
  Solvation  Ediel_sol  =         0.00000000
  ---------------------------------------------------
  free energy    TOTEN  =        90.88948211 eV

  energy without entropy =       90.88948211  energy(sigma->0) =       90.88948211


--------------------------------------------------------------------------------------------------------




--------------------------------------- Iteration      1(   3)  ---------------------------------------


     EDDAV:  cpu time      0.8223: real time      0.8397
 BZINTS: Fermi energy:    4.141395;   72.000000 electrons
         Band energy:-0.264718E+03;  BLOECHL correction:    0.000000
       DOS:  cpu time      0.0170: real time      0.0170
    --------------------------------------------
      LOOP:  cpu time      0.8393: real time      0.8567

 eigenvalue-minimisations  :  4692
 total energy-change (2. order) :-0.1186951E+03  (-0.1128509E+03)
 number of electron      72.0000014 magnetization 
 augmentation part       72.0000014 magnetization 

 Free energy of the ion-electron system (eV)
  ---------------------------------------------------
  alpha Z        PSCENC =       236.66789905
  Ewald energy   TEWEN  =     -4863.29910036
  -Hartree energ DENC   =     -2591.85111713
  -exchange      EXHF   =         0.00000000
  -V(xc)+E(xc)   XCENC  =       181.04870358
  PAW double counting   =      7586.99673414    -8416.56917974
  entropy T*S    EENTRO =         0.00000000
  eigenvalues    EBANDS =      -264.71797932
  atomic energy  EATOM  =      8103.91845111
  Solvation  Ediel_sol  =         0.00000000
  ---------------------------------------------------
  free energy    TOTEN  =       -27.80558868 eV

  energy without entropy =      -27.80558868  energy(sigma->0) =      -27.80558868


--------------------------------------------------------------------------------------------------------




--------------------------------------- Iteration      1(   4)  ---------------------------------------


     EDDAV:  cpu time      0.8736: real time      0.8892
 BZINTS: Fermi energy:    3.891840;   72.000000 electrons
         Band energy:-0.271123E+03;  BLOECHL correction:    0.000000
       DOS:  cpu time      0.0158: real time      0.0161
    --------------------------------------------
      LOOP:  cpu time      0.8894: real time      0.9053

 eigenvalue-minimisations  :  4860
 total energy-change (2. order) :-0.6405236E+01  (-0.6365064E+01)
 number of electron      72.0000014 magnetization 
 augmentation part       72.0000014 magnetization 

 Free energy of the ion-electron system (eV)
  ---------------------------------------------------
  alpha Z        PSCENC =       236.66789905
  Ewald energy   TEWEN  =     -4863.29910036
  -Hartree energ DENC   =     -2591.85111713
  -exchange      EXHF   =         0.00000000
  -V(xc)+E(xc)   XCENC  =       181.04870358
  PAW double counting   =      7586.99673414    -8416.56917974
  entropy T*S    EENTRO =         0.00000000
  eigenvalues    EBANDS =      -271.12321531
  atomic energy  EATOM  =      8103.91845111
  Solvation  Ediel_sol  =         0.00000000
  ---------------------------------------------------
  free energy    TOTEN  =       -34.21082467 eV

  energy without entropy =      -34.21082467  energy(sigma->0) =      -34.21082467


--------------------------------------------------------------------------------------------------------




--------------------------------------- Iteration      1(   5)  ---------------------------------------


     EDDAV:  cpu time      0.8446: real time      0.8603
 BZINTS: Fermi energy:    3.899498;   72.000000 electrons
         Band energy:-0.271293E+03;  BLOECHL correction:    0.000000
       DOS:  cpu time      0.0162: real time      0.0162
    --------------------------------------------
      LOOP:  cpu time      0.8608: real time      0.8765

 eigenvalue-minimisations  :  4764
 total energy-change (2. order) :-0.1702655E+00  (-0.1702159E+00)
 number of electron      72.0000014 magnetization 
 augmentation part       72.0000014 magnetization 

 Free energy of the ion-electron system (eV)
  ---------------------------------------------------
  alpha Z        PSCENC =       236.66789905
  Ewald energy   TEWEN  =     -4863.29910036
  -Hartree energ DENC   =     -2591.85111713
  -exchange      EXHF   =         0.00000000
  -V(xc)+E(xc)   XCENC  =       181.04870358
  PAW double counting   =      7586.99673414    -8416.56917974
  entropy T*S    EENTRO =         0.00000000
  eigenvalues    EBANDS =      -271.29348086
  atomic energy  EATOM  =      8103.91845111
  Solvation  Ediel_sol  =         0.00000000
  ---------------------------------------------------
  free energy    TOTEN  =       -34.38109022 eV

  energy without entropy =      -34.38109022  energy(sigma->0) =      -34.38109022


--------------------------------------------------------------------------------------------------------




--------------------------------------- Iteration      1(   6)  ---------------------------------------


    EDDIAG:  cpu time      0.2581: real time      0.2760
  RMM-DIIS:  cpu time      0.4165: real time      0.4176
    ORTHCH:  cpu time      0.0334: real time      0.0335
 BZINTS: Fermi energy:    3.891742;   72.000000 electrons
         Band energy:-0.271301E+03;  BLOECHL correction:    0.000000
       DOS:  cpu time      0.0164: real time      0.0164
    --------------------------------------------
      LOOP:  cpu time      0.7245: real time      0.7435

 eigenvalue-minimisations  :  7073
 total energy-change (2. order) :-0.7143478E-02  (-0.7143478E-02)
 number of electron      72.0000014 magnetization 
 augmentation part       72.0000014 magnetization 

 Free energy of the ion-electron system (eV)
  ---------------------------------------------------
  alpha Z        PSCENC =       236.66789905
  Ewald energy   TEWEN  =     -4863.29910036
  -Hartree energ DENC   =     -2591.85111713
  -exchange      EXHF   =         0.00000000
  -V(xc)+E(xc)   XCENC  =       181.04870358
  PAW double counting   =      7586.99673414    -8416.56917974
  entropy T*S    EENTRO =         0.00000000
  eigenvalues    EBANDS =      -271.30062433
  atomic energy  EATOM  =      8103.91845111
  Solvation  Ediel_sol  =         0.00000000
  ---------------------------------------------------
  free energy    TOTEN  =       -34.38823370 eV

  energy without entropy =      -34.38823370  energy(sigma->0) =      -34.38823370


--------------------------------------------------------------------------------------------------------




--------------------------------------- Iteration      1(   7)  ---------------------------------------


    EDDIAG:  cpu time      0.2552: real time      0.2696
  RMM-DIIS:  cpu time      0.4001: real time      0.4010
    ORTHCH:  cpu time      0.0354: real time      0.0355
 BZINTS: Fermi energy:    3.884777;   72.000000 electrons
         Band energy:-0.271302E+03;  BLOECHL correction:    0.000000
       DOS:  cpu time      0.0159: real time      0.0159
    --------------------------------------------
      LOOP:  cpu time      0.7065: real time      0.7220

 eigenvalue-minimisations  :  6935
 total energy-change (2. order) :-0.1204232E-02  (-0.1192171E-02)
 number of electron      72.0000014 magnetization 
 augmentation part       72.0000014 magnetization 

 Free energy of the ion-electron system (eV)
  ---------------------------------------------------
  alpha Z        PSCENC =       236.66789905
  Ewald energy   TEWEN  =     -4863.29910036
  -Hartree energ DENC   =     -2591.85111713
  -exchange      EXHF   =         0.00000000
  -V(xc)+E(xc)   XCENC  =       181.04870358
  PAW double counting   =      7586.99673414    -8416.56917974
  entropy T*S    EENTRO =         0.00000000
  eigenvalues    EBANDS =      -271.30182857
  atomic energy  EATOM  =      8103.91845111
  Solvation  Ediel_sol  =         0.00000000
  ---------------------------------------------------
  free energy    TOTEN  =       -34.38943793 eV

  energy without entropy =      -34.38943793  energy(sigma->0) =      -34.38943793


--------------------------------------------------------------------------------------------------------




--------------------------------------- Iteration      1(   8)  ---------------------------------------


    EDDIAG:  cpu time      0.2553: real time      0.2703
  RMM-DIIS:  cpu time      0.3972: real time      0.3984
    ORTHCH:  cpu time      0.0330: real time      0.0331
 BZINTS: Fermi energy:    3.896293;   72.000000 electrons
         Band energy:-0.271302E+03;  BLOECHL correction:    0.000000
       DOS:  cpu time      0.0162: real time      0.0162
    --------------------------------------------
      LOOP:  cpu time      0.7017: real time      0.7180

 eigenvalue-minimisations  :  6982
 total energy-change (2. order) :-0.1462615E-03  (-0.1579182E-03)
 number of electron      72.0000014 magnetization 
 augmentation part       72.0000014 magnetization 

 Free energy of the ion-electron system (eV)
  ---------------------------------------------------
  alpha Z        PSCENC =       236.66789905
  Ewald energy   TEWEN  =     -4863.29910036
  -Hartree energ DENC   =     -2591.85111713
  -exchange      EXHF   =         0.00000000
  -V(xc)+E(xc)   XCENC  =       181.04870358
  PAW double counting   =      7586.99673414    -8416.56917974
  entropy T*S    EENTRO =         0.00000000
  eigenvalues    EBANDS =      -271.30197483
  atomic energy  EATOM  =      8103.91845111
  Solvation  Ediel_sol  =         0.00000000
  ---------------------------------------------------
  free energy    TOTEN  =       -34.38958419 eV

  energy without entropy =      -34.38958419  energy(sigma->0) =      -34.38958419


--------------------------------------------------------------------------------------------------------




--------------------------------------- Iteration      1(   9)  ---------------------------------------


    EDDIAG:  cpu time      0.2571: real time      0.2734
  RMM-DIIS:  cpu time      0.3775: real time      0.3784
    ORTHCH:  cpu time      0.0333: real time      0.0334
 BZINTS: Fermi energy:    3.896248;   72.000000 electrons
         Band energy:-0.271302E+03;  BLOECHL correction:    0.000000
       DOS:  cpu time      0.0162: real time      0.0162
    --------------------------------------------
      LOOP:  cpu time      0.6841: real time      0.7015

 eigenvalue-minimisations  :  6468
 total energy-change (2. order) :-0.2107739E-04  (-0.2319459E-04)
 number of electron      72.0000014 magnetization 
 augmentation part       72.0000014 magnetization 

 Free energy of the ion-electron system (eV)
  ---------------------------------------------------
  alpha Z        PSCENC =       236.66789905
  Ewald energy   TEWEN  =     -4863.29910036
  -Hartree energ DENC   =     -2591.85111713
  -exchange      EXHF   =         0.00000000
  -V(xc)+E(xc)   XCENC  =       181.04870358
  PAW double counting   =      7586.99673414    -8416.56917974
  entropy T*S    EENTRO =         0.00000000
  eigenvalues    EBANDS =      -271.30199590
  atomic energy  EATOM  =      8103.91845111
  Solvation  Ediel_sol  =         0.00000000
  ---------------------------------------------------
  free energy    TOTEN  =       -34.38960527 eV

  energy without entropy =      -34.38960527  energy(sigma->0) =      -34.38960527


--------------------------------------------------------------------------------------------------------




--------------------------------------- Iteration      1(  10)  ---------------------------------------


    EDDIAG:  cpu time      0.2642: real time      0.2798
  RMM-DIIS:  cpu time      0.3180: real time      0.3188
    ORTHCH:  cpu time      0.0347: real time      0.0348
 BZINTS: Fermi energy:    3.896087;   72.000000 electrons
         Band energy:-0.271302E+03;  BLOECHL correction:    0.000000
       DOS:  cpu time      0.0161: real time      0.0161
    --------------------------------------------
      LOOP:  cpu time      0.6330: real time      0.6495

 eigenvalue-minimisations  :  4792
 total energy-change (2. order) :-0.3163851E-05  (-0.3788976E-05)
 number of electron      72.0000014 magnetization 
 augmentation part       72.0000014 magnetization 

 Free energy of the ion-electron system (eV)
  ---------------------------------------------------
  alpha Z        PSCENC =       236.66789905
  Ewald energy   TEWEN  =     -4863.29910036
  -Hartree energ DENC   =     -2591.85111713
  -exchange      EXHF   =         0.00000000
  -V(xc)+E(xc)   XCENC  =       181.04870358
  PAW double counting   =      7586.99673414    -8416.56917974
  entropy T*S    EENTRO =         0.00000000
  eigenvalues    EBANDS =      -271.30199907
  atomic energy  EATOM  =      8103.91845111
  Solvation  Ediel_sol  =         0.00000000
  ---------------------------------------------------
  free energy    TOTEN  =       -34.38960843 eV

  energy without entropy =      -34.38960843  energy(sigma->0) =      -34.38960843


--------------------------------------------------------------------------------------------------------




 average (electrostatic) potential at core
  the test charge radii are     1.0314  0.9430  1.0808
  (the norm of the test charge is              1.0000)
       1 -66.7685       2 -66.7685       3 -66.3700       4 -66.3700       5 -54.6523
       6 -54.6523       7 -54.6523       8 -54.6523
 
 
 
 E-fermi :   3.8961     XC(G=0):  -9.8267     alpha+bet : -9.2592

 Fermi energy:         3.8960867342

 k-point     1 :       0.0000    0.0000    0.0000
  band No.  band energies     occupation 
      1     -11.6222      2.00000
      2     -11.6218      2.00000
      3     -11.6218      2.00000
      4     -11.4695      2.00000
      5     -11.4547      2.00000
      6     -11.4547      2.00000
      7     -11.4109      2.00000
      8     -11.4046      2.00000
      9     -11.4022      2.00000
     10     -11.3898      2.00000
     11     -10.7087      2.00000
     12      -9.0939      2.00000
     13      -9.0939      2.00000
     14      -9.0934      2.00000
     15      -3.8096      2.00000
     16      -2.4712      2.00000
     17      -1.1514      2.00000
     18      -0.7680      2.00000
     19      -0.7316      2.00000
     20      -0.3664      2.00000
     21      -0.3664      2.00000
     22       0.3289      2.00000
     23       0.3289      2.00000
     24       0.6383      2.00000
     25       0.6383      2.00000
     26       0.6952      2.00000
     27       1.6968      2.00000
     28       1.7389      2.00000
     29       1.8320      2.00000
     30       2.1251      2.00000
     31       2.1704      2.00000
     32       2.1704      2.00000
     33       2.2664      2.00000
     34       3.7822      2.00000
     35       3.7822      2.00000
     36       3.8839      2.00000
     37       4.0091      0.00000
     38       5.7081      0.00000
     39       6.0613      0.00000
     40       7.7952      0.00000
     41       7.7952      0.00000
     42       8.1538      0.00000
     43       8.6014      0.00000
     44       8.6014      0.00000
     45       8.6407      0.00000
     46       8.9491      0.00000
     47      10.2575      0.00000
     48      10.2575      0.00000
     49      10.4766      0.00000
     50      10.8396      0.00000
     51      13.1347      0.00000
     52      14.1022      0.00000
     53      14.2679      0.00000
     54      14.2683      0.00000
     55      14.4278      0.00000
     56      14.4850      0.00000
     57      14.6245      0.00000
     58      14.7209      0.00000
     59      15.9410      0.00000
     60      15.9528      0.00000

 k-point     2 :       0.2000    0.0000    0.0000
  band No.  band energies     occupation 
      1     -11.6291      2.00000
      2     -11.6235      2.00000
      3     -11.6150      2.00000
      4     -11.4819      2.00000
      5     -11.4636      2.00000
      6     -11.4531      2.00000
      7     -11.4108      2.00000
      8     -11.4038      2.00000
      9     -11.4017      2.00000
     10     -11.3900      2.00000
     11     -10.5555      2.00000
     12      -9.2152      2.00000
     13      -9.1528      2.00000
     14      -9.1223      2.00000
     15      -3.6699      2.00000
     16      -2.5364      2.00000
     17      -1.2282      2.00000
     18      -0.9107      2.00000
     19      -0.6051      2.00000
     20      -0.2020      2.00000
     21      -0.1280      2.00000
     22       0.1706      2.00000
     23       0.3562      2.00000
     24       0.4475      2.00000
     25       0.6302      2.00000
     26       0.7603      2.00000
     27       1.7480      2.00000
     28       1.8284      2.00000
     29       1.8716      2.00000
     30       1.9976      2.00000
     31       2.0969      2.00000
     32       2.3119      2.00000
     33       2.3483      2.00000
     34       2.8715      2.00000
     35       3.4324      2.00000
     36       3.7074      2.00000
     37       5.1837      0.00000
     38       6.2953      0.00000
     39       6.3852      0.00000
     40       7.1718      0.00000
     41       7.4402      0.00000
     42       8.1087      0.00000
     43       8.5438      0.00000
     44       8.6950      0.00000
     45       8.8563      0.00000
     46       9.3671      0.00000
     47       9.9341      0.00000
     48      10.5705      0.00000
     49      11.4974      0.00000
     50      12.0724      0.00000
     51      12.4409      0.00000
     52      12.9536      0.00000
     53      13.1238      0.00000
     54      13.3469      0.00000
     55      13.5435      0.00000
     56      14.0926      0.00000
     57      14.2134      0.00000
     58      14.3456      0.00000
     59      15.2419      0.00000
     60      15.6497      0.00000

 k-point     3 :       0.4000    0.0000    0.0000
  band No.  band energies     occupation 
      1     -11.6383      2.00000
      2     -11.6274      2.00000
      3     -11.6011      2.00000
      4     -11.5099      2.00000
      5     -11.4664      2.00000
      6     -11.4510      2.00000
      7     -11.4097      2.00000
      8     -11.4061      2.00000
      9     -11.3976      2.00000
     10     -11.3912      2.00000
     11     -10.1863      2.00000
     12      -9.5666      2.00000
     13      -9.2287      2.00000
     14      -9.1678      2.00000
     15      -3.4041      2.00000
     16      -2.5402      2.00000
     17      -1.2195      2.00000
     18      -0.9442      2.00000
     19      -0.5879      2.00000
     20      -0.4024      2.00000
     21      -0.1553      2.00000
     22       0.1461      2.00000
     23       0.3856      2.00000
     24       0.4290      2.00000
     25       0.6084      2.00000
     26       0.8284      2.00000
     27       1.8389      2.00000
     28       1.8889      2.00000
     29       1.9291      2.00000
     30       1.9795      2.00000
     31       2.1243      2.00000
     32       2.3722      2.00000
     33       2.4899      2.00000
     34       2.6757      2.00000
     35       2.8337      2.00000
     36       3.3846      2.00000
     37       5.8924      0.00000
     38       6.3160      0.00000
     39       7.0443      0.00000
     40       7.5723      0.00000
     41       7.8835      0.00000
     42       8.1011      0.00000
     43       8.7437      0.00000
     44       8.9602      0.00000
     45       9.4152      0.00000
     46       9.5440      0.00000
     47       9.8369      0.00000
     48      10.1272      0.00000
     49      10.8476      0.00000
     50      11.5641      0.00000
     51      11.6838      0.00000
     52      12.0843      0.00000
     53      12.4564      0.00000
     54      12.6161      0.00000
     55      13.0239      0.00000
     56      13.6553      0.00000
     57      14.1258      0.00000
     58      14.5693      0.00000
     59      15.5906      0.00000
     60      15.7146      0.00000

 k-point     4 :       0.2000    0.2000    0.0000
  band No.  band energies     occupation 
      1     -11.6329      2.00000
      2     -11.6279      2.00000
      3     -11.6043      2.00000
      4     -11.5046      2.00000
      5     -11.4614      2.00000
      6     -11.4546      2.00000
      7     -11.4104      2.00000
      8     -11.4046      2.00000
      9     -11.3995      2.00000
     10     -11.3904      2.00000
     11     -10.3607      2.00000
     12      -9.3248      2.00000
     13      -9.2313      2.00000
     14      -9.1891      2.00000
     15      -3.5195      2.00000
     16      -2.6873      2.00000
     17      -1.3979      2.00000
     18      -0.6821      2.00000
     19      -0.4457      2.00000
     20      -0.2872      2.00000
     21      -0.2634      2.00000
     22       0.2918      2.00000
     23       0.3839      2.00000
     24       0.4838      2.00000
     25       0.6620      2.00000
     26       0.7480      2.00000
     27       1.7780      2.00000
     28       1.8939      2.00000
     29       1.9348      2.00000
     30       1.9745      2.00000
     31       2.1342      2.00000
     32       2.2824      2.00000
     33       2.4163      2.00000
     34       2.7106      2.00000
     35       3.5055      2.00000
     36       3.5575      2.00000
     37       5.1501      0.00000
     38       5.9597      0.00000
     39       6.6979      0.00000
     40       6.7108      0.00000
     41       7.5944      0.00000
     42       8.2908      0.00000
     43       8.7709      0.00000
     44       8.9188      0.00000
     45       9.1074      0.00000
     46       9.3386      0.00000
     47      10.5609      0.00000
     48      10.6528      0.00000
     49      10.9806      0.00000
     50      11.6170      0.00000
     51      11.9616      0.00000
     52      12.2055      0.00000
     53      13.1611      0.00000
     54      13.3232      0.00000
     55      13.6599      0.00000
     56      13.8474      0.00000
     57      14.1937      0.00000
     58      14.3276      0.00000
     59      15.6646      0.00000
     60      16.0946      0.00000

 k-point     5 :       0.4000    0.2000    0.0000
  band No.  band energies     occupation 
      1     -11.6402      2.00000
      2     -11.6312      2.00000
      3     -11.5893      2.00000
      4     -11.5261      2.00000
      5     -11.4643      2.00000
      6     -11.4546      2.00000
      7     -11.4080      2.00000
      8     -11.4056      2.00000
      9     -11.3968      2.00000
     10     -11.3922      2.00000
     11     -10.0163      2.00000
     12      -9.6027      2.00000
     13      -9.3300      2.00000
     14      -9.2081      2.00000
     15      -3.3624      2.00000
     16      -2.7650      2.00000
     17      -1.5189      2.00000
     18      -1.1247      2.00000
     19      -0.5245      2.00000
     20      -0.1955      2.00000
     21       0.1657      2.00000
     22       0.3202      2.00000
     23       0.3822      2.00000
     24       0.4808      2.00000
     25       0.6783      2.00000
     26       0.7603      2.00000
     27       1.8107      2.00000
     28       1.8691      2.00000
     29       1.9417      2.00000
     30       2.0017      2.00000
     31       2.2904      2.00000
     32       2.3671      2.00000
     33       2.6106      2.00000
     34       2.7355      2.00000
     35       3.0354      2.00000
     36       3.3225      2.00000
     37       5.4676      0.00000
     38       6.0486      0.00000
     39       6.8636      0.00000
     40       7.4445      0.00000
     41       7.9717      0.00000
     42       8.3753      0.00000
     43       8.7690      0.00000
     44       8.8376      0.00000
     45       9.3031      0.00000
     46       9.8789      0.00000
     47      10.1199      0.00000
     48      10.3679      0.00000
     49      10.4642      0.00000
     50      10.8824      0.00000
     51      11.3560      0.00000
     52      12.0277      0.00000
     53      12.8204      0.00000
     54      13.2168      0.00000
     55      13.5361      0.00000
     56      13.7911      0.00000
     57      14.0589      0.00000
     58      14.7036      0.00000
     59      15.8101      0.00000
     60      15.8771      0.00000

 k-point     6 :      -0.4000    0.2000    0.0000
  band No.  band energies     occupation 
      1     -11.6403      2.00000
      2     -11.6294      2.00000
      3     -11.5972      2.00000
      4     -11.5123      2.00000
      5     -11.4666      2.00000
      6     -11.4558      2.00000
      7     -11.4075      2.00000
      8     -11.4041      2.00000
      9     -11.3987      2.00000
     10     -11.3920      2.00000
     11     -10.1627      2.00000
     12      -9.4786      2.00000
     13      -9.3242      2.00000
     14      -9.1512      2.00000
     15      -3.4718      2.00000
     16      -2.7771      2.00000
     17      -1.4738      2.00000
     18      -0.9764      2.00000
     19      -0.7806      2.00000
     20      -0.1731      2.00000
     21       0.1231      2.00000
     22       0.2709      2.00000
     23       0.3819      2.00000
     24       0.5584      2.00000
     25       0.6805      2.00000
     26       0.8073      2.00000
     27       1.8241      2.00000
     28       1.8811      2.00000
     29       1.9373      2.00000
     30       2.0049      2.00000
     31       2.2586      2.00000
     32       2.3276      2.00000
     33       2.5575      2.00000
     34       2.7337      2.00000
     35       3.1431      2.00000
     36       3.3072      2.00000
     37       5.6853      0.00000
     38       6.0500      0.00000
     39       7.0948      0.00000
     40       7.3046      0.00000
     41       7.9325      0.00000
     42       8.4037      0.00000
     43       8.5534      0.00000
     44       9.0443      0.00000
     45       9.4673      0.00000
     46       9.8478      0.00000
     47      10.1606      0.00000
     48      10.4012      0.00000
     49      10.8089      0.00000
     50      10.9112      0.00000
     51      11.4709      0.00000
     52      11.9439      0.00000
     53      12.2527      0.00000
     54      12.9792      0.00000
     55      13.6329      0.00000
     56      13.7603      0.00000
     57      14.3896      0.00000
     58      14.6038      0.00000
     59      15.2179      0.00000
     60      15.5111      0.00000

 k-point     7 :      -0.2000    0.2000    0.0000
  band No.  band energies     occupation 
      1     -11.6321      2.00000
      2     -11.6267      2.00000
      3     -11.6116      2.00000
      4     -11.4831      2.00000
      5     -11.4675      2.00000
      6     -11.4568      2.00000
      7     -11.4088      2.00000
      8     -11.4028      2.00000
      9     -11.4021      2.00000
     10     -11.3908      2.00000
     11     -10.4755      2.00000
     12      -9.2520      2.00000
     13      -9.2208      2.00000
     14      -9.0991      2.00000
     15      -3.6551      2.00000
     16      -2.6391      2.00000
     17      -1.3856      2.00000
     18      -0.7780      2.00000
     19      -0.6707      2.00000
     20      -0.4303      2.00000
     21       0.1344      2.00000
     22       0.2359      2.00000
     23       0.3528      2.00000
     24       0.4000      2.00000
     25       0.6742      2.00000
     26       0.8056      2.00000
     27       1.7832      2.00000
     28       1.8827      2.00000
     29       1.9192      2.00000
     30       1.9353      2.00000
     31       2.0820      2.00000
     32       2.4323      2.00000
     33       2.4453      2.00000
     34       2.6138      2.00000
     35       3.3804      2.00000
     36       3.6804      2.00000
     37       5.3330      0.00000
     38       6.0082      0.00000
     39       7.0122      0.00000
     40       7.4550      0.00000
     41       7.8823      0.00000
     42       8.0146      0.00000
     43       8.2637      0.00000
     44       8.7879      0.00000
     45       9.0147      0.00000
     46       9.2485      0.00000
     47      10.2564      0.00000
     48      10.5973      0.00000
     49      11.9858      0.00000
     50      11.9957      0.00000
     51      12.2262      0.00000
     52      12.3811      0.00000
     53      12.5943      0.00000
     54      13.0013      0.00000
     55      13.0583      0.00000
     56      13.3261      0.00000
     57      13.8468      0.00000
     58      14.6288      0.00000
     59      15.2983      0.00000
     60      15.6713      0.00000

 k-point     8 :       0.4000    0.4000    0.0000
  band No.  band energies     occupation 
      1     -11.6406      2.00000
      2     -11.6382      2.00000
      3     -11.5665      2.00000
      4     -11.5501      2.00000
      5     -11.4630      2.00000
      6     -11.4606      2.00000
      7     -11.4048      2.00000
      8     -11.4041      2.00000
      9     -11.3961      2.00000
     10     -11.3947      2.00000
     11      -9.7746      2.00000
     12      -9.6522      2.00000
     13      -9.3778      2.00000
     14      -9.3290      2.00000
     15      -3.3095      2.00000
     16      -3.1445      2.00000
     17      -1.6507      2.00000
     18      -1.5559      2.00000
     19      -0.2688      2.00000
     20      -0.1761      2.00000
     21       0.3703      2.00000
     22       0.4599      2.00000
     23       0.4668      2.00000
     24       0.6365      2.00000
     25       0.7201      2.00000
     26       0.7492      2.00000
     27       1.8375      2.00000
     28       1.8500      2.00000
     29       1.9911      2.00000
     30       2.0054      2.00000
     31       2.3566      2.00000
     32       2.5479      2.00000
     33       2.9400      2.00000
     34       2.9913      2.00000
     35       3.2071      2.00000
     36       3.2645      2.00000
     37       5.0236      0.00000
     38       5.4518      0.00000
     39       7.3924      0.00000
     40       7.4171      0.00000
     41       7.9935      0.00000
     42       8.1533      0.00000
     43       8.7248      0.00000
     44       9.0350      0.00000
     45       9.2127      0.00000
     46       9.6904      0.00000
     47       9.7878      0.00000
     48       9.8924      0.00000
     49      10.8721      0.00000
     50      11.1043      0.00000
     51      11.6549      0.00000
     52      11.8435      0.00000
     53      13.1165      0.00000
     54      13.1991      0.00000
     55      13.5371      0.00000
     56      13.9813      0.00000
     57      14.5877      0.00000
     58      14.8874      0.00000
     59      15.0559      0.00000
     60      15.4714      0.00000

 k-point     9 :      -0.4000    0.4000    0.0000
  band No.  band energies     occupation 
      1     -11.6415      2.00000
      2     -11.6361      2.00000
      3     -11.5807      2.00000
      4     -11.5325      2.00000
      5     -11.4651      2.00000
      6     -11.4611      2.00000
      7     -11.4048      2.00000
      8     -11.4025      2.00000
      9     -11.3985      2.00000
     10     -11.3939      2.00000
     11      -9.9482      2.00000
     12      -9.5354      2.00000
     13      -9.3771      2.00000
     14      -9.2438      2.00000
     15      -3.4562      2.00000
     16      -3.1133      2.00000
     17      -1.6148      2.00000
     18      -1.3306      2.00000
     19      -0.7977      2.00000
     20       0.0693      2.00000
     21       0.4186      2.00000
     22       0.4208      2.00000
     23       0.5314      2.00000
     24       0.6348      2.00000
     25       0.7326      2.00000
     26       0.7504      2.00000
     27       1.8648      2.00000
     28       1.8723      2.00000
     29       1.9534      2.00000
     30       2.0162      2.00000
     31       2.3888      2.00000
     32       2.5740      2.00000
[...]
   30.828343    0.710371    0.710331    0.710062   -0.000096   -0.000214   -0.000174
   30.845585    0.710748    0.710708    0.710439   -0.000097   -0.000214   -0.000175
   30.862827    0.711124    0.711084    0.710814   -0.000097   -0.000215   -0.000175
   30.880069    0.711499    0.711459    0.711189   -0.000097   -0.000215   -0.000175
   30.897311    0.711873    0.711833    0.711563   -0.000097   -0.000215   -0.000175
   30.914552    0.712246    0.712206    0.711936   -0.000097   -0.000215   -0.000175
   30.931794    0.712618    0.712578    0.712308   -0.000097   -0.000215   -0.000175
   30.949036    0.712990    0.712949    0.712679   -0.000097   -0.000215   -0.000175
   30.966278    0.713360    0.713320    0.713049   -0.000097   -0.000216   -0.000175
   30.983520    0.713730    0.713689    0.713419   -0.000097   -0.000216   -0.000176
   31.000761    0.714098    0.714058    0.713787   -0.000097   -0.000216   -0.000176
   31.018003    0.714466    0.714426    0.714155   -0.000097   -0.000216   -0.000176
   31.035245    0.714833    0.714793    0.714522   -0.000097   -0.000216   -0.000176
   31.052487    0.715200    0.715159    0.714888   -0.000097   -0.000216   -0.000176
   31.069729    0.715565    0.715525    0.715253   -0.000097   -0.000216   -0.000176
   31.086970    0.715930    0.715889    0.715618   -0.000097   -0.000216   -0.000176
   31.104212    0.716293    0.716253    0.715981   -0.000097   -0.000216   -0.000176
   31.121454    0.716656    0.716616    0.716344   -0.000097   -0.000217   -0.000176
   31.138696    0.717018    0.716978    0.716706   -0.000098   -0.000217   -0.000176
   31.155938    0.717379    0.717339    0.717067   -0.000098   -0.000217   -0.000176
   31.173179    0.717740    0.717699    0.717427   -0.000098   -0.000217   -0.000177
   31.190421    0.718099    0.718059    0.717787   -0.000098   -0.000217   -0.000177
   31.207663    0.718458    0.718418    0.718145   -0.000098   -0.000217   -0.000177
   31.224905    0.718816    0.718775    0.718503   -0.000098   -0.000217   -0.000177
   31.242147    0.719173    0.719133    0.718860   -0.000098   -0.000217   -0.000177
   31.259388    0.719529    0.719489    0.719216   -0.000098   -0.000217   -0.000177
   31.276630    0.719885    0.719844    0.719572   -0.000098   -0.000217   -0.000177
   31.293872    0.720240    0.720199    0.719926   -0.000098   -0.000217   -0.000177
   31.311114    0.720594    0.720553    0.720280   -0.000098   -0.000217   -0.000177
   31.328356    0.720947    0.720906    0.720633   -0.000098   -0.000217   -0.000177
   31.345597    0.721299    0.721258    0.720985   -0.000098   -0.000218   -0.000177
   31.362839    0.721651    0.721610    0.721337   -0.000098   -0.000218   -0.000177
   31.380081    0.722001    0.721961    0.721688   -0.000098   -0.000218   -0.000177
   31.397323    0.722351    0.722311    0.722038   -0.000098   -0.000218   -0.000177
   31.414565    0.722701    0.722660    0.722387   -0.000098   -0.000218   -0.000177
   31.431806    0.723049    0.723008    0.722735   -0.000098   -0.000218   -0.000177
   31.449048    0.723397    0.723356    0.723083   -0.000098   -0.000218   -0.000177
   31.466290    0.723744    0.723703    0.723430   -0.000098   -0.000218   -0.000177
   31.483532    0.724090    0.724049    0.723776   -0.000098   -0.000218   -0.000177
   31.500774    0.724435    0.724395    0.724121   -0.000098   -0.000218   -0.000177
   31.518015    0.724780    0.724739    0.724466   -0.000098   -0.000218   -0.000177
   31.535257    0.725124    0.725083    0.724810   -0.000098   -0.000218   -0.000177
   31.552499    0.725467    0.725426    0.725153   -0.000098   -0.000218   -0.000177
   31.569741    0.725809    0.725769    0.725495   -0.000098   -0.000218   -0.000177
   31.586983    0.726151    0.726111    0.725837   -0.000098   -0.000218   -0.000177
   31.604225    0.726492    0.726451    0.726178   -0.000098   -0.000218   -0.000178
   31.621466    0.726832    0.726792    0.726518   -0.000098   -0.000218   -0.000178
   31.638708    0.727172    0.727131    0.726857   -0.000098   -0.000218   -0.000178
   31.655950    0.727511    0.727470    0.727196   -0.000098   -0.000218   -0.000178
   31.673192    0.727849    0.727808    0.727534   -0.000098   -0.000218   -0.000178
   31.690434    0.728186    0.728145    0.727871   -0.000098   -0.000218   -0.000178
   31.707675    0.728522    0.728482    0.728208   -0.000098   -0.000218   -0.000178
   31.724917    0.728858    0.728818    0.728544   -0.000098   -0.000218   -0.000178
   31.742159    0.729193    0.729153    0.728879   -0.000098   -0.000218   -0.000178
   31.759401    0.729528    0.729487    0.729213   -0.000098   -0.000218   -0.000178
   31.776643    0.729861    0.729821    0.729547   -0.000098   -0.000218   -0.000178
   31.793884    0.730194    0.730154    0.729880   -0.000098   -0.000218   -0.000178
   31.811126    0.730527    0.730486    0.730212   -0.000098   -0.000218   -0.000177
   31.828368    0.730858    0.730818    0.730544   -0.000098   -0.000218   -0.000177
   31.845610    0.731189    0.731149    0.730875   -0.000098   -0.000218   -0.000177
   31.862852    0.731519    0.731479    0.731205   -0.000098   -0.000218   -0.000177
   31.880093    0.731849    0.731808    0.731535   -0.000098   -0.000218   -0.000177
   31.897335    0.732178    0.732137    0.731864   -0.000098   -0.000218   -0.000177
   31.914577    0.732506    0.732465    0.732192   -0.000098   -0.000218   -0.000177
   31.931819    0.732833    0.732793    0.732519   -0.000098   -0.000218   -0.000177
   31.949061    0.733160    0.733119    0.732846   -0.000098   -0.000218   -0.000177
   31.966302    0.733486    0.733446    0.733172   -0.000098   -0.000218   -0.000177
   31.983544    0.733812    0.733771    0.733498   -0.000098   -0.000218   -0.000177
   32.000786    0.734136    0.734096    0.733822   -0.000098   -0.000218   -0.000177
   32.018028    0.734460    0.734420    0.734146   -0.000098   -0.000218   -0.000177
   32.035270    0.734784    0.734743    0.734470   -0.000098   -0.000218   -0.000177
   32.052511    0.735106    0.735066    0.734793   -0.000098   -0.000218   -0.000177
   32.069753    0.735428    0.735388    0.735115   -0.000098   -0.000218   -0.000177
   32.086995    0.735750    0.735709    0.735436   -0.000098   -0.000218   -0.000177
   32.104237    0.736070    0.736030    0.735757   -0.000098   -0.000217   -0.000177
   32.121479    0.736390    0.736350    0.736077   -0.000098   -0.000217   -0.000177
   32.138720    0.736710    0.736669    0.736396   -0.000098   -0.000217   -0.000177
   32.155962    0.737029    0.736988    0.736715   -0.000098   -0.000217   -0.000177
   32.173204    0.737347    0.737306    0.737033   -0.000098   -0.000217   -0.000177
   32.190446    0.737664    0.737624    0.737351   -0.000098   -0.000217   -0.000177
   32.207688    0.737981    0.737940    0.737668   -0.000098   -0.000217   -0.000177
   32.224929    0.738297    0.738257    0.737984   -0.000098   -0.000217   -0.000177
   32.242171    0.738613    0.738572    0.738300   -0.000098   -0.000217   -0.000177
   32.259413    0.738927    0.738887    0.738614   -0.000098   -0.000217   -0.000177
   32.276655    0.739242    0.739201    0.738929   -0.000098   -0.000217   -0.000177
   32.293897    0.739555    0.739515    0.739242   -0.000098   -0.000217   -0.000177
   32.311138    0.739868    0.739828    0.739555   -0.000098   -0.000217   -0.000177
   32.328380    0.740180    0.740140    0.739868   -0.000098   -0.000217   -0.000176
   32.345622    0.740492    0.740452    0.740180   -0.000098   -0.000217   -0.000176
   32.362864    0.740803    0.740763    0.740491   -0.000098   -0.000217   -0.000176
   32.380106    0.741114    0.741073    0.740801   -0.000098   -0.000217   -0.000176
   32.397347    0.741423    0.741383    0.741111   -0.000097   -0.000216   -0.000176
   32.414589    0.741733    0.741692    0.741421   -0.000097   -0.000216   -0.000176
   32.431831    0.742041    0.742001    0.741729   -0.000097   -0.000216   -0.000176
   32.449073    0.742349    0.742309    0.742037   -0.000097   -0.000216   -0.000176
   32.466315    0.742656    0.742616    0.742345   -0.000097   -0.000216   -0.000176
   32.483556    0.742963    0.742923    0.742651   -0.000097   -0.000216   -0.000176
   32.500798    0.743269    0.743229    0.742958   -0.000097   -0.000216   -0.000176
   32.518040    0.743575    0.743534    0.743263   -0.000097   -0.000216   -0.000176
   32.535282    0.743880    0.743839    0.743568   -0.000097   -0.000216   -0.000176
   32.552524    0.744184    0.744144    0.743873   -0.000097   -0.000216   -0.000176
   32.569765    0.744488    0.744447    0.744177   -0.000097   -0.000216   -0.000176
   32.587007    0.744791    0.744750    0.744480   -0.000097   -0.000216   -0.000176
   32.604249    0.745093    0.745053    0.744782   -0.000097   -0.000216   -0.000176
   32.621491    0.745395    0.745355    0.745084   -0.000097   -0.000215   -0.000175
   32.638733    0.745696    0.745656    0.745386   -0.000097   -0.000215   -0.000175
   32.655974    0.745997    0.745957    0.745687   -0.000097   -0.000215   -0.000175
   32.673216    0.746297    0.746257    0.745987   -0.000097   -0.000215   -0.000175
   32.690458    0.746597    0.746557    0.746286   -0.000097   -0.000215   -0.000175
   32.707700    0.746896    0.746855    0.746585   -0.000097   -0.000215   -0.000175
   32.724942    0.747194    0.747154    0.746884   -0.000097   -0.000215   -0.000175
   32.742183    0.747492    0.747452    0.747182   -0.000097   -0.000215   -0.000175
   32.759425    0.747789    0.747749    0.747479   -0.000097   -0.000215   -0.000175
   32.776667    0.748085    0.748045    0.747776   -0.000097   -0.000215   -0.000175
   32.793909    0.748381    0.748341    0.748072   -0.000097   -0.000215   -0.000175
   32.811151    0.748677    0.748637    0.748368   -0.000097   -0.000215   -0.000175
   32.828393    0.748972    0.748932    0.748663   -0.000097   -0.000214   -0.000175
   32.845634    0.749266    0.749226    0.748957   -0.000096   -0.000214   -0.000175
   32.862876    0.749560    0.749520    0.749251   -0.000096   -0.000214   -0.000174
   32.880118    0.749853    0.749813    0.749544   -0.000096   -0.000214   -0.000174
   32.897360    0.750146    0.750106    0.749837   -0.000096   -0.000214   -0.000174
   32.914602    0.750438    0.750398    0.750129   -0.000096   -0.000214   -0.000174
   32.931843    0.750729    0.750689    0.750421   -0.000096   -0.000214   -0.000174
   32.949085    0.751020    0.750980    0.750712   -0.000096   -0.000214   -0.000174
   32.966327    0.751310    0.751270    0.751002   -0.000096   -0.000214   -0.000174
   32.983569    0.751600    0.751560    0.751292   -0.000096   -0.000214   -0.000174
   33.000811    0.751889    0.751850    0.751582   -0.000096   -0.000213   -0.000174
   33.018052    0.752178    0.752138    0.751870   -0.000096   -0.000213   -0.000174
   33.035294    0.752466    0.752426    0.752159   -0.000096   -0.000213   -0.000174
   33.052536    0.752754    0.752714    0.752446   -0.000096   -0.000213   -0.000174
   33.069778    0.753041    0.753001    0.752734   -0.000096   -0.000213   -0.000173
   33.087020    0.753327    0.753288    0.753020   -0.000096   -0.000213   -0.000173
   33.104261    0.753613    0.753573    0.753306   -0.000096   -0.000213   -0.000173
   33.121503    0.753899    0.753859    0.753592   -0.000096   -0.000213   -0.000173
   33.138745    0.754183    0.754144    0.753877   -0.000096   -0.000213   -0.000173
   33.155987    0.754468    0.754428    0.754161   -0.000096   -0.000212   -0.000173
   33.173229    0.754751    0.754712    0.754445   -0.000096   -0.000212   -0.000173
   33.190470    0.755035    0.754995    0.754729   -0.000096   -0.000212   -0.000173
   33.207712    0.755317    0.755278    0.755011   -0.000096   -0.000212   -0.000173
   33.224954    0.755599    0.755560    0.755294   -0.000095   -0.000212   -0.000173
   33.242196    0.755881    0.755842    0.755576   -0.000095   -0.000212   -0.000173
   33.259438    0.756162    0.756123    0.755857   -0.000095   -0.000212   -0.000172
   33.276679    0.756443    0.756403    0.756138   -0.000095   -0.000212   -0.000172
   33.293921    0.756723    0.756683    0.756418   -0.000095   -0.000212   -0.000172
   33.311163    0.757002    0.756963    0.756697   -0.000095   -0.000211   -0.000172
   33.328405    0.757281    0.757242    0.756977   -0.000095   -0.000211   -0.000172
   33.345647    0.757560    0.757520    0.757255   -0.000095   -0.000211   -0.000172
   33.362888    0.757838    0.757798    0.757533   -0.000095   -0.000211   -0.000172
   33.380130    0.758115    0.758076    0.757811   -0.000095   -0.000211   -0.000172
   33.397372    0.758392    0.758353    0.758088   -0.000095   -0.000211   -0.000172
   33.414614    0.758668    0.758629    0.758364   -0.000095   -0.000211   -0.000172
   33.431856    0.758944    0.758905    0.758641   -0.000095   -0.000211   -0.000171
   33.449097    0.759220    0.759180    0.758916   -0.000095   -0.000210   -0.000171
   33.466339    0.759494    0.759455    0.759191   -0.000095   -0.000210   -0.000171
   33.483581    0.759769    0.759729    0.759466   -0.000095   -0.000210   -0.000171
   33.500823    0.760042    0.760003    0.759740   -0.000095   -0.000210   -0.000171
   33.518065    0.760316    0.760277    0.760013   -0.000095   -0.000210   -0.000171
   33.535306    0.760589    0.760549    0.760286   -0.000094   -0.000210   -0.000171
   33.552548    0.760861    0.760822    0.760558   -0.000094   -0.000210   -0.000171
   33.569790    0.761133    0.761094    0.760830   -0.000094   -0.000210   -0.000171
   33.587032    0.761404    0.761365    0.761102   -0.000094   -0.000210   -0.000171
   33.604274    0.761675    0.761636    0.761373   -0.000094   -0.000209   -0.000170
   33.621515    0.761945    0.761906    0.761643   -0.000094   -0.000209   -0.000170
   33.638757    0.762215    0.762176    0.761913   -0.000094   -0.000209   -0.000170
   33.655999    0.762484    0.762445    0.762183   -0.000094   -0.000209   -0.000170
   33.673241    0.762753    0.762714    0.762452   -0.000094   -0.000209   -0.000170
   33.690483    0.763021    0.762982    0.762720   -0.000094   -0.000209   -0.000170
   33.707724    0.763289    0.763250    0.762988   -0.000094   -0.000209   -0.000170
   33.724966    0.763556    0.763517    0.763256   -0.000094   -0.000208   -0.000170
   33.742208    0.763823    0.763784    0.763523   -0.000094   -0.000208   -0.000170
   33.759450    0.764089    0.764051    0.763789   -0.000094   -0.000208   -0.000170
   33.776692    0.764355    0.764317    0.764055   -0.000094   -0.000208   -0.000169
   33.793933    0.764621    0.764582    0.764321   -0.000094   -0.000208   -0.000169
   33.811175    0.764886    0.764847    0.764586   -0.000094   -0.000208   -0.000169
   33.828417    0.765150    0.765111    0.764851   -0.000094   -0.000208   -0.000169
   33.845659    0.765414    0.765375    0.765115   -0.000093   -0.000208   -0.000169
   33.862901    0.765677    0.765639    0.765378   -0.000093   -0.000207   -0.000169
   33.880142    0.765940    0.765902    0.765641   -0.000093   -0.000207   -0.000169
   33.897384    0.766203    0.766164    0.765904   -0.000093   -0.000207   -0.000169
   33.914626    0.766465    0.766426    0.766166   -0.000093   -0.000207   -0.000169
   33.931868    0.766726    0.766688    0.766428   -0.000093   -0.000207   -0.000168
   33.949110    0.766987    0.766949    0.766689   -0.000093   -0.000207   -0.000168
   33.966351    0.767248    0.767209    0.766950   -0.000093   -0.000207   -0.000168
   33.983593    0.767508    0.767470    0.767210   -0.000093   -0.000207   -0.000168
   34.000835    0.767768    0.767729    0.767470   -0.000093   -0.000206   -0.000168
   34.018077    0.768027    0.767988    0.767730   -0.000093   -0.000206   -0.000168
   34.035319    0.768286    0.768247    0.767988   -0.000093   -0.000206   -0.000168
   34.052561    0.768544    0.768505    0.768247   -0.000093   -0.000206   -0.000168
   34.069802    0.768802    0.768763    0.768505   -0.000093   -0.000206   -0.000168
   34.087044    0.769059    0.769021    0.768762   -0.000093   -0.000206   -0.000168
   34.104286    0.769316    0.769278    0.769019   -0.000093   -0.000206   -0.000167
   34.121528    0.769572    0.769534    0.769276   -0.000093   -0.000205   -0.000167
   34.138770    0.769828    0.769790    0.769532   -0.000092   -0.000205   -0.000167
   34.156011    0.770084    0.770045    0.769788   -0.000092   -0.000205   -0.000167
   34.173253    0.770339    0.770300    0.770043   -0.000092   -0.000205   -0.000167
   34.190495    0.770593    0.770555    0.770298   -0.000092   -0.000205   -0.000167
   34.207737    0.770847    0.770809    0.770552   -0.000092   -0.000205   -0.000167
   34.224979    0.771101    0.771063    0.770806   -0.000092   -0.000205   -0.000167
   34.242220    0.771354    0.771316    0.771059   -0.000092   -0.000204   -0.000167
   34.259462    0.771607    0.771569    0.771312   -0.000092   -0.000204   -0.000166
   34.276704    0.771859    0.771821    0.771565   -0.000092   -0.000204   -0.000166
   34.293946    0.772111    0.772073    0.771817   -0.000092   -0.000204   -0.000166
   34.311188    0.772363    0.772325    0.772069   -0.000092   -0.000204   -0.000166
   34.328429    0.772614    0.772576    0.772320   -0.000092   -0.000204   -0.000166
   34.345671    0.772864    0.772826    0.772571   -0.000092   -0.000204   -0.000166
   34.362913    0.773114    0.773076    0.772821   -0.000092   -0.000204   -0.000166
   34.380155    0.773364    0.773326    0.773071   -0.000092   -0.000203   -0.000166
   34.397397    0.773613    0.773575    0.773320   -0.000092   -0.000203   -0.000165
   34.414638    0.773862    0.773824    0.773569   -0.000091   -0.000203   -0.000165
   34.431880    0.774110    0.774072    0.773818   -0.000091   -0.000203   -0.000165
   34.449122    0.774358    0.774320    0.774066   -0.000091   -0.000203   -0.000165
   34.466364    0.774606    0.774568    0.774313   -0.000091   -0.000203   -0.000165
 
 The outermost node in the dielectric function lies at epsilon=  19.2


--------------------------------------------------------------------------------------------------------


    OPTICS:  cpu time     11.6034: real time     11.6365
    4ORBIT:  cpu time      0.0000: real time      0.0000



 total charge

# of ion       s       p       d       tot
------------------------------------------
    1        0.876   0.727  10.022  11.625
    2        0.876   0.727  10.022  11.625
    3        0.375   0.349   9.267   9.991
    4        0.375   0.349   9.267   9.991
    5        1.446   2.373   0.050   3.870
    6        1.446   2.373   0.050   3.870
    7        1.446   2.373   0.050   3.870
    8        1.446   2.373   0.050   3.870
--------------------------------------------------
tot          8.285  11.644  38.779  58.709
 
 BZINTS: Fermi energy:    3.896087;   72.000000 electrons
         Band energy:-0.271302E+03;  BLOECHL correction:    0.000000

 total amount of memory used by VASP MPI-rank0    44292. kBytes
=======================================================================

   base      :      30000. kBytes
   nonl-proj :      10183. kBytes
   fftplans  :        836. kBytes
   grid      :       1326. kBytes
   one-center:         15. kBytes
   wavefun   :       1932. kBytes
 
  
  
 General timing and accounting informations for this job:
 ========================================================
  
                  Total CPU time used (sec):       35.820
                            User time (sec):       31.534
                          System time (sec):        4.285
                         Elapsed time (sec):       36.780
  
                   Maximum memory used (kb):      232956.
                   Average memory used (kb):          N/A
  
                          Minor page faults:        54772
                          Major page faults:            0
                 Voluntary context switches:         2083
