 vasp.6.4.2 20Jul23 (build Mar 15 2024 16:31:38) complex                        
  
 executed on             LinuxIFC date 2025.03.26  18:10:10
 running  120 mpi-ranks, on    3 nodes
 distrk:  each k-point on  120 cores,    1 groups
 distr:  one band on NCORE=  10 cores,   12 groups


--------------------------------------------------------------------------------------------------------


 INCAR:
   ALGO = Normal
   EDIFF = 1e-05
   ENAUG = 1360
   ENCUT = 680
   GGA = Pe
   HFSCREEN = 0.2
   ISMEAR = 0
   ISPIN = 2
   LAECHG = True
   LASPH = True
   LCHARG = True
   LDAU = False
   LELF = False
   LHFCALC = True
   LMAXMIX = 4
   LMIXTAU = True
   LORBIT = 11
   LREAL = False
   LVTOT = True
   LWAVE = True
   MAGMOM = 2*0.6
   NCORE = 10
   NELM = 200
   NSW = 0
   PREC = Accurate
   PRECFOCK = Fast
   SIGMA = 0.01

 POTCAR:    PAW_PBE Cd 06Sep2000                  
 POTCAR:    PAW_PBE Te 08Apr2002                  
 WARNING: For LVTOT=.TRUE., VASP.5.x writes the TOTAL local potential to the
     file LOCPOT. If you want only the Hartree contributions, use LVHAR=.TRUE.
     instead. 

 POTCAR:    PAW_PBE Cd 06Sep2000                  
   VRHFIN =Cd : s2 d10                                                                              
   LEXCH  = PE                                                                                      
   EATOM  =  1293.1815 eV,   95.0462 Ry                                                             
                                                                                                    
   TITEL  = PAW_PBE Cd 06Sep2000                                                                    
   LULTRA =        F    use ultrasoft PP ?                                                          
   IUNSCR =        1    unscreen: 0-lin 1-nonlin 2-no                                               
   RPACOR =    2.000    partial core radius                                                         
   POMASS =  112.411; ZVAL   =   12.000    mass and valenz                                          
   RCORE  =    2.300    outmost cutoff radius                                                       
   RWIGS  =    2.980; RWIGS  =    1.577    wigner-seitz radius (au A)                               
   ENMAX  =  274.336; ENMIN  =  205.752 eV                                                          
   RCLOC  =    2.054    cutoff for local pot                                                        
   LCOR   =        T    correct aug charges                                                         
   LPAW   =        T    paw PP                                                                      
   EAUG   =  456.106                                                                                
   DEXC   =    0.000                                                                                
   RMAX   =    2.358    core radius for proj-oper                                                   
   RAUG   =    1.300    factor for augmentation sphere                                              
   RDEP   =    2.450    radius for radial grids                                                     
   RDEPT  =    1.955    core radius for aug-charge                                                  
                                                                                                    
   Atomic configuration                                                                             
   12 entries                                                                                       
     n  l   j            E        occ.                                                              
     1  0  0.50    -26519.7817   2.0000                                                             
     2  0  0.50     -3936.9612   2.0000                                                             
     2  1  1.50     -3532.2230   6.0000                                                             
     3  0  0.50      -733.7908   2.0000                                                             
     3  1  1.50      -601.0792   6.0000                                                             
     3  2  2.50      -393.5307  10.0000                                                             
     4  0  0.50      -105.8977   2.0000                                                             
     4  1  1.50       -66.9488   6.0000                                                             
     4  2  2.50       -11.7331  10.0000                                                             
     5  0  0.50        -5.6592   2.0000                                                             
     5  1  0.50        -1.3606   0.0000                                                             
     4  3  2.50        -1.3606   0.0000                                                             
   Description                                                                                      
     l       E           TYP  RCUT    TYP  RCUT                                                     
     2    -11.7331479     23  2.300                                                                 
     2    -13.0937305     23  2.300                                                                 
     0     -5.6591502     23  2.300                                                                 
     0     -1.5561433     23  2.300                                                                 
     1     -2.7211652     23  2.300                                                                 
     1      8.3548275     23  2.300                                                                 
  local pseudopotential read in
  partial core-charges read in
  partial kinetic energy density read in
  atomic valenz-charges read in
  non local Contribution for L=           2  read in
    real space projection operators read in
  non local Contribution for L=           2  read in
    real space projection operators read in
  non local Contribution for L=           0  read in
    real space projection operators read in
  non local Contribution for L=           0  read in
    real space projection operators read in
  non local Contribution for L=           1  read in
    real space projection operators read in
  non local Contribution for L=           1  read in
    real space projection operators read in
    PAW grid and wavefunctions read in
 
   number of l-projection  operators is LMAX  =           6
   number of lm-projection operators is LMMAX =          18
 
 POTCAR:    PAW_PBE Te 08Apr2002                  
   VRHFIN =Te: s2p4                                                                                 
   LEXCH  = PE                                                                                      
   EATOM  =   223.2721 eV,   16.4100 Ry                                                             
                                                                                                    
   TITEL  = PAW_PBE Te 08Apr2002                                                                    
   LULTRA =        F    use ultrasoft PP ?                                                          
   IUNSCR =        1    unscreen: 0-lin 1-nonlin 2-no                                               
   RPACOR =    2.200    partial core radius                                                         
   POMASS =  127.600; ZVAL   =    6.000    mass and valenz                                          
   RCORE  =    2.300    outmost cutoff radius                                                       
   RWIGS  =    2.900; RWIGS  =    1.535    wigner-seitz radius (au A)                               
   ENMAX  =  174.982; ENMIN  =  131.236 eV                                                          
   ICORE  =        3    local potential                                                             
   LCOR   =        T    correct aug charges                                                         
   LPAW   =        T    paw PP                                                                      
   EAUG   =  368.792                                                                                
   DEXC   =    0.000                                                                                
   RMAX   =    2.345    core radius for proj-oper                                                   
   RAUG   =    1.300    factor for augmentation sphere                                              
   RDEP   =    2.397    radius for radial grids                                                     
   RDEPT  =    2.174    core radius for aug-charge                                                  
                                                                                                    
   Atomic configuration                                                                             
   13 entries                                                                                       
     n  l   j            E        occ.                                                              
     1  0  0.50    -31621.2075   2.0000                                                             
     2  0  0.50     -4848.7941   2.0000                                                             
     2  1  1.50     -4352.1960   6.0000                                                             
     3  0  0.50      -964.9612   2.0000                                                             
     3  1  1.50      -803.6179   6.0000                                                             
     3  2  2.50      -559.8710  10.0000                                                             
     4  0  0.50      -164.3522   2.0000                                                             
     4  1  1.50      -114.3756   6.0000                                                             
     4  2  2.50       -41.6483  10.0000                                                             
     5  0  0.50       -15.1072   2.0000                                                             
     5  1  0.50        -5.9526   4.0000                                                             
     5  2  1.50        -5.4423   0.0000                                                             
     4  3  2.50        -5.4423   0.0000                                                             
   Description                                                                                      
     l       E           TYP  RCUT    TYP  RCUT                                                     
     0    -15.1072389     23  2.300                                                                 
     0    -16.4678215     23  2.300                                                                 
     1     -5.9526306     23  2.300                                                                 
     1     -2.4873968     23  2.300                                                                 
     2     -5.4423304     23  2.300                                                                 
     3     -1.3605826     23  2.300                                                                 
  local pseudopotential read in
  partial core-charges read in
  partial kinetic energy density read in
  atomic valenz-charges read in
  non local Contribution for L=           0  read in
    real space projection operators read in
  non local Contribution for L=           0  read in
    real space projection operators read in
  non local Contribution for L=           1  read in
    real space projection operators read in
  non local Contribution for L=           1  read in
    real space projection operators read in
  non local Contribution for L=           2  read in
    real space projection operators read in
    PAW grid and wavefunctions read in
 
   number of l-projection  operators is LMAX  =           5
   number of lm-projection operators is LMMAX =          13
 
  PAW_PBE Cd 06Sep2000                  :
 energy of atom  1       EATOM=-1293.1815
 kinetic energy error for atom=    0.0016 (will be added to EATOM!!)
  PAW_PBE Te 08Apr2002                  :
 energy of atom  2       EATOM= -223.2721
 kinetic energy error for atom=    0.0003 (will be added to EATOM!!)
 
 
 POSCAR: Cd1 Te1
  positions in direct lattice
  No initial velocities read in
 exchange correlation table for  LEXCH =        8
   RHO(1)=    0.500       N(1)  =     2000
   RHO(2)=  100.500       N(2)  =     4000
 


--------------------------------------------------------------------------------------------------------


 ion  position               nearest neighbor table
   1  0.000  0.000  0.000-   2 2.84   2 2.84   2 2.84   2 2.84
   2  0.250  0.250  0.250-   1 2.84   1 2.84   1 2.84   1 2.84
 
  LATTYP: Found a face centered cubic cell.
 ALAT       =     6.5642266394
  
  Lattice vectors:
  
 A1 = (   4.0197509263,   0.0000000000,   2.3208040418)
 A2 = (   1.3399166303,   3.7898585364,   2.3208040385)
 A3 = (   0.0000000000,   0.0000000000,   4.6416101500)


Analysis of symmetry for initial positions (statically):
=====================================================================
 Subroutine PRICEL returns:
 Original cell was already a primitive cell.
 

 Routine SETGRP: Setting up the symmetry group for a 
 face centered cubic supercell.


 Subroutine GETGRP returns: Found 24 space group operations
 (whereof 24 operations were pure point group operations)
 out of a pool of 48 trial point group operations.


The static configuration has the point symmetry T_d .


Analysis of symmetry for dynamics (positions and initial velocities):
=====================================================================
 Subroutine PRICEL returns:
 Original cell was already a primitive cell.
 

 Routine SETGRP: Setting up the symmetry group for a 
 face centered cubic supercell.


 Subroutine GETGRP returns: Found 24 space group operations
 (whereof 24 operations were pure point group operations)
 out of a pool of 48 trial point group operations.


The dynamic configuration has the point symmetry T_d .


Analysis of structural, dynamic, and magnetic symmetry:
=====================================================================
 Subroutine PRICEL returns:
 Original cell was already a primitive cell.
 

 Routine SETGRP: Setting up the symmetry group for a 
 face centered cubic supercell.


 Subroutine GETGRP returns: Found 24 space group operations
 (whereof 24 operations were pure point group operations)
 out of a pool of 48 trial point group operations.


The overall configuration has the point symmetry T_d .


 Subroutine INISYM returns: Found 24 space group operations
 (whereof 24 operations are pure point group operations),
 and found     1 'primitive' translations


----------------------------------------------------------------------------------------

                                     Primitive cell                                     

  volume of cell :      70.7116

  direct lattice vectors                    reciprocal lattice vectors
     4.019750926  0.000000000  2.320804042     0.248771632 -0.087954008  0.000000000
     1.339916630  3.789858536  2.320804038     0.000000000  0.263862092  0.000000000
     0.000000000  0.000000000  4.641610150    -0.124385761 -0.087954002  0.215442480

  length of vectors
     4.641608440  4.641609170  4.641610150     0.263862147  0.263862092  0.263862059

  position of ions in fractional coordinates (direct lattice)
     0.000000000  0.000000000  0.000000000
     0.250000000  0.250000000  0.250000000

  ion indices of the primitive-cell ions
   primitive index   ion index
                 1           1
                 2           2

----------------------------------------------------------------------------------------

 
 
 KPOINTS: k-points for static calculation specifie

Read explicit list of k-points.

 Found      1 k-points:

 Following reciprocal coordinates:
            Coordinates               Weight
  0.000000  0.000000  0.000000      1.000000

 Following cartesian coordinates:
            Coordinates               Weight
  0.000000  0.000000  0.000000      1.000000
 
 
 Subroutine IBZKPT_HF returns following result:
 ==============================================
 
 Found      1 k-points in 1st BZ
 the following      1 k-points will be used (e.g. in the exchange kernel)
 Following reciprocal coordinates:   # in IRBZ
  0.000000  0.000000  0.000000    1.00000000   1 t-inv F


--------------------------------------------------------------------------------------------------------




 Dimension of arrays:
   k-points           NKPTS =      1   k-points in BZ     NKDIM =      1   number of bands    NBANDS=     24
   number of dos      NEDOS =    301   number of ions     NIONS =      2
   non local maximal  LDIM  =      6   non local SUM 2l+1 LMDIM =     18
   total plane-waves  NPLWV =  64000
   max r-space proj   IRMAX =      1   max aug-charges    IRDMAX=  52836
   dimension x,y,z NGX =    40 NGY =   40 NGZ =   40
   dimension x,y,z NGXF=    80 NGYF=   80 NGZF=   80
   support grid    NGXF=    80 NGYF=   80 NGZF=   80
   ions per type =               1   1
   NGX,Y,Z   is equivalent  to a cutoff of  14.33, 14.33, 14.33 a.u.
   NGXF,Y,Z  is equivalent  to a cutoff of  28.65, 28.65, 28.65 a.u.

 SYSTEM =  unknown system                          
 POSCAR =  Cd1 Te1                                 

 Startparameter for this run:
   NWRITE =      2    write-flag & timer
   PREC   = accura    normal or accurate (medium, high low for compatibility)
   ISTART =      0    job   : 0-new  1-cont  2-samecut
   ICHARG =      2    charge: 1-file 2-atom 10-const
   ISPIN  =      2    spin polarized calculation?
   LNONCOLLINEAR =      F non collinear calculations
   LSORBIT =      F    spin-orbit coupling
   INIWAV =      1    electr: 0-lowe 1-rand  2-diag
   LASPH  =      T    aspherical Exc in radial PAW
 Electronic Relaxation 1
   ENCUT  =  680.0 eV  49.98 Ry    7.07 a.u.   9.87  9.87  9.87*2*pi/ulx,y,z
   ENINI  =  680.0     initial cutoff
   ENAUG  = 1360.0 eV  augmentation charge cutoff
   NELM   =    200;   NELMIN=  2; NELMDL= -5     # of ELM steps 
   EDIFF  = 0.1E-04   stopping-criterion for ELM
   LREAL  =      F    real-space projection
   NLSPLINE    = F    spline interpolate recip. space projectors
   LCOMPAT=      F    compatible to vasp.4.4
   GGA_COMPAT  = T    GGA compatible to vasp.4.4-vasp.4.6
   LMAXPAW     = -100 max onsite density
   LMAXMIX     =    4 max onsite mixed and CHGCAR
   VOSKOWN=      0    Vosko Wilk Nusair interpolation
   ROPT   =    0.00000   0.00000
 Ionic relaxation
   EDIFFG = 0.1E-03   stopping-criterion for IOM
   NSW    =      0    number of steps for IOM
   NBLOCK =      1;   KBLOCK =      1    inner block; outer block 
   IBRION =     -1    ionic relax: 0-MD 1-quasi-New 2-CG
   NFREE  =      0    steps in history (QN), initial steepest desc. (CG)
   ISIF   =      0    stress and relaxation
   IWAVPR =     10    prediction:  0-non 1-charg 2-wave 3-comb
   ISYM   =      3    0-nonsym 1-usesym 2-fastsym
   LCORR  =      T    Harris-Foulkes like correction to forces

   POTIM  = 0.5000    time-step for ionic-motion
   TEIN   =    0.0    initial temperature
   TEBEG  =    0.0;   TEEND  =   0.0 temperature during run
   SMASS  =  -3.00    Nose mass-parameter (am)
   estimated Nose-frequenzy (Omega)   =  0.10E-29 period in steps = 0.13E+47 mass=  -0.492E-27a.u.
   SCALEE = 1.0000    scale energy and forces
   NPACO  =    256;   APACO  = 10.0  distance and # of slots for P.C.
   PSTRESS=    0.0 pullay stress

  Mass of Ions in am
   POMASS = 112.41127.60
  Ionic Valenz
   ZVAL   =  12.00  6.00
  Atomic Wigner-Seitz radii
   RWIGS  =  -1.00 -1.00
  virtual crystal weights 
   VCA    =   1.00  1.00
   NELECT =      18.0000    total number of electrons
   NUPDOWN=      -1.0000    fix difference up-down

 DOS related values:
   EMIN   =  10.00;   EMAX   =-10.00  energy-range for DOS
   EFERMI =   0.00;   METHOD = LEGACY      
   ISMEAR =     0;   SIGMA  =   0.01  broadening in eV -4-tet -1-fermi 0-gaus

 Electronic relaxation 2 (details)
   IALGO  =     38    algorithm
   LDIAG  =      T    sub-space diagonalisation (order eigenvalues)
   LSUBROT=      F    optimize rotation matrix (better conditioning)
   TURBO    =      0    0=normal 1=particle mesh
   IRESTART =      0    0=no restart 2=restart with 2 vectors
   NREBOOT  =      0    no. of reboots
   NMIN     =      0    reboot dimension
   EREF     =   0.00    reference energy to select bands
   IMIX   =      1    mixing-type and parameters
     AMIX     =   0.40;   BMIX     =  1.00
     AMIX_MAG =   1.60;   BMIX_MAG =  1.00
     AMIN     =   0.10
     WC   =   100.;   INIMIX=   1;  MIXPRE=   1;  MAXMIX= -45

 Intra band minimization:
   WEIMIN = 0.0000     energy-eigenvalue tresh-hold
   EBREAK =  0.10E-06  absolut break condition
   DEPER  =   0.30     relativ break condition  

   TIME   =   0.40     timestep for ELM

  volume/ion in A,a.u.               =      35.36       238.59
  Fermi-wavevector in a.u.,A,eV,Ry     =   1.037533  1.960654 14.646338  1.076475
  Thomas-Fermi vector in A             =   2.171976
 
 Write flags
   LWAVE        =      T    write WAVECAR
   LDOWNSAMPLE  =      F    k-point downsampling of WAVECAR
   LCHARG       =      T    write CHGCAR
   LVTOT        =      T    write LOCPOT, total local potential
   LVHAR        =      F    write LOCPOT, Hartree potential only
   LELF         =      F    write electronic localiz. function (ELF)
   LORBIT       =     11    0 simple, 1 ext, 2 COOP (PROOUT), +10 PAW based schemes


 Dipole corrections
   LMONO  =      F    monopole corrections only (constant potential shift)
   LDIPOL =      F    correct potential (dipole corrections)
   IDIPOL =      0    1-x, 2-y, 3-z, 4-all directions 
   EPSILON=  1.0000000 bulk dielectric constant

 Exchange correlation treatment:
   GGA     =    PE    GGA type
   LEXCH   =     8    internal setting for exchange type
   LIBXC   =     F    Libxc                    
   VOSKOWN =     0    Vosko Wilk Nusair interpolation
   EXXOEP  =     0    0=HF, 1=EXX-LHF (local Hartree Fock) 2=EXX OEP
   LHFCALC =     T    Hartree Fock is set to
   LSYMGRAD=     F    symmetrize gradient (conserves proper symmetry)
   PRECFOCK=fast      Normal, Fast or Accurate (Low or Medium for compatibility)
   LRHFCALC=     F    long range Hartree Fock
   LRSCOR  =     F    long range correlation only (use DFT for short range part)
   LTHOMAS =     F    Thomas Fermi screening in HF
   LMODELHF=     F    short range full HF, long range fraction AEXX
   FOCKCORR=     1    mode to apply convergence corrections
   LFOCKACE=     T    use Adeptively-Compressed-Exchange operator
   ENCUT4O =  -1.0   cutoff for four orbital integrals eV
   LMAXFOCK=     4    L truncation for augmentation on plane wave grid
   LMAXFOCKAE=  -1    L truncation for all-electron charge restoration on plane wave grid
   NMAXFOCKAE=   1    number of basis functions for all-electron charge restoration
   LFOCKAEDFT=     F  apply the AE augmentation even for DFT
   NKREDX  =     1    reduce k-point grid by
   NKREDY  =     1    reduce k-point grid by
   NKREDZ  =     1    reduce k-point grid by
   SHIFTRED=     F    shift reduced grid of Gamma
   HFKIDENT=     F    idential grid for each k-point
   ODDONLY =     F    use only odd q-grid points
   EVENONLY=     F    use only even q-grid points
   HFALPHA =   -1.0000 decay constant for conv. correction
   MCALPHA =    0.0000 extent of test-charge in conv. correction in multipole expansion
   AEXX    =    0.2500 exact exchange contribution
   HFSCREEN=    0.2000 screening length (either q_TF or 0.3 A-1)
   HFSCREENC=   0.2000 screening length for correlation (either q_TF or 0.3 A-1)
   HFRCUT  =    0.0000 spherical cutoff for potential kernel
   ALDAX   =    0.7500 LDA exchange part
   AGGAX   =    0.7500 GGA exchange part
   ALDAC   =    1.0000 LDA correlation
   AGGAC   =    1.0000 GGA correlation
   ENCUTFOCK=  -1.0 apply spherical cutoff to Coloumb kernel
   NBANDSGWLOW=     1    first orbital included in HF term
   NBLOCK_FOCK=    64    blocking factor in FOCK_ACC

 Linear response parameters
   LEPSILON=     F    determine dielectric tensor
   LRPA    =     F    only Hartree local field effects (RPA)
   LNABLA  =     F    use nabla operator in PAW spheres
   LVEL    =     F    velocity operator in full k-point grid
   CSHIFT  =0.1000    complex shift for real part using Kramers Kronig
   OMEGAMAX=  -1.0    maximum frequency
   DEG_THRESHOLD= 0.2000000E-02 threshold for treating states as degnerate
   RTIME   =   -0.100 relaxation time in fs
  (WPLASMAI=    0.000 imaginary part of plasma frequency in eV, 0.658/RTIME)
   DFIELD  = 0.0000000 0.0000000 0.0000000 field for delta impulse in time
 
  Optional k-point grid parameters
   LKPOINTS_OPT  =     F    use optional k-point grid
   KPOINTS_OPT_MODE=     1    mode for optional k-point grid
 
 Orbital magnetization related:
   ORBITALMAG=     F  switch on orbital magnetization
   LCHIMAG   =     F  perturbation theory with respect to B field
   DQ        =  0.001000  dq finite difference perturbation B field
   LLRAUG    =     F  two centre corrections for induced B field
   LBONE     =     F  B-component reconstruction in AE one-centre
   LVGVCALC  =     T  calculate vGv susceptibility
   LVGVAPPL  =     F  apply vGv susceptibility instead of pGv for G=0

 Random number generation:
   RANDOM_GENERATOR = DEFAULT
   PCG_SEED         = not used


--------------------------------------------------------------------------------------------------------


 Static calculation
 charge density and potential will be updated during run
 spin polarized calculation
 Variant of blocked Davidson
 Davidson routine will perform the subspace rotation
 perform sub-space diagonalisation
    after iterative eigenvector-optimisation
 Kerker-like  mixing scheme
 using additional bands           15
 reciprocal scheme for non local part
 use partial core corrections
 calculate Harris-corrections to forces 
   (improved forces if not selfconsistent)
 use gradient corrections 
 use of overlap-Matrix (Vanderbilt PP)
 Gauss-broadening in eV      SIGMA  =   0.01


--------------------------------------------------------------------------------------------------------


  energy-cutoff  :      680.00
  volume of cell :       70.71
      direct lattice vectors                 reciprocal lattice vectors
     4.019750926  0.000000000  2.320804042     0.248771632 -0.087954008  0.000000000
     1.339916630  3.789858536  2.320804038     0.000000000  0.263862092  0.000000000
     0.000000000  0.000000000  4.641610150    -0.124385761 -0.087954002  0.215442480

  length of vectors
     4.641608440  4.641609170  4.641610150     0.263862147  0.263862092  0.263862059


 
 k-points in units of 2pi/SCALE and weight: k-points for static calculation specifie
   0.00000000  0.00000000  0.00000000       1.000
 
 k-points in reciprocal lattice and weights: k-points for static calculation specifie
   0.00000000  0.00000000  0.00000000       1.000
 
 position of ions in fractional coordinates (direct lattice) 
   0.00000000  0.00000000  0.00000000
   0.25000000  0.25000000  0.25000000
 
 position of ions in cartesian coordinates  (Angst):
   0.00000000  0.00000000  0.00000000
   1.33991689  0.94746463  2.32080456
 


--------------------------------------------------------------------------------------------------------


 k-point   1 :   0.0000 0.0000 0.0000  plane waves:    2741

 maximum and minimum number of plane-waves per node :       278      272

 maximum number of plane-waves:      2741
 maximum index in each direction: 
   IXMAX=    9   IYMAX=    9   IZMAX=    9
   IXMIN=   -9   IYMIN=   -9   IZMIN=   -9


 parallel 3D FFT for wavefunctions:
    minimum data exchange during FFTs selected (reduces bandwidth)
 parallel 3D FFT for charge:
    minimum data exchange during FFTs selected (reduces bandwidth)


 FFT grid for exact exchange (Hartree Fock) 
  NGX = 20; NGY = 20; NGZ = 20

 
 Radii for the augmentation spheres in the non-local exchange
 for species   1 augmentation radius   1.444 (default was   1.070)
       energy cutoff for augmentation   2720.0
 for species   2 augmentation radius   1.606 (default was   1.190)
       energy cutoff for augmentation   2720.0

 real space projection operators:
  total allocation   :        662.89 KBytes
  max/ min on nodes  :         71.68         62.30

 Maximum index for augmentation-charges in exchange          228
  SETUP_FOCK is finished

 total amount of memory used by VASP MPI-rank0    31871. kBytes
=======================================================================

   base      :      30000. kBytes
   nonl-proj :         88. kBytes
   fftplans  :        473. kBytes
   grid      :       1039. kBytes
   one-center:         31. kBytes
   HF        :         64. kBytes
   nonlr-proj:        157. kBytes
   wavefun   :         19. kBytes
 
     INWAV:  cpu time      0.0000: real time      0.0001
 initial charge density was supplied:
 charge density of overlapping atoms calculated
 number of electron      18.0000000 magnetization       1.2000000
 keeping initial charge density in first step


--------------------------------------------------------------------------------------------------------


 Maximum index for augmentation-charges         1237 (set IRDMAX)


--------------------------------------------------------------------------------------------------------


 First call to EWALD:  gamma=   0.429
 Maximum number of real-space cells 3x 3x 3
 Maximum number of reciprocal cells 3x 3x 3

    FEWALD:  cpu time      0.0018: real time      0.0021


--------------------------------------- Ionic step        1  -------------------------------------------




--------------------------------------- Iteration      1(   1)  ---------------------------------------


    POTLOK:  cpu time      0.0353: real time      0.0474
    SETDIJ:  cpu time      0.4014: real time      0.4025
     EDDAV:  cpu time      0.1306: real time      0.1351
       DOS:  cpu time      0.0044: real time      0.0050
    --------------------------------------------
      LOOP:  cpu time      0.5717: real time      0.5900

 eigenvalue-minimisations  :    96
 total energy-change (2. order) :-0.2007162E+04  (-0.9711759E+03)
 number of electron      18.0000000 magnetization       1.2000000
 augmentation part       18.0000000 magnetization       1.2000000

 Free energy of the ion-electron system (eV)
  ---------------------------------------------------
  alpha Z        PSCENC =        48.32593859
  Ewald energy   TEWEN  =     -1031.85467228
  -Hartree energ DENC   =      -517.30053658
  -exchange      EXHF   =         0.00000000
  -V(xc)+E(xc)   XCENC  =       -22.70731779
  PAW double counting   =      1404.37530049    -3421.85055311
  entropy T*S    EENTRO =        -0.00000000
  eigenvalues    EBANDS =        19.56307882
  atomic energy  EATOM  =      1514.28648168
  Solvation  Ediel_sol  =         0.00000000
  ---------------------------------------------------
  free energy    TOTEN  =     -2007.16228018 eV

  energy without entropy =    -2007.16228018  energy(sigma->0) =    -2007.16228018
  exchange ACFDT corr.  =         0.00000000  see jH, gK, PRB 81, 115126


--------------------------------------------------------------------------------------------------------




--------------------------------------- Iteration      1(   2)  ---------------------------------------


     EDDAV:  cpu time      0.0346: real time      0.0352
       DOS:  cpu time      0.0001: real time      0.0001
    --------------------------------------------
      LOOP:  cpu time      0.0346: real time      0.0353

 eigenvalue-minimisations  :   120
 total energy-change (2. order) :-0.1206748E+03  (-0.1142591E+03)
 number of electron      18.0000000 magnetization       1.2000000
 augmentation part       18.0000000 magnetization       1.2000000

 Free energy of the ion-electron system (eV)
  ---------------------------------------------------
  alpha Z        PSCENC =        48.32593859
  Ewald energy   TEWEN  =     -1031.85467228
  -Hartree energ DENC   =      -517.30053658
  -exchange      EXHF   =         0.00000000
  -V(xc)+E(xc)   XCENC  =       -22.70731779
  PAW double counting   =      1404.37530049    -3421.85055311
  entropy T*S    EENTRO =        -0.00000000
  eigenvalues    EBANDS =      -101.11171631
  atomic energy  EATOM  =      1514.28648168
  Solvation  Ediel_sol  =         0.00000000
  ---------------------------------------------------
  free energy    TOTEN  =     -2127.83707531 eV

  energy without entropy =    -2127.83707531  energy(sigma->0) =    -2127.83707531
  exchange ACFDT corr.  =         0.00000000  see jH, gK, PRB 81, 115126


--------------------------------------------------------------------------------------------------------




--------------------------------------- Iteration      1(   3)  ---------------------------------------


     EDDAV:  cpu time      0.0202: real time      0.0352
       DOS:  cpu time      0.0001: real time      0.0001
    --------------------------------------------
      LOOP:  cpu time      0.0203: real time      0.0353

 eigenvalue-minimisations  :   132
 total energy-change (2. order) :-0.3860907E+01  (-0.3854719E+01)
 number of electron      18.0000000 magnetization       1.2000000
 augmentation part       18.0000000 magnetization       1.2000000

 Free energy of the ion-electron system (eV)
  ---------------------------------------------------
  alpha Z        PSCENC =        48.32593859
  Ewald energy   TEWEN  =     -1031.85467228
  -Hartree energ DENC   =      -517.30053658
  -exchange      EXHF   =         0.00000000
  -V(xc)+E(xc)   XCENC  =       -22.70731779
  PAW double counting   =      1404.37530049    -3421.85055311
  entropy T*S    EENTRO =        -0.00000000
  eigenvalues    EBANDS =      -104.97262285
  atomic energy  EATOM  =      1514.28648168
  Solvation  Ediel_sol  =         0.00000000
  ---------------------------------------------------
  free energy    TOTEN  =     -2131.69798184 eV

  energy without entropy =    -2131.69798184  energy(sigma->0) =    -2131.69798184
  exchange ACFDT corr.  =         0.00000000  see jH, gK, PRB 81, 115126


--------------------------------------------------------------------------------------------------------




--------------------------------------- Iteration      1(   4)  ---------------------------------------


     EDDAV:  cpu time      0.0170: real time      0.0332
       DOS:  cpu time      0.0001: real time      0.0001
    --------------------------------------------
      LOOP:  cpu time      0.0171: real time      0.0333

 eigenvalue-minimisations  :   120
 total energy-change (2. order) :-0.3601613E-01  (-0.3601664E-01)
 number of electron      18.0000000 magnetization       1.2000000
 augmentation part       18.0000000 magnetization       1.2000000

 Free energy of the ion-electron system (eV)
  ---------------------------------------------------
  alpha Z        PSCENC =        48.32593859
  Ewald energy   TEWEN  =     -1031.85467228
  -Hartree energ DENC   =      -517.30053658
  -exchange      EXHF   =         0.00000000
  -V(xc)+E(xc)   XCENC  =       -22.70731779
  PAW double counting   =      1404.37530049    -3421.85055311
  entropy T*S    EENTRO =        -0.00000000
  eigenvalues    EBANDS =      -105.00863898
  atomic energy  EATOM  =      1514.28648168
  Solvation  Ediel_sol  =         0.00000000
  ---------------------------------------------------
  free energy    TOTEN  =     -2131.73399798 eV

  energy without entropy =    -2131.73399798  energy(sigma->0) =    -2131.73399798
  exchange ACFDT corr.  =         0.00000000  see jH, gK, PRB 81, 115126


--------------------------------------------------------------------------------------------------------




--------------------------------------- Iteration      1(   5)  ---------------------------------------


    POTLOK:  cpu time      0.0225: real time      0.0365
    SETDIJ:  cpu time      0.9154: real time      0.9175
     EDDAV:  cpu time      0.0817: real time      0.0838
       DOS:  cpu time      0.0001: real time      0.0002
    CHARGE:  cpu time      0.0094: real time      0.0116
    MIXING:  cpu time      0.0011: real time      0.0011
    --------------------------------------------
      LOOP:  cpu time      1.0302: real time      1.0508

 eigenvalue-minimisations  :   108
 total energy-change (2. order) : 0.2133274E+04  (-0.9564177E+00)
 number of electron      18.0000000 magnetization      -0.7200000
 augmentation part        4.6366101 magnetization      -0.7117864

 Free energy of the ion-electron system (eV)
  ---------------------------------------------------
  alpha Z        PSCENC =        48.32593859
  Ewald energy   TEWEN  =     -1031.85467228
  -Hartree energ DENC   =      -517.30053658
  -exchange      EXHF   =        38.98629247
  -V(xc)+E(xc)   XCENC  =       -19.75127032
  PAW double counting   =      1400.95505382    -1338.61098994
  entropy T*S    EENTRO =        -0.00000000
  eigenvalues    EBANDS =       -93.49635675
  atomic energy  EATOM  =      1514.28648168
  Solvation  Ediel_sol  =         0.00000000
  ---------------------------------------------------
  free energy    TOTEN  =         1.53994068 eV

  energy without entropy =        1.53994068  energy(sigma->0) =        1.53994068
  exchange ACFDT corr.  =         0.00000000  see jH, gK, PRB 81, 115126


--------------------------------------------------------------------------------------------------------




--------------------------------------- Iteration      1(   6)  ---------------------------------------


    POTLOK:  cpu time      0.0262: real time      0.0384
    SETDIJ:  cpu time      0.9021: real time      0.9042
     EDDAV:  cpu time      0.0275: real time      0.0276
       DOS:  cpu time      0.0001: real time      0.0001
    CHARGE:  cpu time      0.0040: real time      0.0040
    MIXING:  cpu time      0.0001: real time      0.0001
    --------------------------------------------
      LOOP:  cpu time      0.9601: real time      0.9745

 eigenvalue-minimisations  :   120
 total energy-change (2. order) : 0.1933070E+01  (-0.3271322E+00)
 number of electron      17.9999999 magnetization       0.4320000
 augmentation part        4.7778745 magnetization       0.4265383

 Free energy of the ion-electron system (eV)
  ---------------------------------------------------
  alpha Z        PSCENC =        48.32593859
  Ewald energy   TEWEN  =     -1031.85467228
  -Hartree energ DENC   =      -516.85367615
  -exchange      EXHF   =        38.00612130
  -V(xc)+E(xc)   XCENC  =       -19.49902718
  PAW double counting   =      1735.30276621    -1671.27446714
  entropy T*S    EENTRO =        -0.00000000
  eigenvalues    EBANDS =       -92.96645433
  atomic energy  EATOM  =      1514.28648168
  Solvation  Ediel_sol  =         0.00000000
  ---------------------------------------------------
  free energy    TOTEN  =         3.47301069 eV

  energy without entropy =        3.47301069  energy(sigma->0) =        3.47301069
  exchange ACFDT corr.  =         0.00000000  see jH, gK, PRB 81, 115126


--------------------------------------------------------------------------------------------------------




--------------------------------------- Iteration      1(   7)  ---------------------------------------


    POTLOK:  cpu time      0.0223: real time      0.0396
    SETDIJ:  cpu time      0.8909: real time      0.8930
     EDDAV:  cpu time      0.0280: real time      0.0280
       DOS:  cpu time      0.0001: real time      0.0001
    CHARGE:  cpu time      0.0037: real time      0.0037
    MIXING:  cpu time      0.0001: real time      0.0001
    --------------------------------------------
      LOOP:  cpu time      0.9451: real time      0.9645

 eigenvalue-minimisations  :   144
 total energy-change (2. order) : 0.2296150E+00  (-0.1393250E+00)
 number of electron      17.9999999 magnetization      -0.2592000
 augmentation part        4.8812831 magnetization      -0.2588969

 Free energy of the ion-electron system (eV)
  ---------------------------------------------------
  alpha Z        PSCENC =        48.32593859
  Ewald energy   TEWEN  =     -1031.85467228
  -Hartree energ DENC   =      -517.05157200
  -exchange      EXHF   =        37.62057150
  -V(xc)+E(xc)   XCENC  =       -19.31855391
  PAW double counting   =      2270.11750592    -2205.16775808
  entropy T*S    EENTRO =        -0.00000000
  eigenvalues    EBANDS =       -93.25531572
  atomic energy  EATOM  =      1514.28648168
  Solvation  Ediel_sol  =         0.00000000
  ---------------------------------------------------
  free energy    TOTEN  =         3.70262572 eV

  energy without entropy =        3.70262572  energy(sigma->0) =        3.70262572
  exchange ACFDT corr.  =         0.00000000  see jH, gK, PRB 81, 115126


--------------------------------------------------------------------------------------------------------




--------------------------------------- Iteration      1(   8)  ---------------------------------------


    POTLOK:  cpu time      0.0217: real time      0.0397
    SETDIJ:  cpu time      0.8946: real time      0.8967
     EDDAV:  cpu time      0.0285: real time      0.0286
       DOS:  cpu time      0.0002: real time      0.0002
    CHARGE:  cpu time      0.0037: real time      0.0037
    MIXING:  cpu time      0.0001: real time      0.0001
    --------------------------------------------
      LOOP:  cpu time      0.9488: real time      0.9690

 eigenvalue-minimisations  :   144
 total energy-change (2. order) :-0.2417030E-01  (-0.2412177E-01)
 number of electron      17.9999999 magnetization       0.1555200
 augmentation part        4.9147157 magnetization       0.1566924

 Free energy of the ion-electron system (eV)
  ---------------------------------------------------
  alpha Z        PSCENC =        48.32593859
  Ewald energy   TEWEN  =     -1031.85467228
  -Hartree energ DENC   =      -518.05008407
  -exchange      EXHF   =        37.43454900
  -V(xc)+E(xc)   XCENC  =       -19.16838162
  PAW double counting   =      2790.57371393    -2725.16434413
  entropy T*S    EENTRO =        -0.00000000
  eigenvalues    EBANDS =       -92.70474567
  atomic energy  EATOM  =      1514.28648168
  Solvation  Ediel_sol  =         0.00000000
  ---------------------------------------------------
  free energy    TOTEN  =         3.67845542 eV

  energy without entropy =        3.67845542  energy(sigma->0) =        3.67845542
  exchange ACFDT corr.  =         0.00000000  see jH, gK, PRB 81, 115126


--------------------------------------------------------------------------------------------------------




--------------------------------------- Iteration      1(   9)  ---------------------------------------


    POTLOK:  cpu time      0.0221: real time      0.0380
    SETDIJ:  cpu time      0.8940: real time      0.8961
     EDDAV:  cpu time      0.0282: real time      0.0282
       DOS:  cpu time      0.0002: real time      0.0002
    CHARGE:  cpu time      0.0037: real time      0.0037
    MIXING:  cpu time      0.0001: real time      0.0001
    --------------------------------------------
      LOOP:  cpu time      0.9483: real time      0.9663

 eigenvalue-minimisations  :   144
 total energy-change (2. order) :-0.1272025E-01  (-0.4811472E-02)
 number of electron      17.9999999 magnetization      -0.0933120
 augmentation part        4.9230765 magnetization      -0.0935201

 Free energy of the ion-electron system (eV)
  ---------------------------------------------------
  alpha Z        PSCENC =        48.32593859
  Ewald energy   TEWEN  =     -1031.85467228
  -Hartree energ DENC   =      -518.92147033
  -exchange      EXHF   =        37.35346219
  -V(xc)+E(xc)   XCENC  =       -19.05892617
  PAW double counting   =      3227.79643009    -3162.15343595
  entropy T*S    EENTRO =        -0.00000000
  eigenvalues    EBANDS =       -92.10807265
  atomic energy  EATOM  =      1514.28648168
  Solvation  Ediel_sol  =         0.00000000
  ---------------------------------------------------
  free energy    TOTEN  =         3.66573517 eV

  energy without entropy =        3.66573517  energy(sigma->0) =        3.66573517
  exchange ACFDT corr.  =         0.00000000  see jH, gK, PRB 81, 115126


--------------------------------------------------------------------------------------------------------




--------------------------------------- Iteration      1(  10)  ---------------------------------------


    POTLOK:  cpu time      0.0220: real time      0.0375
    SETDIJ:  cpu time      0.8944: real time      0.8965
     EDDAV:  cpu time      0.0252: real time      0.0253
       DOS:  cpu time      0.0001: real time      0.0001
    CHARGE:  cpu time      0.0036: real time      0.0037
    MIXING:  cpu time      0.0002: real time      0.0002
    --------------------------------------------
      LOOP:  cpu time      0.9456: real time      0.9633

 eigenvalue-minimisations  :   120
 total energy-change (2. order) :-0.3205198E-02  (-0.1002854E-02)
 number of electron      17.9999999 magnetization       0.0559872
 augmentation part        4.9233062 magnetization       0.0560475

 Free energy of the ion-electron system (eV)
  ---------------------------------------------------
  alpha Z        PSCENC =        48.32593859
  Ewald energy   TEWEN  =     -1031.85467228
  -Hartree energ DENC   =      -519.48611076
  -exchange      EXHF   =        37.31651140
  -V(xc)+E(xc)   XCENC  =       -18.98483543
  PAW double counting   =      3538.28023350    -3472.51256709
  entropy T*S    EENTRO =        -0.00000000
  eigenvalues    EBANDS =       -91.70844965
  atomic energy  EATOM  =      1514.28648168
  Solvation  Ediel_sol  =         0.00000000
  ---------------------------------------------------
  free energy    TOTEN  =         3.66252997 eV

  energy without entropy =        3.66252997  energy(sigma->0) =        3.66252997
  exchange ACFDT corr.  =         0.00000000  see jH, gK, PRB 81, 115126


--------------------------------------------------------------------------------------------------------




--------------------------------------- Iteration      1(  11)  ---------------------------------------


    POTLOK:  cpu time      0.0226: real time      0.0378
    SETDIJ:  cpu time      0.8947: real time      0.8968
     EDDAV:  cpu time      0.0253: real time      0.0254
       DOS:  cpu time      0.0001: real time      0.0001
    CHARGE:  cpu time      0.0036: real time      0.0036
    MIXING:  cpu time      0.0001: real time      0.0001
    --------------------------------------------
      LOOP:  cpu time      0.9465: real time      0.9639

 eigenvalue-minimisations  :   120
 total energy-change (2. order) :-0.7230779E-03  (-0.2397453E-03)
 number of electron      17.9999999 magnetization      -0.0335923
 augmentation part        4.9216290 magnetization      -0.0335441

 Free energy of the ion-electron system (eV)
  ---------------------------------------------------
  alpha Z        PSCENC =        48.32593859
  Ewald energy   TEWEN  =     -1031.85467228
  -Hartree energ DENC   =      -519.81631236
  -exchange      EXHF   =        37.30158889
  -V(xc)+E(xc)   XCENC  =       -18.93654004
  PAW double counting   =      3734.82569342    -3668.98608670
  entropy T*S    EENTRO =        -0.00000000
  eigenvalues    EBANDS =       -91.48428431
  atomic energy  EATOM  =      1514.28648168
  Solvation  Ediel_sol  =         0.00000000
  ---------------------------------------------------
  free energy    TOTEN  =         3.66180690 eV

  energy without entropy =        3.66180690  energy(sigma->0) =        3.66180690
  exchange ACFDT corr.  =         0.00000000  see jH, gK, PRB 81, 115126


--------------------------------------------------------------------------------------------------------




--------------------------------------- Iteration      1(  12)  ---------------------------------------


    POTLOK:  cpu time      0.0224: real time      0.0374
    SETDIJ:  cpu time      0.8915: real time      0.8936
     EDDAV:  cpu time      0.0264: real time      0.0265
       DOS:  cpu time      0.0001: real time      0.0002
    CHARGE:  cpu time      0.0037: real time      0.0038
    MIXING:  cpu time      0.0001: real time      0.0001
    --------------------------------------------
      LOOP:  cpu time      0.9442: real time      0.9616

 eigenvalue-minimisations  :   120
 total energy-change (2. order) :-0.3133692E-03  (-0.1159572E-03)
 number of electron      17.9999999 magnetization       0.0201554
 augmentation part        4.9202191 magnetization       0.0201377

 Free energy of the ion-electron system (eV)
  ---------------------------------------------------
  alpha Z        PSCENC =        48.32593859
  Ewald energy   TEWEN  =     -1031.85467228
  -Hartree energ DENC   =      -520.01080901
  -exchange      EXHF   =        37.29897543
  -V(xc)+E(xc)   XCENC  =       -18.90527584
  PAW double counting   =      3845.32949520    -3779.44463010
  entropy T*S    EENTRO =        -0.00000000
  eigenvalues    EBANDS =       -91.36401015
  atomic energy  EATOM  =      1514.28648168
  Solvation  Ediel_sol  =         0.00000000
  ---------------------------------------------------
  free energy    TOTEN  =         3.66149353 eV

  energy without entropy =        3.66149353  energy(sigma->0) =        3.66149353
  exchange ACFDT corr.  =         0.00000000  see jH, gK, PRB 81, 115126


--------------------------------------------------------------------------------------------------------




--------------------------------------- Iteration      1(  13)  ---------------------------------------


    POTLOK:  cpu time      0.0246: real time      0.0405
    SETDIJ:  cpu time      0.8950: real time      0.8971
     EDDAV:  cpu time      0.0243: real time      0.0243
       DOS:  cpu time      0.0002: real time      0.0002
    CHARGE:  cpu time      0.0042: real time      0.0042
    MIXING:  cpu time      0.0001: real time      0.0001
    --------------------------------------------
      LOOP:  cpu time      0.9483: real time      0.9665

 eigenvalue-minimisations  :    96
 total energy-change (2. order) :-0.1700129E-03  (-0.5163557E-04)
 number of electron      17.9999999 magnetization      -0.0120932
 augmentation part        4.9194857 magnetization      -0.0120897

 Free energy of the ion-electron system (eV)
  ---------------------------------------------------
  alpha Z        PSCENC =        48.32593859
  Ewald energy   TEWEN  =     -1031.85467228
  -Hartree energ DENC   =      -520.13211096
  -exchange      EXHF   =        37.29905650
  -V(xc)+E(xc)   XCENC  =       -18.88508636
  PAW double counting   =      3900.88026897    -3834.96652333
  entropy T*S    EENTRO =        -0.00000000
  eigenvalues    EBANDS =       -91.29202931
  atomic energy  EATOM  =      1514.28648168
  Solvation  Ediel_sol  =         0.00000000
  ---------------------------------------------------
  free energy    TOTEN  =         3.66132351 eV

  energy without entropy =        3.66132351  energy(sigma->0) =        3.66132351
  exchange ACFDT corr.  =         0.00000000  see jH, gK, PRB 81, 115126


--------------------------------------------------------------------------------------------------------




--------------------------------------- Iteration      1(  14)  ---------------------------------------


    POTLOK:  cpu time      0.0227: real time      0.0376
    SETDIJ:  cpu time      0.8964: real time      0.8985
     EDDAV:  cpu time      0.0232: real time      0.0233
       DOS:  cpu time      0.0002: real time      0.0002
    CHARGE:  cpu time      0.0039: real time      0.0039
    MIXING:  cpu time      0.0001: real time      0.0001
    --------------------------------------------
      LOOP:  cpu time      0.9465: real time      0.9635

 eigenvalue-minimisations  :    96
 total energy-change (2. order) :-0.8457025E-04  (-0.2194976E-04)
 number of electron      17.9999999 magnetization       0.0072559
 augmentation part        4.9191959 magnetization       0.0072566

 Free energy of the ion-electron system (eV)
  ---------------------------------------------------
  alpha Z        PSCENC =        48.32593859
  Ewald energy   TEWEN  =     -1031.85467228
  -Hartree energ DENC   =      -520.21138206
  -exchange      EXHF   =        37.29917038
  -V(xc)+E(xc)   XCENC  =       -18.87204002
  PAW double counting   =      3926.32105278    -3860.38897178
  entropy T*S    EENTRO =        -0.00000000
  eigenvalues    EBANDS =       -91.24433835
  atomic energy  EATOM  =      1514.28648168
  Solvation  Ediel_sol  =         0.00000000
  ---------------------------------------------------
  free energy    TOTEN  =         3.66123894 eV

  energy without entropy =        3.66123894  energy(sigma->0) =        3.66123894
  exchange ACFDT corr.  =         0.00000000  see jH, gK, PRB 81, 115126


--------------------------------------------------------------------------------------------------------




--------------------------------------- Iteration      1(  15)  ---------------------------------------


    POTLOK:  cpu time      0.0220: real time      0.0376
    SETDIJ:  cpu time      0.9134: real time      0.9155
     EDDAV:  cpu time      0.0284: real time      0.0285
       DOS:  cpu time      0.0001: real time      0.0001
    CHARGE:  cpu time      0.0041: real time      0.0041
    MIXING:  cpu time      0.0001: real time      0.0001
    --------------------------------------------
      LOOP:  cpu time      0.9682: real time      0.9860

 eigenvalue-minimisations  :   120
 total energy-change (2. order) :-0.4105986E-04  (-0.9785151E-05)
 number of electron      17.9999999 magnetization      -0.0043536
 augmentation part        4.9190927 magnetization      -0.0043574

 Free energy of the ion-electron system (eV)
  ---------------------------------------------------
  alpha Z        PSCENC =        48.32593859
  Ewald energy   TEWEN  =     -1031.85467228
  -Hartree energ DENC   =      -520.26434563
  -exchange      EXHF   =        37.29894804
  -V(xc)+E(xc)   XCENC  =       -18.86361606
  PAW double counting   =      3936.93824619    -3870.99468010
  entropy T*S    EENTRO =        -0.00000000
  eigenvalues    EBANDS =       -91.21110254
  atomic energy  EATOM  =      1514.28648168
  Solvation  Ediel_sol  =         0.00000000
  ---------------------------------------------------
  free energy    TOTEN  =         3.66119788 eV

  energy without entropy =        3.66119788  energy(sigma->0) =        3.66119788
  exchange ACFDT corr.  =         0.00000000  see jH, gK, PRB 81, 115126


--------------------------------------------------------------------------------------------------------




--------------------------------------- Iteration      1(  16)  ---------------------------------------


    POTLOK:  cpu time      0.0271: real time      0.0418
    SETDIJ:  cpu time      0.9074: real time      0.9097
     EDDAV:  cpu time      0.0285: real time      0.0286
       DOS:  cpu time      0.0001: real time      0.0001
    CHARGE:  cpu time      0.0042: real time      0.0042
    MIXING:  cpu time      0.0003: real time      0.0003
    --------------------------------------------
      LOOP:  cpu time      0.9677: real time      0.9847

 eigenvalue-minimisations  :   120
 total energy-change (2. order) :-0.2097364E-04  (-0.5208540E-05)
 number of electron      17.9999999 magnetization       0.0026121
 augmentation part        4.9190514 magnetization       0.0026163

 Free energy of the ion-electron system (eV)
  ---------------------------------------------------
  alpha Z        PSCENC =        48.32593859
  Ewald energy   TEWEN  =     -1031.85467228
  -Hartree energ DENC   =      -520.29987949
  -exchange      EXHF   =        37.29858726
  -V(xc)+E(xc)   XCENC  =       -18.85819584
  PAW double counting   =      3940.66380425    -3874.71313071
  entropy T*S    EENTRO =        -0.00000000
  eigenvalues    EBANDS =       -91.18775655
  atomic energy  EATOM  =      1514.28648168
  Solvation  Ediel_sol  =         0.00000000
  ---------------------------------------------------
  free energy    TOTEN  =         3.66117691 eV

  energy without entropy =        3.66117691  energy(sigma->0) =        3.66117691
  exchange ACFDT corr.  =         0.00000000  see jH, gK, PRB 81, 115126


--------------------------------------------------------------------------------------------------------




--------------------------------------- Iteration      1(  17)  ---------------------------------------


    POTLOK:  cpu time      0.0254: real time      0.0399
    SETDIJ:  cpu time      0.9088: real time      0.9109
     EDDAV:  cpu time      0.0261: real time      0.0261
       DOS:  cpu time      0.0001: real time      0.0001
    CHARGE:  cpu time      0.0040: real time      0.0041
    MIXING:  cpu time      0.0002: real time      0.0002
    --------------------------------------------
      LOOP:  cpu time      0.9646: real time      0.9813

 eigenvalue-minimisations  :    96
 total energy-change (2. order) :-0.1294296E-04  (-0.4231515E-05)
 number of electron      17.9999999 magnetization      -0.0015673
 augmentation part        4.9190270 magnetization      -0.0015705

 Free energy of the ion-electron system (eV)
  ---------------------------------------------------
  alpha Z        PSCENC =        48.32593859
  Ewald energy   TEWEN  =     -1031.85467228
  -Hartree energ DENC   =      -520.32361187
  -exchange      EXHF   =        37.29825277
  -V(xc)+E(xc)   XCENC  =       -18.85471628
  PAW double counting   =      3941.37617397    -3875.42114951
  entropy T*S    EENTRO =        -0.00000000
  eigenvalues    EBANDS =       -91.17153311
  atomic energy  EATOM  =      1514.28648168
  Solvation  Ediel_sol  =         0.00000000
  ---------------------------------------------------
  free energy    TOTEN  =         3.66116397 eV

  energy without entropy =        3.66116397  energy(sigma->0) =        3.66116397
  exchange ACFDT corr.  =         0.00000000  see jH, gK, PRB 81, 115126


--------------------------------------------------------------------------------------------------------




--------------------------------------- Iteration      1(  18)  ---------------------------------------


    POTLOK:  cpu time      0.0257: real time      0.0419
    SETDIJ:  cpu time      0.9151: real time      0.9172
     EDDAV:  cpu time      0.0264: real time      0.0264
       DOS:  cpu time      0.0001: real time      0.0001
    CHARGE:  cpu time      0.0043: real time      0.0043
    MIXING:  cpu time      0.0002: real time      0.0002
    --------------------------------------------
      LOOP:  cpu time      0.9716: real time      0.9901

 eigenvalue-minimisations  :    96
 total energy-change (2. order) :-0.1189777E-04  (-0.5507581E-05)
 number of electron      17.9999999 magnetization       0.0009404
 augmentation part        4.9190075 magnetization       0.0009410

 Free energy of the ion-electron system (eV)
  ---------------------------------------------------
  alpha Z        PSCENC =        48.32593859
  Ewald energy   TEWEN  =     -1031.85467228
  -Hartree energ DENC   =      -520.33936139
  -exchange      EXHF   =        37.29800124
  -V(xc)+E(xc)   XCENC  =       -18.85248640
  PAW double counting   =      3940.91706778    -3874.95939466
  entropy T*S    EENTRO =        -0.00000000
  eigenvalues    EBANDS =       -91.16042250
  atomic energy  EATOM  =      1514.28648168
  Solvation  Ediel_sol  =         0.00000000
  ---------------------------------------------------
  free energy    TOTEN  =         3.66115207 eV

  energy without entropy =        3.66115207  energy(sigma->0) =        3.66115207
  exchange ACFDT corr.  =         0.00000000  see jH, gK, PRB 81, 115126


--------------------------------------------------------------------------------------------------------




--------------------------------------- Iteration      1(  19)  ---------------------------------------


    POTLOK:  cpu time      0.0273: real time      0.0439
    SETDIJ:  cpu time      0.8914: real time      0.8935
     EDDAV:  cpu time      0.0258: real time      0.0258
       DOS:  cpu time      0.0001: real time      0.0001
    CHARGE:  cpu time      0.0037: real time      0.0037
    MIXING:  cpu time      0.0001: real time      0.0001
    --------------------------------------------
      LOOP:  cpu time      0.9484: real time      0.9673

 eigenvalue-minimisations  :    96
 total energy-change (2. order) :-0.1626654E-04  (-0.9051647E-05)
 number of electron      17.9999999 magnetization      -0.0005642
 augmentation part        4.9189901 magnetization      -0.0005622

 Free energy of the ion-electron system (eV)
  ---------------------------------------------------
  alpha Z        PSCENC =        48.32593859
  Ewald energy   TEWEN  =     -1031.85467228
  -Hartree energ DENC   =      -520.34976819
  -exchange      EXHF   =        37.29782900
  -V(xc)+E(xc)   XCENC  =       -18.85105812
  PAW double counting   =      3940.11709431    -3874.15782114
  entropy T*S    EENTRO =        -0.00000000
  eigenvalues    EBANDS =       -91.15288805
  atomic energy  EATOM  =      1514.28648168
  Solvation  Ediel_sol  =         0.00000000
  ---------------------------------------------------
  free energy    TOTEN  =         3.66113580 eV

  energy without entropy =        3.66113580  energy(sigma->0) =        3.66113580
  exchange ACFDT corr.  =         0.00000000  see jH, gK, PRB 81, 115126


--------------------------------------------------------------------------------------------------------




--------------------------------------- Iteration      1(  20)  ---------------------------------------


    POTLOK:  cpu time      0.0239: real time      0.0405
    SETDIJ:  cpu time      0.9307: real time      0.9329
     EDDAV:  cpu time      0.0259: real time      0.0260
       DOS:  cpu time      0.0002: real time      0.0002
    CHARGE:  cpu time      0.0039: real time      0.0039
    MIXING:  cpu time      0.0002: real time      0.0002
    --------------------------------------------
      LOOP:  cpu time      0.9848: real time      1.0037

 eigenvalue-minimisations  :    96
 total energy-change (2. order) :-0.2698174E-04  (-0.1592728E-04)
 number of electron      17.9999999 magnetization       0.0003385
 augmentation part        4.9189682 magnetization       0.0003362

 Free energy of the ion-electron system (eV)
  ---------------------------------------------------
  alpha Z        PSCENC =        48.32593859
  Ewald energy   TEWEN  =     -1031.85467228
  -Hartree energ DENC   =      -520.35661786
  -exchange      EXHF   =        37.29771053
  -V(xc)+E(xc)   XCENC  =       -18.85014363
  PAW double counting   =      3939.33915019    -3873.37892383
  entropy T*S    EENTRO =        -0.00000000
  eigenvalues    EBANDS =       -91.14781457
  atomic energy  EATOM  =      1514.28648168
  Solvation  Ediel_sol  =         0.00000000
  ---------------------------------------------------
  free energy    TOTEN  =         3.66110882 eV

  energy without entropy =        3.66110882  energy(sigma->0) =        3.66110882
  exchange ACFDT corr.  =         0.00000000  see jH, gK, PRB 81, 115126


--------------------------------------------------------------------------------------------------------




--------------------------------------- Iteration      1(  21)  ---------------------------------------


    POTLOK:  cpu time      0.0338: real time      0.0342
    SETDIJ:  cpu time      0.8873: real time      0.8894
     EDDAV:  cpu time      0.0309: real time      0.0310
       DOS:  cpu time      0.0001: real time      0.0001
    CHARGE:  cpu time      0.0039: real time      0.0039
    MIXING:  cpu time      0.0002: real time      0.0001
    --------------------------------------------
      LOOP:  cpu time      0.9562: real time      0.9588

 eigenvalue-minimisations  :   144
 total energy-change (2. order) :-0.4754013E-04  (-0.2848526E-04)
 number of electron      17.9999999 magnetization      -0.0002031
 augmentation part        4.9189334 magnetization      -0.0001974

 Free energy of the ion-electron system (eV)
  ---------------------------------------------------
  alpha Z        PSCENC =        48.32593859
  Ewald energy   TEWEN  =     -1031.85467228
  -Hartree energ DENC   =      -520.36113850
  -exchange      EXHF   =        37.29762499
  -V(xc)+E(xc)   XCENC  =       -18.84955901
  PAW double counting   =      3938.68257334    -3872.72181762
  entropy T*S    EENTRO =        -0.00000000
  eigenvalues    EBANDS =       -91.14436992
  atomic energy  EATOM  =      1514.28648168
  Solvation  Ediel_sol  =         0.00000000
  ---------------------------------------------------
  free energy    TOTEN  =         3.66106128 eV

  energy without entropy =        3.66106128  energy(sigma->0) =        3.66106128
  exchange ACFDT corr.  =         0.00000000  see jH, gK, PRB 81, 115126


--------------------------------------------------------------------------------------------------------




--------------------------------------- Iteration      1(  22)  ---------------------------------------


    POTLOK:  cpu time      0.0253: real time      0.0347
    SETDIJ:  cpu time      0.8897: real time      0.8918
     EDDAV:  cpu time      0.0277: real time      0.0278
       DOS:  cpu time      0.0001: real time      0.0001
    CHARGE:  cpu time      0.0036: real time      0.0037
    MIXING:  cpu time      0.0001: real time      0.0001
    --------------------------------------------
      LOOP:  cpu time      0.9467: real time      0.9582

 eigenvalue-minimisations  :   144
 total energy-change (2. order) :-0.8508443E-04  (-0.5114610E-04)
 number of electron      17.9999999 magnetization       0.0001219
 augmentation part        4.9188757 magnetization       0.0001168

 Free energy of the ion-electron system (eV)
  ---------------------------------------------------
  alpha Z        PSCENC =        48.32593859
  Ewald energy   TEWEN  =     -1031.85467228
  -Hartree energ DENC   =      -520.36408759
  -exchange      EXHF   =        37.29754513
  -V(xc)+E(xc)   XCENC  =       -18.84918780
  PAW double counting   =      3938.14969840    -3872.18871658
  entropy T*S    EENTRO =        -0.00000000
  eigenvalues    EBANDS =       -91.14202336
  atomic energy  EATOM  =      1514.28648168
  Solvation  Ediel_sol  =         0.00000000
  ---------------------------------------------------
  free energy    TOTEN  =         3.66097620 eV

  energy without entropy =        3.66097620  energy(sigma->0) =        3.66097620
  exchange ACFDT corr.  =         0.00000000  see jH, gK, PRB 81, 115126


--------------------------------------------------------------------------------------------------------




--------------------------------------- Iteration      1(  23)  ---------------------------------------


    POTLOK:  cpu time      0.0219: real time      0.0365
    SETDIJ:  cpu time      0.8874: real time      0.8895
     EDDAV:  cpu time      0.0275: real time      0.0275
       DOS:  cpu time      0.0001: real time      0.0001
    CHARGE:  cpu time      0.0036: real time      0.0036
    MIXING:  cpu time      0.0001: real time      0.0001
    --------------------------------------------
      LOOP:  cpu time      0.9406: real time      0.9574

 eigenvalue-minimisations  :   144
 total energy-change (2. order) :-0.1528091E-03  (-0.9187398E-04)
 number of electron      17.9999999 magnetization      -0.0000731
 augmentation part        4.9187788 magnetization      -0.0000662

 Free energy of the ion-electron system (eV)
  ---------------------------------------------------
  alpha Z        PSCENC =        48.32593859
  Ewald energy   TEWEN  =     -1031.85467228
  -Hartree energ DENC   =      -520.36599873
  -exchange      EXHF   =        37.29745437
  -V(xc)+E(xc)   XCENC  =       -18.84895730
  PAW double counting   =      3937.77441946    -3871.81347391
  entropy T*S    EENTRO =        -0.00000000
  eigenvalues    EBANDS =       -91.14036850
  atomic energy  EATOM  =      1514.28648168
  Solvation  Ediel_sol  =         0.00000000
  ---------------------------------------------------
  free energy    TOTEN  =         3.66082339 eV

  energy without entropy =        3.66082339  energy(sigma->0) =        3.66082339
  exchange ACFDT corr.  =         0.00000000  see jH, gK, PRB 81, 115126


--------------------------------------------------------------------------------------------------------




--------------------------------------- Iteration      1(  24)  ---------------------------------------


    POTLOK:  cpu time      0.0224: real time      0.0376
    SETDIJ:  cpu time      0.8911: real time      0.8932
     EDDAV:  cpu time      0.0284: real time      0.0285
       DOS:  cpu time      0.0001: real time      0.0002
    CHARGE:  cpu time      0.0039: real time      0.0039
    MIXING:  cpu time      0.0001: real time      0.0001
    --------------------------------------------
      LOOP:  cpu time      0.9461: real time      0.9636

 eigenvalue-minimisations  :   144
 total energy-change (2. order) :-0.2744348E-03  (-0.1649670E-03)
 number of electron      17.9999999 magnetization       0.0000439
 augmentation part        4.9186078 magnetization       0.0000386

 Free energy of the ion-electron system (eV)
  ---------------------------------------------------
  alpha Z        PSCENC =        48.32593859
  Ewald energy   TEWEN  =     -1031.85467228
  -Hartree energ DENC   =      -520.36717618
  -exchange      EXHF   =        37.29731910
  -V(xc)+E(xc)   XCENC  =       -18.84882519
  PAW double counting   =      3937.59705163    -3871.63644917
  entropy T*S    EENTRO =        -0.00000000
  eigenvalues    EBANDS =       -91.13911924
  atomic energy  EATOM  =      1514.28648168
  Solvation  Ediel_sol  =         0.00000000
  ---------------------------------------------------
  free energy    TOTEN  =         3.66054895 eV

  energy without entropy =        3.66054895  energy(sigma->0) =        3.66054895
  exchange ACFDT corr.  =         0.00000000  see jH, gK, PRB 81, 115126


--------------------------------------------------------------------------------------------------------




--------------------------------------- Iteration      1(  25)  ---------------------------------------


    POTLOK:  cpu time      0.0248: real time      0.0382
    SETDIJ:  cpu time      0.8946: real time      0.8967
     EDDAV:  cpu time      0.0275: real time      0.0276
       DOS:  cpu time      0.0001: real time      0.0001
    CHARGE:  cpu time      0.0036: real time      0.0036
    MIXING:  cpu time      0.0001: real time      0.0001
    --------------------------------------------
      LOOP:  cpu time      0.9507: real time      0.9663

 eigenvalue-minimisations  :   144
 total energy-change (2. order) :-0.4922629E-03  (-0.2957626E-03)
 number of electron      17.9999999 magnetization      -0.0000263
 augmentation part        4.9183054 magnetization      -0.0000177

 Free energy of the ion-electron system (eV)
  ---------------------------------------------------
  alpha Z        PSCENC =        48.32593859
  Ewald energy   TEWEN  =     -1031.85467228
  -Hartree energ DENC   =      -520.36781663
  -exchange      EXHF   =        37.29709962
  -V(xc)+E(xc)   XCENC  =       -18.84876800
  PAW double counting   =      3937.69220432    -3871.73238274
  entropy T*S    EENTRO =        -0.00000000
  eigenvalues    EBANDS =       -91.13802787
  atomic energy  EATOM  =      1514.28648168
  Solvation  Ediel_sol  =         0.00000000
  ---------------------------------------------------
  free energy    TOTEN  =         3.66005669 eV

  energy without entropy =        3.66005669  energy(sigma->0) =        3.66005669
  exchange ACFDT corr.  =         0.00000000  see jH, gK, PRB 81, 115126


--------------------------------------------------------------------------------------------------------




--------------------------------------- Iteration      1(  26)  ---------------------------------------


    POTLOK:  cpu time      0.0222: real time      0.0373
    SETDIJ:  cpu time      0.8940: real time      0.8961
     EDDAV:  cpu time      0.0284: real time      0.0285
       DOS:  cpu time      0.0002: real time      0.0002
    CHARGE:  cpu time      0.0039: real time      0.0039
    MIXING:  cpu time      0.0001: real time      0.0001
    --------------------------------------------
      LOOP:  cpu time      0.9488: real time      0.9661

 eigenvalue-minimisations  :   144
 total energy-change (2. order) :-0.8805200E-03  (-0.5286382E-03)
 number of electron      17.9999999 magnetization       0.0000158
 augmentation part        4.9177637 magnetization       0.0000127

 Free energy of the ion-electron system (eV)
  ---------------------------------------------------
  alpha Z        PSCENC =        48.32593859
  Ewald energy   TEWEN  =     -1031.85467228
  -Hartree energ DENC   =      -520.36798451
  -exchange      EXHF   =        37.29671606
  -V(xc)+E(xc)   XCENC  =       -18.84877971
  PAW double counting   =      3938.18887116    -3872.23054736
  entropy T*S    EENTRO =        -0.00000000
  eigenvalues    EBANDS =       -91.13684747
  atomic energy  EATOM  =      1514.28648168
  Solvation  Ediel_sol  =         0.00000000
  ---------------------------------------------------
  free energy    TOTEN  =         3.65917617 eV

  energy without entropy =        3.65917617  energy(sigma->0) =        3.65917617
  exchange ACFDT corr.  =         0.00000000  see jH, gK, PRB 81, 115126


--------------------------------------------------------------------------------------------------------




--------------------------------------- Iteration      1(  27)  ---------------------------------------


    POTLOK:  cpu time      0.0224: real time      0.0383
    SETDIJ:  cpu time      0.8957: real time      0.8979
     EDDAV:  cpu time      0.0291: real time      0.0292
       DOS:  cpu time      0.0001: real time      0.0001
    CHARGE:  cpu time      0.0039: real time      0.0039
    MIXING:  cpu time      0.0001: real time      0.0001
    --------------------------------------------
      LOOP:  cpu time      0.9514: real time      0.9696

 eigenvalue-minimisations  :   144
 total energy-change (2. order) :-0.1567207E-02  (-0.9397982E-03)
 number of electron      17.9999999 magnetization      -0.0000095
 augmentation part        4.9168020 magnetization      -0.0000011

 Free energy of the ion-electron system (eV)
  ---------------------------------------------------
  alpha Z        PSCENC =        48.32593859
  Ewald energy   TEWEN  =     -1031.85467228
  -Hartree energ DENC   =      -520.36763221
  -exchange      EXHF   =        37.29604194
  -V(xc)+E(xc)   XCENC  =       -18.84887668
  PAW double counting   =      3939.31863708    -3873.36306635
  entropy T*S    EENTRO =        -0.00000000
  eigenvalues    EBANDS =       -91.13524281
  atomic energy  EATOM  =      1514.28648168
  Solvation  Ediel_sol  =         0.00000000
  ---------------------------------------------------
  free energy    TOTEN  =         3.65760896 eV

  energy without entropy =        3.65760896  energy(sigma->0) =        3.65760896
  exchange ACFDT corr.  =         0.00000000  see jH, gK, PRB 81, 115126


--------------------------------------------------------------------------------------------------------




--------------------------------------- Iteration      1(  28)  ---------------------------------------


    POTLOK:  cpu time      0.0218: real time      0.0386
    SETDIJ:  cpu time      0.8903: real time      0.8924
     EDDAV:  cpu time      0.0307: real time      0.0308
       DOS:  cpu time      0.0001: real time      0.0001
    CHARGE:  cpu time      0.0037: real time      0.0037
    MIXING:  cpu time      0.0001: real time      0.0001
    --------------------------------------------
      LOOP:  cpu time      0.9467: real time      0.9658

 eigenvalue-minimisations  :   144
 total energy-change (2. order) :-0.2765332E-02  (-0.1655018E-02)
 number of electron      17.9999999 magnetization       0.0000057
 augmentation part        4.9150981 magnetization       0.0000062

 Free energy of the ion-electron system (eV)
  ---------------------------------------------------
  alpha Z        PSCENC =        48.32593859
  Ewald energy   TEWEN  =     -1031.85467228
  -Hartree energ DENC   =      -520.36659944
  -exchange      EXHF   =        37.29484626
  -V(xc)+E(xc)   XCENC  =       -18.84910286
  PAW double counting   =      3941.49599680    -3875.54537698
  entropy T*S    EENTRO =        -0.00000000
  eigenvalues    EBANDS =       -91.13266815
  atomic energy  EATOM  =      1514.28648168
  Solvation  Ediel_sol  =         0.00000000
  ---------------------------------------------------
  free energy    TOTEN  =         3.65484363 eV

  energy without entropy =        3.65484363  energy(sigma->0) =        3.65484363
  exchange ACFDT corr.  =         0.00000000  see jH, gK, PRB 81, 115126


--------------------------------------------------------------------------------------------------------




--------------------------------------- Iteration      1(  29)  ---------------------------------------


    POTLOK:  cpu time      0.0220: real time      0.0384
    SETDIJ:  cpu time      0.8881: real time      0.8901
     EDDAV:  cpu time      0.0306: real time      0.0307
       DOS:  cpu time      0.0001: real time      0.0001
    CHARGE:  cpu time      0.0036: real time      0.0036
    MIXING:  cpu time      0.0002: real time      0.0002
    --------------------------------------------
      LOOP:  cpu time      0.9446: real time      0.9632

 eigenvalue-minimisations  :   144
 total energy-change (2. order) :-0.4804906E-02  (-0.2865771E-02)
 number of electron      17.9999999 magnetization      -0.0000034
 augmentation part        4.9121330 magnetization       0.0000051

 Free energy of the ion-electron system (eV)
  ---------------------------------------------------
  alpha Z        PSCENC =        48.32593859
  Ewald energy   TEWEN  =     -1031.85467228
  -Hartree energ DENC   =      -520.36441436
  -exchange      EXHF   =        37.29273875
  -V(xc)+E(xc)   XCENC  =       -18.84954667
  PAW double counting   =      3945.48059695    -3879.53876995
  entropy T*S    EENTRO =        -0.00000000
  eigenvalues    EBANDS =       -91.12831398
  atomic energy  EATOM  =      1514.28648168
  Solvation  Ediel_sol  =         0.00000000
  ---------------------------------------------------
  free energy    TOTEN  =         3.65003872 eV

  energy without entropy =        3.65003872  energy(sigma->0) =        3.65003872
  exchange ACFDT corr.  =         0.00000000  see jH, gK, PRB 81, 115126


--------------------------------------------------------------------------------------------------------




--------------------------------------- Iteration      1(  30)  ---------------------------------------


    POTLOK:  cpu time      0.0219: real time      0.0386
    SETDIJ:  cpu time      0.8889: real time      0.8910
     EDDAV:  cpu time      0.0306: real time      0.0307
       DOS:  cpu time      0.0001: real time      0.0001
    CHARGE:  cpu time      0.0036: real time      0.0036
    MIXING:  cpu time      0.0002: real time      0.0002
    --------------------------------------------
      LOOP:  cpu time      0.9452: real time      0.9642

 eigenvalue-minimisations  :   144
 total energy-change (2. order) :-0.8127899E-02  (-0.4819447E-02)
 number of electron      17.9999999 magnetization       0.0000020
 augmentation part        4.9070789 magnetization       0.0000103

[...]
    MIXING:  cpu time      0.0001: real time      0.0001
    --------------------------------------------
      LOOP:  cpu time      0.9607: real time      0.9791

 eigenvalue-minimisations  :   144
 total energy-change (2. order) :-0.2925008E-04  (-0.6150839E-05)
 number of electron      17.9999999 magnetization      -0.0000000
 augmentation part        4.7520377 magnetization      -0.0002847

 Free energy of the ion-electron system (eV)
  ---------------------------------------------------
  alpha Z        PSCENC =        48.32593859
  Ewald energy   TEWEN  =     -1031.85467228
  -Hartree energ DENC   =      -519.03519325
  -exchange      EXHF   =        37.12467253
  -V(xc)+E(xc)   XCENC  =       -19.07031221
  PAW double counting   =      4539.79964617    -4474.99386671
  entropy T*S    EENTRO =        -0.00000000
  eigenvalues    EBANDS =       -91.08719807
  atomic energy  EATOM  =      1514.28648168
  Solvation  Ediel_sol  =         0.00000000
  ---------------------------------------------------
  free energy    TOTEN  =         3.49549644 eV

  energy without entropy =        3.49549644  energy(sigma->0) =        3.49549644
  exchange ACFDT corr.  =         0.00000000  see jH, gK, PRB 81, 115126


--------------------------------------------------------------------------------------------------------




--------------------------------------- Iteration      1(  46)  ---------------------------------------


    POTLOK:  cpu time      0.0230: real time      0.0391
    SETDIJ:  cpu time      0.9071: real time      0.9092
     EDDAV:  cpu time      0.0292: real time      0.0293
       DOS:  cpu time      0.0001: real time      0.0001
    CHARGE:  cpu time      0.0038: real time      0.0038
    MIXING:  cpu time      0.0001: real time      0.0001
    --------------------------------------------
      LOOP:  cpu time      0.9633: real time      0.9816

 eigenvalue-minimisations  :   144
 total energy-change (2. order) :-0.1388714E-04  (-0.2768221E-05)
 number of electron      17.9999999 magnetization       0.0000000
 augmentation part        4.7525097 magnetization      -0.0003087

 Free energy of the ion-electron system (eV)
  ---------------------------------------------------
  alpha Z        PSCENC =        48.32593859
  Ewald energy   TEWEN  =     -1031.85467228
  -Hartree energ DENC   =      -519.01716553
  -exchange      EXHF   =        37.12560656
  -V(xc)+E(xc)   XCENC  =       -19.07170632
  PAW double counting   =      4543.14945366    -4478.34298653
  entropy T*S    EENTRO =        -0.00000000
  eigenvalues    EBANDS =       -91.10546728
  atomic energy  EATOM  =      1514.28648168
  Solvation  Ediel_sol  =         0.00000000
  ---------------------------------------------------
  free energy    TOTEN  =         3.49548255 eV

  energy without entropy =        3.49548255  energy(sigma->0) =        3.49548255
  exchange ACFDT corr.  =         0.00000000  see jH, gK, PRB 81, 115126


--------------------------------------------------------------------------------------------------------




--------------------------------------- Iteration      1(  47)  ---------------------------------------


    POTLOK:  cpu time      0.0221: real time      0.0385
    SETDIJ:  cpu time      0.9070: real time      0.9091
     EDDAV:  cpu time      0.0259: real time      0.0260
       DOS:  cpu time      0.0001: real time      0.0001
    --------------------------------------------
      LOOP:  cpu time      0.9551: real time      0.9737

 eigenvalue-minimisations  :   120
 total energy-change (2. order) :-0.5557275E-05  (-0.1023947E-05)
 number of electron      17.9999999 magnetization       0.0000000
 augmentation part        4.7525097 magnetization      -0.0003087

 Free energy of the ion-electron system (eV)
  ---------------------------------------------------
  alpha Z        PSCENC =        48.32593859
  Ewald energy   TEWEN  =     -1031.85467228
  -Hartree energ DENC   =      -519.00677074
  -exchange      EXHF   =        37.12614669
  -V(xc)+E(xc)   XCENC  =       -19.07234461
  PAW double counting   =      4544.77909505    -4479.97111366
  entropy T*S    EENTRO =        -0.00000000
  eigenvalues    EBANDS =       -91.11728373
  atomic energy  EATOM  =      1514.28648168
  Solvation  Ediel_sol  =         0.00000000
  ---------------------------------------------------
  free energy    TOTEN  =         3.49547700 eV

  energy without entropy =        3.49547700  energy(sigma->0) =        3.49547700
  exchange ACFDT corr.  =         0.00000000  see jH, gK, PRB 81, 115126


--------------------------------------------------------------------------------------------------------




 average (electrostatic) potential at core
  the test charge radii are     1.0698  1.1897
  (the norm of the test charge is              1.0000)
       1 -33.2007       2 -85.2013
 
 
 
 E-fermi :   2.0407     XC(G=0):  -6.7983     alpha+bet : -7.1495

 Fermi energy:         2.0407349200

 spin component 1

 k-point     1 :       0.0000    0.0000    0.0000
  band No.  band energies     occupation 
      1      -9.2721      1.00000
      2      -8.4444      1.00000
      3      -8.4169      1.00000
      4      -8.4081      1.00000
      5      -8.2463      1.00000
      6      -8.1974      1.00000
      7       1.5465      1.00000
      8       1.9055      1.00000
      9       1.9756      1.00000
     10       3.9281      0.00000
     11       7.4273      0.00000
     12       7.5355      0.00000
     13       7.6492      0.00000
     14      10.0305      0.00000
     15      12.2734      0.00000
     16      12.4211      0.00000
     17      12.7231      0.00000
     18      12.7503      0.00000
     19      12.7923      0.00000
     20      14.5271      0.00000
     21      22.9668      0.00000
     22      23.0299      0.00000
     23      23.0761      0.00000
     24      23.9445      0.00000
 Fermi energy:         2.0407349200

 spin component 2

 k-point     1 :       0.0000    0.0000    0.0000
  band No.  band energies     occupation 
      1      -9.2725      1.00000
      2      -8.4446      1.00000
      3      -8.4170      1.00000
      4      -8.4079      1.00000
      5      -8.2462      1.00000
      6      -8.1972      1.00000
      7       1.5438      1.00000
      8       1.9062      1.00000
      9       1.9758      1.00000
     10       3.9280      0.00000
     11       7.4271      0.00000
     12       7.5359      0.00000
     13       7.6497      0.00000
     14      10.0302      0.00000
     15      12.2736      0.00000
     16      12.4216      0.00000
     17      12.7226      0.00000
     18      12.7481      0.00000
     19      12.7937      0.00000
     20      14.5273      0.00000
     21      22.9661      0.00000
     22      23.0254      0.00000
     23      23.0805      0.00000
     24      23.9529      0.00000


--------------------------------------------------------------------------------------------------------


 soft charge-density along one line, spin component           1
         0         1         2         3         4         5         6         7         8         9
 total charge-density along one line
 
 soft charge-density along one line, spin component           2
         0         1         2         3         4         5         6         7         8         9
 total charge-density along one line
 
 pseudopotential strength for first ion, spin component:           1
-16.703   0.004  -0.004   0.003  -0.010 -16.803   0.004  -0.004
  0.004 -16.707   0.002   0.027  -0.001   0.004 -16.807   0.002
 -0.004   0.002 -16.697   0.003  -0.009  -0.004   0.002 -16.798
  0.003   0.027   0.003 -16.679   0.004   0.003   0.026   0.003
 -0.010  -0.001  -0.009   0.004 -16.681  -0.010  -0.001  -0.008
-16.803   0.004  -0.004   0.003  -0.010 -16.881   0.003  -0.003
  0.004 -16.807   0.002   0.026  -0.001   0.003 -16.885   0.002
 -0.004   0.002 -16.798   0.003  -0.008  -0.003   0.002 -16.876
  0.003   0.026   0.003 -16.780   0.003   0.002   0.025   0.003
 -0.010  -0.001  -0.008   0.003 -16.782  -0.010  -0.001  -0.008
 -0.012   0.001  -0.012   0.001  -0.007  -0.011   0.001  -0.012
 -0.018   0.001  -0.019   0.001  -0.012  -0.018   0.001  -0.019
 -0.001  -0.002   0.004   0.000   0.007  -0.001  -0.002   0.004
  0.000  -0.003  -0.003   0.000   0.000   0.000  -0.003  -0.002
 -0.003   0.000   0.002  -0.002  -0.002  -0.003   0.000   0.002
 -0.001  -0.003   0.005   0.000   0.009  -0.002  -0.002   0.005
  0.000  -0.003  -0.003   0.002   0.000   0.000  -0.003  -0.002
 -0.002   0.000   0.004  -0.002  -0.003  -0.002   0.000   0.004
 pseudopotential strength for first ion, spin component:           2
-16.690   0.005   0.003   0.004  -0.010 -16.790   0.005   0.002
  0.005 -16.711   0.003   0.020  -0.002   0.005 -16.811   0.003
  0.003   0.003 -16.711   0.004  -0.004   0.002   0.003 -16.810
  0.004   0.020   0.004 -16.690   0.005   0.004   0.020   0.004
 -0.010  -0.002  -0.004   0.005 -16.667  -0.010  -0.002  -0.004
-16.790   0.005   0.002   0.004  -0.010 -16.869   0.005   0.002
  0.005 -16.811   0.003   0.020  -0.002   0.005 -16.888   0.003
  0.002   0.003 -16.810   0.004  -0.004   0.002   0.003 -16.888
  0.004   0.020   0.004 -16.790   0.005   0.003   0.020   0.004
 -0.010  -0.002  -0.004   0.005 -16.768  -0.010  -0.002  -0.004
  0.004  -0.002   0.018  -0.003   0.002   0.003  -0.002   0.017
  0.006  -0.003   0.028  -0.005   0.003   0.005  -0.003   0.027
  0.004  -0.004   0.001  -0.000   0.001   0.004  -0.003   0.001
 -0.000   0.002  -0.004   0.006  -0.000  -0.000   0.002  -0.004
  0.002  -0.000  -0.001  -0.004   0.003   0.002  -0.000  -0.001
  0.004  -0.004   0.002  -0.000   0.002   0.005  -0.004   0.001
 -0.000   0.003  -0.005   0.008  -0.000  -0.000   0.003  -0.004
  0.003  -0.000   0.000  -0.004   0.003   0.003  -0.000   0.000
 total augmentation occupancy for first ion, spin component:           1
  4.232   0.088   2.500   0.117  -2.247  -2.126  -0.078  -2.354  -0.104   2.075   0.066  -0.023   0.082  -0.014  -0.450  -0.007
  0.088   4.652   0.160   3.916   0.042  -0.078  -2.504  -0.143  -3.631  -0.037   0.002  -0.007  -0.007  -0.547  -0.012  -0.003
  2.500   0.160   6.356   0.226   0.632  -2.354  -0.143  -4.148  -0.202  -0.607  -0.042   0.017  -0.315  -0.022  -0.481   0.022
  0.117   3.916   0.226   7.444   0.079  -0.104  -3.631  -0.202  -5.092  -0.071   0.007  -0.012  -0.017  -0.781  -0.012   0.001
 -2.247   0.042   0.632   0.079   9.378   2.075  -0.037  -0.607  -0.071  -6.889   0.030  -0.021  -0.786  -0.010   0.443   0.065
 -2.126  -0.078  -2.354  -0.104   2.075   2.032   0.070   2.212   0.093  -1.912  -0.058   0.016  -0.076   0.013   0.446   0.009
 -0.078  -2.504  -0.143  -3.631  -0.037   0.070   2.371   0.127   3.360   0.033   0.002   0.004   0.010   0.533   0.011  -0.001
 -2.354  -0.143  -4.148  -0.202  -0.607   2.212   0.127   3.951   0.180   0.582   0.035  -0.011   0.315   0.024   0.482  -0.039
 -0.104  -3.631  -0.202  -5.092  -0.071   0.093   3.360   0.180   4.765   0.063  -0.001   0.006   0.016   0.756   0.015  -0.002
  2.075  -0.037  -0.607  -0.071  -6.889  -1.912   0.033   0.582   0.063   6.432  -0.020   0.012   0.762   0.009  -0.428  -0.091
  0.066   0.002  -0.042   0.007   0.030  -0.058   0.002   0.035  -0.001  -0.020   4.298  -1.778  -0.002  -0.002   0.001  -0.001
 -0.023  -0.007   0.017  -0.012  -0.021   0.016   0.004  -0.011   0.006   0.012  -1.778   0.813   0.001   0.001  -0.001   0.000
  0.082  -0.007  -0.315  -0.017  -0.786  -0.076   0.010   0.315   0.016   0.762  -0.002   0.001   0.106   0.002  -0.018  -0.013
 -0.014  -0.547  -0.022  -0.781  -0.010   0.013   0.533   0.024   0.756   0.009  -0.002   0.001   0.002   0.121   0.002  -0.000
 -0.450  -0.012  -0.481  -0.012   0.443   0.446   0.011   0.482   0.015  -0.428   0.001  -0.001  -0.018   0.002   0.099   0.002
 -0.007  -0.003   0.022   0.001   0.065   0.009  -0.001  -0.039  -0.002  -0.091  -0.001   0.000  -0.013  -0.000   0.002   0.002
  0.001   0.041  -0.003   0.065   0.001  -0.001  -0.063  -0.003  -0.090  -0.001  -0.002   0.000  -0.000  -0.015  -0.000   0.000
  0.029   0.001   0.030  -0.003  -0.035  -0.053  -0.001  -0.058  -0.001   0.050   0.001  -0.000   0.002  -0.000  -0.013  -0.000
 total augmentation occupancy for first ion, spin component:           2
  0.063   0.007   0.028   0.012  -0.002  -0.059  -0.006  -0.028  -0.010  -0.004   0.719  -0.001  -0.000  -0.003  -0.011  -0.004
  0.007  -0.054   0.029  -0.076   0.002  -0.006   0.042  -0.025   0.061  -0.001  -0.128   0.001  -0.002   0.018  -0.004   0.001
  0.028   0.029  -0.076   0.045   0.045  -0.028  -0.025   0.073  -0.039  -0.040   1.435  -0.002  -0.001  -0.008   0.009  -0.000
  0.012  -0.076   0.045  -0.109   0.005  -0.010   0.061  -0.039   0.088  -0.005  -0.181   0.001  -0.004   0.026  -0.005   0.001
 -0.002   0.002   0.045   0.005   0.170  -0.004  -0.001  -0.040  -0.005  -0.138   0.452  -0.001  -0.031  -0.001   0.010   0.008
 -0.059  -0.006  -0.028  -0.010  -0.004   0.054   0.005   0.027   0.008   0.009  -0.714   0.046  -0.001   0.003   0.008   0.001
 -0.006   0.042  -0.025   0.061  -0.001   0.005  -0.031   0.021  -0.046  -0.000   0.127  -0.009   0.002  -0.018   0.003  -0.000
 -0.028  -0.025   0.073  -0.039  -0.040   0.027   0.021  -0.068   0.033   0.035  -1.425   0.092   0.002   0.008  -0.007   0.001
 -0.010   0.061  -0.039   0.088  -0.005   0.008  -0.046   0.033  -0.067   0.004   0.180  -0.012   0.003  -0.026   0.005  -0.001
 -0.004  -0.001  -0.040  -0.005  -0.138   0.009  -0.000   0.035   0.004   0.107  -0.448   0.030   0.030   0.001  -0.011  -0.002
  0.719  -0.128   1.435  -0.181   0.452  -0.714   0.127  -1.425   0.180  -0.448   0.001  -0.000  -0.140   0.030  -0.154   0.011
 -0.001   0.001  -0.002   0.001  -0.001   0.046  -0.009   0.092  -0.012   0.030  -0.000   0.000   0.009  -0.002   0.011   0.001
 -0.000  -0.002  -0.001  -0.004  -0.031  -0.001   0.002   0.002   0.003   0.030  -0.140   0.009   0.006   0.001  -0.003  -0.000
 -0.003   0.018  -0.008   0.026  -0.001   0.003  -0.018   0.008  -0.026   0.001   0.030  -0.002   0.001  -0.007   0.001  -0.000
 -0.011  -0.004   0.009  -0.005   0.010   0.008   0.003  -0.007   0.005  -0.011  -0.154   0.011  -0.003   0.001   0.001   0.000
 -0.004   0.001  -0.000   0.001   0.008   0.001  -0.000   0.001  -0.001  -0.002   0.011   0.001  -0.000  -0.000   0.000  -0.000
 -0.001  -0.006  -0.001  -0.007  -0.001   0.001   0.001   0.001   0.002   0.001  -0.002  -0.000   0.000   0.001   0.000  -0.000
  0.000   0.001   0.001   0.001  -0.004  -0.001  -0.000  -0.000  -0.000   0.000   0.012   0.001   0.000  -0.000  -0.000   0.000


------------------------ aborting loop because EDIFF is reached ----------------------------------------





 total charge

# of ion       s       p       d       tot
------------------------------------------
    1        0.318   0.185   9.706  10.209
    2        1.170   2.763   0.012   3.945
--------------------------------------------------
tot          1.488   2.948   9.718  14.154



 magnetization (x)

# of ion       s       p       d       tot
------------------------------------------
    1        0.000  -0.000  -0.000   0.000
    2        0.000  -0.001  -0.000  -0.000
--------------------------------------------------
tot          0.001  -0.001  -0.000  -0.000
 
    CHARGE:  cpu time      0.0044: real time      0.0044
    FORLOC:  cpu time      0.0007: real time      0.0007
    FORHF :  cpu time      0.0081: real time      0.0084
    FORNL :  cpu time      0.0081: real time      0.0090
    FORCOR:  cpu time      0.9254: real time      0.9276
    FORHAR:  cpu time      0.0033: real time      0.0037
    MIXING:  cpu time      0.0003: real time      0.0003
    OFIELD:  cpu time      0.0005: real time      0.0006

 VOLUME and BASIS-vectors are now :
 -----------------------------------------------------------------------------
  energy-cutoff  :      680.00
  volume of cell :       70.71
      direct lattice vectors                 reciprocal lattice vectors
     4.019750926  0.000000000  2.320804042     0.248771632 -0.087954008  0.000000000
     1.339916630  3.789858536  2.320804038     0.000000000  0.263862092  0.000000000
     0.000000000  0.000000000  4.641610150    -0.124385761 -0.087954002  0.215442480

  length of vectors
     4.641608440  4.641609170  4.641610150     0.263862147  0.263862092  0.263862059


 FORCES acting on ions
    electron-ion (+dipol)            ewald-force                    non-local-force                 convergence-correction
 -----------------------------------------------------------------------------------------------
   -.243E+00 0.324E+00 0.483E+00   0.550E-04 -.272E-04 -.763E-04   -.767E-17 -.517E-17 0.397E-18   0.289E-02 -.214E-02 -.446E-02
   -.154E+00 0.207E+00 0.306E+00   -.550E-04 0.272E-04 0.763E-04   0.367E-17 0.742E-17 0.155E-17   0.130E-04 0.243E-03 0.153E-03
 -----------------------------------------------------------------------------------------------
   -.397E+00 0.531E+00 0.789E+00   -.327E-15 -.204E-15 -.675E-15   -.399E-17 0.224E-17 0.195E-17   0.290E-02 -.189E-02 -.430E-02
 
 
 POSITION                                       TOTAL-FORCE (eV/Angst)
 -----------------------------------------------------------------------------------
      0.00000      0.00000      0.00000        -0.000000     -0.000000     -0.000000
      1.33992      0.94746      2.32080         0.000000      0.000000      0.000000
 -----------------------------------------------------------------------------------
    total drift:                               -0.393997      0.528962      0.784827


--------------------------------------------------------------------------------------------------------



  FREE ENERGIE OF THE ION-ELECTRON SYSTEM (eV)
  ---------------------------------------------------
  free  energy   TOTEN  =         3.49547700 eV

  energy  without entropy=        3.49547700  energy(sigma->0) =        3.49547700
 


--------------------------------------------------------------------------------------------------------


    POTLOK:  cpu time      0.9302: real time      0.9325


--------------------------------------------------------------------------------------------------------


 writing wavefunctions
     LOOP+:  cpu time     44.4694: real time     45.3424
    4ORBIT:  cpu time      0.0000: real time      0.0000



 total charge

# of ion       s       p       d       tot
------------------------------------------
    1        0.318   0.185   9.706  10.209
    2        1.170   2.763   0.012   3.945
--------------------------------------------------
tot          1.488   2.948   9.718  14.154



 magnetization (x)

# of ion       s       p       d       tot
------------------------------------------
    1        0.000  -0.000  -0.000   0.000
    2        0.000  -0.001  -0.000  -0.000
--------------------------------------------------
tot          0.001  -0.001  -0.000  -0.000
 

 total amount of memory used by VASP MPI-rank0    32922. kBytes
=======================================================================

   base      :      30000. kBytes
   nonl-proj :         88. kBytes
   fftplans  :        473. kBytes
   grid      :       1039. kBytes
   one-center:         31. kBytes
   HF        :         64. kBytes
   nonlr-proj:        364. kBytes
   wavefun   :         19. kBytes
   fock_wrk  :        844. kBytes
 
  
  
 General timing and accounting informations for this job:
 ========================================================
  
                  Total CPU time used (sec):       53.780
                            User time (sec):       52.108
                          System time (sec):        1.672
                         Elapsed time (sec):       55.341
  
                   Maximum memory used (kb):      275416.
                   Average memory used (kb):          N/A
  
                          Minor page faults:        37474
                          Major page faults:            0
                 Voluntary context switches:         2316
