 vasp.6.4.2 20Jul23 (build Mar 15 2024 16:31:38) complex                        
  
 executed on             LinuxIFC date 2025.03.19  14:43:36
 running  120 mpi-ranks, on    3 nodes
 distrk:  each k-point on  120 cores,    1 groups
 distr:  one band on NCORE=  10 cores,   12 groups


--------------------------------------------------------------------------------------------------------


 INCAR:
   ALGO = Fast
   EDIFF = 1e-05
   ENAUG = 1360
   ENCUT = 680
   GGA = Ps
   ISMEAR = -5
   ISPIN = 2
   LAECHG = True
   LASPH = True
   LCHARG = True
   LELF = False
   LMAXMIX = 4
   LMIXTAU = True
   LORBIT = 11
   LREAL = False
   LVTOT = True
   LWAVE = True
   MAGMOM = 8*0.6
   NCORE = 10
   NELM = 200
   NSW = 0
   PREC = Accurate
   SIGMA = 0.2

 POTCAR:    PAW_PBE Sn_d 06Sep2000                
 POTCAR:    PAW_PBE S 06Sep2000                   
 WARNING: For LVTOT=.TRUE., VASP.5.x writes the TOTAL local potential to the
     file LOCPOT. If you want only the Hartree contributions, use LVHAR=.TRUE.
     instead. 

 POTCAR:    PAW_PBE Sn_d 06Sep2000                
   VRHFIN =Sn: s2p2                                                                                 
   LEXCH  = PE                                                                                      
   EATOM  =  1893.1092 eV,  139.1396 Ry                                                             
                                                                                                    
   TITEL  = PAW_PBE Sn_d 06Sep2000                                                                  
   LULTRA =        F    use ultrasoft PP ?                                                          
   IUNSCR =        1    unscreen: 0-lin 1-nonlin 2-no                                               
   RPACOR =    2.300    partial core radius                                                         
   POMASS =  118.710; ZVAL   =   14.000    mass and valenz                                          
   RCORE  =    2.500    outmost cutoff radius                                                       
   RWIGS  =    2.960; RWIGS  =    1.566    wigner-seitz radius (au A)                               
   ENMAX  =  241.083; ENMIN  =  180.812 eV                                                          
   ICORE  =        3    local potential                                                             
   LCOR   =        T    correct aug charges                                                         
   LPAW   =        T    paw PP                                                                      
   EAUG   =  439.825                                                                                
   DEXC   =    0.000                                                                                
   RMAX   =    2.560    core radius for proj-oper                                                   
   RAUG   =    1.300    factor for augmentation sphere                                              
   RDEP   =    2.659    radius for radial grids                                                     
   RDEPT  =    2.046    core radius for aug-charge                                                  
                                                                                                    
   Atomic configuration                                                                             
   12 entries                                                                                       
     n  l   j            E        occ.                                                              
     1  0  0.50    -29007.2859   2.0000                                                             
     2  0  0.50     -4378.8056   2.0000                                                             
     2  1  1.50     -3930.4293   6.0000                                                             
     3  0  0.50      -845.0264   2.0000                                                             
     3  1  1.50      -698.5725   6.0000                                                             
     3  2  2.50      -473.2839  10.0000                                                             
     4  0  0.50      -133.9036   2.0000                                                             
     4  1  1.50       -89.6752   6.0000                                                             
     4  2  2.50       -25.8375  10.0000                                                             
     5  0  0.50       -10.5484   2.0000                                                             
     5  1  0.50        -3.6940   2.0000                                                             
     4  3  2.50        -2.7416   0.0000                                                             
   Description                                                                                      
     l       E           TYP  RCUT    TYP  RCUT                                                     
     2    -25.8374624     23  2.500                                                                 
     2     -5.4423304     23  2.500                                                                 
     0    -10.5483727     23  2.500                                                                 
     0     13.6058260     23  2.500                                                                 
     1     -3.6939829     23  2.500                                                                 
     1      1.9821976     23  2.500                                                                 
     3     -1.3605826      7  2.500                                                                 
  local pseudopotential read in
  partial core-charges read in
  partial kinetic energy density read in
  atomic valenz-charges read in
  non local Contribution for L=           2  read in
    real space projection operators read in
  non local Contribution for L=           2  read in
    real space projection operators read in
  non local Contribution for L=           0  read in
    real space projection operators read in
  non local Contribution for L=           0  read in
    real space projection operators read in
  non local Contribution for L=           1  read in
    real space projection operators read in
  non local Contribution for L=           1  read in
    real space projection operators read in
    PAW grid and wavefunctions read in
 
   number of l-projection  operators is LMAX  =           6
   number of lm-projection operators is LMMAX =          18
 
 POTCAR:    PAW_PBE S 06Sep2000                   
   VRHFIN =S : s2p4                                                                                 
   LEXCH  = PE                                                                                      
   EATOM  =   276.8230 eV,   20.3459 Ry                                                             
                                                                                                    
   TITEL  = PAW_PBE S 06Sep2000                                                                     
   LULTRA =        F    use ultrasoft PP ?                                                          
   IUNSCR =        1    unscreen: 0-lin 1-nonlin 2-no                                               
   RPACOR =    1.500    partial core radius                                                         
   POMASS =   32.066; ZVAL   =    6.000    mass and valenz                                          
   RCORE  =    1.900    outmost cutoff radius                                                       
   RWIGS  =    2.200; RWIGS  =    1.164    wigner-seitz radius (au A)                               
   ENMAX  =  258.689; ENMIN  =  194.016 eV                                                          
   ICORE  =        2    local potential                                                             
   LCOR   =        T    correct aug charges                                                         
   LPAW   =        T    paw PP                                                                      
   EAUG   =  335.092                                                                                
   DEXC   =    0.000                                                                                
   RMAX   =    1.942    core radius for proj-oper                                                   
   RAUG   =    1.300    factor for augmentation sphere                                              
   RDEP   =    1.954    radius for radial grids                                                     
   RDEPT  =    1.744    core radius for aug-charge                                                  
                                                                                                    
   Atomic configuration                                                                             
    6 entries                                                                                       
     n  l   j            E        occ.                                                              
     1  0  0.50     -2405.8406   2.0000                                                             
     2  0  0.50      -211.7007   2.0000                                                             
     2  1  1.50      -156.4958   6.0000                                                             
     3  0  0.50       -17.2562   2.0000                                                             
     3  1  0.50        -7.0085   4.0000                                                             
     3  2  1.50        -6.8029   0.0000                                                             
   Description                                                                                      
     l       E           TYP  RCUT    TYP  RCUT                                                     
     0    -17.2561641     23  1.900                                                                 
     0    -15.8743224     23  1.900                                                                 
     1     -7.0085400     23  1.900                                                                 
     1     -2.7779785     23  1.900                                                                 
     2     -6.8029130     23  1.900                                                                 
  local pseudopotential read in
  partial core-charges read in
  partial kinetic energy density read in
  atomic valenz-charges read in
  non local Contribution for L=           0  read in
    real space projection operators read in
  non local Contribution for L=           0  read in
    real space projection operators read in
  non local Contribution for L=           1  read in
    real space projection operators read in
  non local Contribution for L=           1  read in
    real space projection operators read in
    PAW grid and wavefunctions read in
 
   number of l-projection  operators is LMAX  =           4
   number of lm-projection operators is LMMAX =           8
 
 -----------------------------------------------------------------------------
|                                                                             |
|               ----> ADVICE to this user running VASP <----                  |
|                                                                             |
|     You enforced a specific xc type in the INCAR file but a different       |
|     type was found in the POTCAR file.                                      |
|     I HOPE YOU KNOW WHAT YOU ARE DOING!                                     |
|                                                                             |
 -----------------------------------------------------------------------------

  PAW_PBE Sn_d 06Sep2000                :
 energy of atom  1       EATOM=-1893.1092
 kinetic energy error for atom=    0.0008 (will be added to EATOM!!)
  PAW_PBE S 06Sep2000                   :
 energy of atom  2       EATOM= -276.8230
 kinetic energy error for atom=    0.0008 (will be added to EATOM!!)
 
 
 POSCAR: Sn4 S4
  positions in direct lattice
  No initial velocities read in
 exchange correlation table for  LEXCH =       14
   RHO(1)=    0.500       N(1)  =     2000
   RHO(2)=  100.500       N(2)  =     4000
 


--------------------------------------------------------------------------------------------------------


 ion  position               nearest neighbor table
   1  0.250  0.370  0.622-   8 2.63   6 2.65   6 2.65   2 3.60   2 3.60
   2  0.750  0.630  0.378-   7 2.63   5 2.65   5 2.65   1 3.60   1 3.60
   3  0.750  0.870  0.878-   6 2.63   8 2.65   8 2.65   4 3.60   4 3.60
   4  0.250  0.130  0.122-   5 2.63   7 2.65   7 2.65   3 3.60   3 3.60
   5  0.250  0.011  0.347-   4 2.63   2 2.65   2 2.65
   6  0.750  0.989  0.653-   3 2.63   1 2.65   1 2.65
   7  0.750  0.511  0.153-   2 2.63   4 2.65   4 2.65
   8  0.250  0.489  0.847-   1 2.63   3 2.65   3 2.65
 
  LATTYP: Found a simple orthorhombic cell.
 ALAT       =     3.9568552100
 B/A-ratio  =     1.1455588970
 C/A-ratio  =     2.8790587235
  
  Lattice vectors:
  
 A1 = (   3.9568552100,   0.0000000000,   0.0000000000)
 A2 = (  -0.0000000000,   4.5328106900,   0.0000000000)
 A3 = (   0.0000000000,   0.0000000000,  11.3920185100)


Analysis of symmetry for initial positions (statically):
=====================================================================
 Subroutine PRICEL returns:
 Original cell was already a primitive cell.
 

 Routine SETGRP: Setting up the symmetry group for a 
 simple orthorhombic supercell.


 Subroutine GETGRP returns: Found  8 space group operations
 (whereof  2 operations were pure point group operations)
 out of a pool of  8 trial point group operations.


The static configuration has the point symmetry S_2 .
 The point group associated with its full space group is D_2h.


Analysis of symmetry for dynamics (positions and initial velocities):
=====================================================================
 Subroutine PRICEL returns:
 Original cell was already a primitive cell.
 

 Routine SETGRP: Setting up the symmetry group for a 
 simple orthorhombic supercell.


 Subroutine GETGRP returns: Found  8 space group operations
 (whereof  2 operations were pure point group operations)
 out of a pool of  8 trial point group operations.


The dynamic configuration has the point symmetry S_2 .
 The point group associated with its full space group is D_2h.


Analysis of structural, dynamic, and magnetic symmetry:
=====================================================================
 Subroutine PRICEL returns:
 Original cell was already a primitive cell.
 

 Routine SETGRP: Setting up the symmetry group for a 
 simple orthorhombic supercell.


 Subroutine GETGRP returns: Found  8 space group operations
 (whereof  2 operations were pure point group operations)
 out of a pool of  8 trial point group operations.


The overall configuration has the point symmetry S_2 .
 The point group associated with its full space group is D_2h.


 Subroutine INISYM returns: Found  8 space group operations
 (whereof  2 operations are pure point group operations),
 and found     1 'primitive' translations


----------------------------------------------------------------------------------------

                                     Primitive cell                                     

  volume of cell :     204.3235

  direct lattice vectors                    reciprocal lattice vectors
     3.956855210  0.000000000  0.000000000     0.252725952  0.000000000  0.000000000
    -0.000000000  4.532810690  0.000000000     0.000000000  0.220613670  0.000000000
     0.000000000  0.000000000 11.392018510    -0.000000000 -0.000000000  0.087780756

  length of vectors
     3.956855210  4.532810690 11.392018510     0.252725952  0.220613670  0.087780756

  position of ions in fractional coordinates (direct lattice)
     0.250000000  0.369539840  0.621632750
     0.750000000  0.630460160  0.378367250
     0.750000000  0.869539840  0.878367250
     0.250000000  0.130460160  0.121632750
     0.250000000  0.010596800  0.347497460
     0.750000000  0.989403200  0.652502540
     0.750000000  0.510596800  0.152502540
     0.250000000  0.489403200  0.847497460

  ion indices of the primitive-cell ions
   primitive index   ion index
                 1           1
                 2           2
                 3           3
                 4           4
                 5           5
                 6           6
                 7           7
                 8           8

----------------------------------------------------------------------------------------

 
 
 KPOINTS: pymatgen with grid density = 622 / numbe

Automatic generation of k-mesh.
 Grid dimensions read from file:
 generate k-points for:    6    5    2

 Generating k-lattice:

  Cartesian coordinates                     Fractional coordinates (reciprocal lattice)
     0.042120992  0.000000000  0.000000000     0.166666667 -0.000000000  0.000000000
     0.000000000  0.044122734  0.000000000     0.000000000  0.200000000  0.000000000
    -0.000000000 -0.000000000  0.043890378     0.000000000 -0.000000000  0.500000000

  Length of vectors
     0.042120992  0.044122734  0.043890378

  Shift w.r.t. Gamma in fractional coordinates (k-lattice)
     0.000000000  0.000000000  0.000000000

 TETIRR: Found    180 inequivalent tetrahedra from      360
 
 Subroutine IBZKPT returns following result:
 ===========================================
 
 Found     24 irreducible k-points:
 
 Following reciprocal coordinates:
            Coordinates               Weight
  0.000000  0.000000  0.000000      1.000000
  0.166667 -0.000000  0.000000      2.000000
  0.333333 -0.000000  0.000000      2.000000
  0.500000 -0.000000  0.000000      1.000000
  0.000000  0.200000  0.000000      2.000000
  0.166667  0.200000  0.000000      4.000000
  0.333333  0.200000  0.000000      4.000000
  0.500000  0.200000  0.000000      2.000000
  0.000000  0.400000  0.000000      2.000000
  0.166667  0.400000  0.000000      4.000000
  0.333333  0.400000  0.000000      4.000000
  0.500000  0.400000  0.000000      2.000000
 -0.000000  0.000000  0.500000      1.000000
  0.166667 -0.000000  0.500000      2.000000
  0.333333 -0.000000  0.500000      2.000000
  0.500000 -0.000000  0.500000      1.000000
 -0.000000  0.200000  0.500000      2.000000
  0.166667  0.200000  0.500000      4.000000
  0.333333  0.200000  0.500000      4.000000
  0.500000  0.200000  0.500000      2.000000
 -0.000000  0.400000  0.500000      2.000000
  0.166667  0.400000  0.500000      4.000000
  0.333333  0.400000  0.500000      4.000000
  0.500000  0.400000  0.500000      2.000000
 
 Following cartesian coordinates:
            Coordinates               Weight
  0.000000  0.000000  0.000000      1.000000
  0.042121  0.000000  0.000000      2.000000
  0.084242  0.000000  0.000000      2.000000
  0.126363  0.000000  0.000000      1.000000
  0.000000  0.044123  0.000000      2.000000
  0.042121  0.044123  0.000000      4.000000
  0.084242  0.044123  0.000000      4.000000
  0.126363  0.044123  0.000000      2.000000
  0.000000  0.088245  0.000000      2.000000
  0.042121  0.088245  0.000000      4.000000
  0.084242  0.088245  0.000000      4.000000
  0.126363  0.088245  0.000000      2.000000
 -0.000000 -0.000000  0.043890      1.000000
  0.042121 -0.000000  0.043890      2.000000
  0.084242  0.000000  0.043890      2.000000
  0.126363  0.000000  0.043890      1.000000
 -0.000000  0.044123  0.043890      2.000000
  0.042121  0.044123  0.043890      4.000000
  0.084242  0.044123  0.043890      4.000000
  0.126363  0.044123  0.043890      2.000000
 -0.000000  0.088245  0.043890      2.000000
  0.042121  0.088245  0.043890      4.000000
  0.084242  0.088245  0.043890      4.000000
  0.126363  0.088245  0.043890      2.000000
 


--------------------------------------------------------------------------------------------------------




 Dimension of arrays:
   k-points           NKPTS =     24   k-points in BZ     NKDIM =     24   number of bands    NBANDS=     60
   number of dos      NEDOS =    301   number of ions     NIONS =      8
   non local maximal  LDIM  =      6   non local SUM 2l+1 LMDIM =     18
   total plane-waves  NPLWV = 141120
   max r-space proj   IRMAX =      1   max aug-charges    IRDMAX=  31040
   dimension x,y,z NGX =    36 NGY =   40 NGZ =   98
   dimension x,y,z NGXF=    72 NGYF=   80 NGZF=  196
   support grid    NGXF=    72 NGYF=   80 NGZF=  196
   ions per type =               4   4
   NGX,Y,Z   is equivalent  to a cutoff of  15.13, 14.67, 14.30 a.u.
   NGXF,Y,Z  is equivalent  to a cutoff of  30.25, 29.34, 28.60 a.u.

 SYSTEM =  unknown system                          
 POSCAR =  Sn4 S4                                  

 Startparameter for this run:
   NWRITE =      2    write-flag & timer
   PREC   = accura    normal or accurate (medium, high low for compatibility)
   ISTART =      0    job   : 0-new  1-cont  2-samecut
   ICHARG =      2    charge: 1-file 2-atom 10-const
   ISPIN  =      2    spin polarized calculation?
   LNONCOLLINEAR =      F non collinear calculations
   LSORBIT =      F    spin-orbit coupling
   INIWAV =      1    electr: 0-lowe 1-rand  2-diag
   LASPH  =      T    aspherical Exc in radial PAW
 Electronic Relaxation 1
   ENCUT  =  680.0 eV  49.98 Ry    7.07 a.u.   8.41  9.64 24.22*2*pi/ulx,y,z
   ENINI  =  680.0     initial cutoff
   ENAUG  = 1360.0 eV  augmentation charge cutoff
   NELM   =    200;   NELMIN=  2; NELMDL= -5     # of ELM steps 
   EDIFF  = 0.1E-04   stopping-criterion for ELM
   LREAL  =      F    real-space projection
   NLSPLINE    = F    spline interpolate recip. space projectors
   LCOMPAT=      F    compatible to vasp.4.4
   GGA_COMPAT  = T    GGA compatible to vasp.4.4-vasp.4.6
   LMAXPAW     = -100 max onsite density
   LMAXMIX     =    4 max onsite mixed and CHGCAR
   VOSKOWN=      0    Vosko Wilk Nusair interpolation
   ROPT   =    0.00000   0.00000
 Ionic relaxation
   EDIFFG = 0.1E-03   stopping-criterion for IOM
   NSW    =      0    number of steps for IOM
   NBLOCK =      1;   KBLOCK =      1    inner block; outer block 
   IBRION =     -1    ionic relax: 0-MD 1-quasi-New 2-CG
   NFREE  =      0    steps in history (QN), initial steepest desc. (CG)
   ISIF   =      2    stress and relaxation
   IWAVPR =     10    prediction:  0-non 1-charg 2-wave 3-comb
   ISYM   =      2    0-nonsym 1-usesym 2-fastsym
   LCORR  =      T    Harris-Foulkes like correction to forces

   POTIM  = 0.5000    time-step for ionic-motion
   TEIN   =    0.0    initial temperature
   TEBEG  =    0.0;   TEEND  =   0.0 temperature during run
   SMASS  =  -3.00    Nose mass-parameter (am)
   estimated Nose-frequenzy (Omega)   =  0.10E-29 period in steps = 0.13E+47 mass=  -0.358E-27a.u.
   SCALEE = 1.0000    scale energy and forces
   NPACO  =    256;   APACO  = 10.0  distance and # of slots for P.C.
   PSTRESS=    0.0 pullay stress

  Mass of Ions in am
   POMASS = 118.71 32.07
  Ionic Valenz
   ZVAL   =  14.00  6.00
  Atomic Wigner-Seitz radii
   RWIGS  =  -1.00 -1.00
  virtual crystal weights 
   VCA    =   1.00  1.00
   NELECT =      80.0000    total number of electrons
   NUPDOWN=      -1.0000    fix difference up-down

 DOS related values:
   EMIN   =  10.00;   EMAX   =-10.00  energy-range for DOS
   EFERMI =   0.00;   METHOD = LEGACY      
   ISMEAR =    -5;   SIGMA  =   0.20  broadening in eV -4-tet -1-fermi 0-gaus

 Electronic relaxation 2 (details)
   IALGO  =     68    algorithm
   LDIAG  =      T    sub-space diagonalisation (order eigenvalues)
   LSUBROT=      F    optimize rotation matrix (better conditioning)
   TURBO    =      0    0=normal 1=particle mesh
   IRESTART =      0    0=no restart 2=restart with 2 vectors
   NREBOOT  =      0    no. of reboots
   NMIN     =      0    reboot dimension
   EREF     =   0.00    reference energy to select bands
   IMIX   =      4    mixing-type and parameters
     AMIX     =   0.40;   BMIX     =  1.00
     AMIX_MAG =   1.60;   BMIX_MAG =  1.00
     AMIN     =   0.10
     WC   =   100.;   INIMIX=   1;  MIXPRE=   1;  MAXMIX= -45

 Intra band minimization:
   WEIMIN = 0.0000     energy-eigenvalue tresh-hold
   EBREAK =  0.42E-07  absolut break condition
   DEPER  =   0.30     relativ break condition  

   TIME   =   0.40     timestep for ELM

  volume/ion in A,a.u.               =      25.54       172.36
  Fermi-wavevector in a.u.,A,eV,Ry     =   1.197656  2.263241 19.515916  1.434379
  Thomas-Fermi vector in A             =   2.333565
 
 Write flags
   LWAVE        =      T    write WAVECAR
   LDOWNSAMPLE  =      F    k-point downsampling of WAVECAR
   LCHARG       =      T    write CHGCAR
   LVTOT        =      T    write LOCPOT, total local potential
   LVHAR        =      F    write LOCPOT, Hartree potential only
   LELF         =      F    write electronic localiz. function (ELF)
   LORBIT       =     11    0 simple, 1 ext, 2 COOP (PROOUT), +10 PAW based schemes


 Dipole corrections
   LMONO  =      F    monopole corrections only (constant potential shift)
   LDIPOL =      F    correct potential (dipole corrections)
   IDIPOL =      0    1-x, 2-y, 3-z, 4-all directions 
   EPSILON=  1.0000000 bulk dielectric constant

 Exchange correlation treatment:
   GGA     =    PS    GGA type
   LEXCH   =    14    internal setting for exchange type
   LIBXC   =     F    Libxc                    
   VOSKOWN =     0    Vosko Wilk Nusair interpolation
   LHFCALC =     F    Hartree Fock is set to
   LHFONE  =     F    Hartree Fock one center treatment
   AEXX    =    0.0000 exact exchange contribution

 Linear response parameters
   LEPSILON=     F    determine dielectric tensor
   LRPA    =     F    only Hartree local field effects (RPA)
   LNABLA  =     F    use nabla operator in PAW spheres
   LVEL    =     F    velocity operator in full k-point grid
   CSHIFT  =0.1000    complex shift for real part using Kramers Kronig
   OMEGAMAX=  -1.0    maximum frequency
   DEG_THRESHOLD= 0.2000000E-02 threshold for treating states as degnerate
   RTIME   =   -0.100 relaxation time in fs
  (WPLASMAI=    0.000 imaginary part of plasma frequency in eV, 0.658/RTIME)
   DFIELD  = 0.0000000 0.0000000 0.0000000 field for delta impulse in time
 
  Optional k-point grid parameters
   LKPOINTS_OPT  =     F    use optional k-point grid
   KPOINTS_OPT_MODE=     1    mode for optional k-point grid
 
 Orbital magnetization related:
   ORBITALMAG=     F  switch on orbital magnetization
   LCHIMAG   =     F  perturbation theory with respect to B field
   DQ        =  0.001000  dq finite difference perturbation B field
   LLRAUG    =     F  two centre corrections for induced B field
   LBONE     =     F  B-component reconstruction in AE one-centre
   LVGVCALC  =     T  calculate vGv susceptibility
   LVGVAPPL  =     F  apply vGv susceptibility instead of pGv for G=0

 Random number generation:
   RANDOM_GENERATOR = DEFAULT
   PCG_SEED         = not used


--------------------------------------------------------------------------------------------------------


 Static calculation
 charge density and potential will be updated during run
 spin polarized calculation
 RMM-DIIS sequential band-by-band and
  variant of blocked Davidson during initial phase
 perform sub-space diagonalisation
    before iterative eigenvector-optimisation
 modified Broyden-mixing scheme, WC =      100.0
 initial mixing is a Kerker type mixing with AMIX =  0.4000 and BMIX =      1.0000
 Hartree-type preconditioning will be used
 using additional bands           20
 reciprocal scheme for non local part
 use partial core corrections
 calculate Harris-corrections to forces 
   (improved forces if not selfconsistent)
 use gradient corrections 
 use of overlap-Matrix (Vanderbilt PP)
 Fermi weights with tetrahedron method with Bloechl corrections


--------------------------------------------------------------------------------------------------------


  energy-cutoff  :      680.00
  volume of cell :      204.32
      direct lattice vectors                 reciprocal lattice vectors
     3.956855210  0.000000000  0.000000000     0.252725952  0.000000000  0.000000000
    -0.000000000  4.532810690  0.000000000     0.000000000  0.220613670  0.000000000
     0.000000000  0.000000000 11.392018510    -0.000000000 -0.000000000  0.087780756

  length of vectors
     3.956855210  4.532810690 11.392018510     0.252725952  0.220613670  0.087780756


 
 k-points in units of 2pi/SCALE and weight: pymatgen with grid density = 622 / numbe
   0.00000000  0.00000000  0.00000000       0.017
   0.04212099  0.00000000  0.00000000       0.033
   0.08424198  0.00000000  0.00000000       0.033
   0.12636298  0.00000000  0.00000000       0.017
   0.00000000  0.04412273  0.00000000       0.033
   0.04212099  0.04412273  0.00000000       0.067
   0.08424198  0.04412273  0.00000000       0.067
   0.12636298  0.04412273  0.00000000       0.033
   0.00000000  0.08824547  0.00000000       0.033
   0.04212099  0.08824547  0.00000000       0.067
   0.08424198  0.08824547  0.00000000       0.067
   0.12636298  0.08824547  0.00000000       0.033
  -0.00000000 -0.00000000  0.04389038       0.017
   0.04212099 -0.00000000  0.04389038       0.033
   0.08424198  0.00000000  0.04389038       0.033
   0.12636298  0.00000000  0.04389038       0.017
  -0.00000000  0.04412273  0.04389038       0.033
   0.04212099  0.04412273  0.04389038       0.067
   0.08424198  0.04412273  0.04389038       0.067
   0.12636298  0.04412273  0.04389038       0.033
  -0.00000000  0.08824547  0.04389038       0.033
   0.04212099  0.08824547  0.04389038       0.067
   0.08424198  0.08824547  0.04389038       0.067
   0.12636298  0.08824547  0.04389038       0.033
 
 k-points in reciprocal lattice and weights: pymatgen with grid density = 622 / numbe
   0.00000000  0.00000000  0.00000000       0.017
   0.16666667 -0.00000000  0.00000000       0.033
   0.33333333 -0.00000000  0.00000000       0.033
   0.50000000 -0.00000000  0.00000000       0.017
   0.00000000  0.20000000  0.00000000       0.033
   0.16666667  0.20000000  0.00000000       0.067
   0.33333333  0.20000000  0.00000000       0.067
   0.50000000  0.20000000  0.00000000       0.033
   0.00000000  0.40000000  0.00000000       0.033
   0.16666667  0.40000000  0.00000000       0.067
   0.33333333  0.40000000  0.00000000       0.067
   0.50000000  0.40000000  0.00000000       0.033
  -0.00000000  0.00000000  0.50000000       0.017
   0.16666667 -0.00000000  0.50000000       0.033
   0.33333333 -0.00000000  0.50000000       0.033
   0.50000000 -0.00000000  0.50000000       0.017
  -0.00000000  0.20000000  0.50000000       0.033
   0.16666667  0.20000000  0.50000000       0.067
   0.33333333  0.20000000  0.50000000       0.067
   0.50000000  0.20000000  0.50000000       0.033
  -0.00000000  0.40000000  0.50000000       0.033
   0.16666667  0.40000000  0.50000000       0.067
   0.33333333  0.40000000  0.50000000       0.067
   0.50000000  0.40000000  0.50000000       0.033
 
 position of ions in fractional coordinates (direct lattice) 
   0.25000000  0.36953984  0.62163275
   0.75000000  0.63046016  0.37836725
   0.75000000  0.86953984  0.87836725
   0.25000000  0.13046016  0.12163275
   0.25000000  0.01059680  0.34749746
   0.75000000  0.98940320  0.65250254
   0.75000000  0.51059680  0.15250254
   0.25000000  0.48940320  0.84749746
 
 position of ions in cartesian coordinates  (Angst):
   0.98921380  1.67505414  7.08165179
   2.96764141  2.85775655  4.31036672
   2.96764141  3.94145948 10.00637597
   0.98921380  0.59135121  1.38564254
   0.98921380  0.04803329  3.95869750
   2.96764141  4.48477740  7.43332101
   2.96764141  2.31443863  1.73731176
   0.98921380  2.21837206  9.65470675
 


--------------------------------------------------------------------------------------------------------


 k-point   1 :   0.0000 0.0000 0.0000  plane waves:    8239
 k-point   2 :   0.1667-0.0000 0.0000  plane waves:    8229
 k-point   3 :   0.3333-0.0000 0.0000  plane waves:    8217
 k-point   4 :   0.5000-0.0000 0.0000  plane waves:    8228
 k-point   5 :   0.0000 0.2000 0.0000  plane waves:    8257
 k-point   6 :   0.1667 0.2000 0.0000  plane waves:    8238
 k-point   7 :   0.3333 0.2000 0.0000  plane waves:    8215
 k-point   8 :   0.5000 0.2000 0.0000  plane waves:    8200
 k-point   9 :   0.0000 0.4000 0.0000  plane waves:    8226
 k-point  10 :   0.1667 0.4000 0.0000  plane waves:    8214
 k-point  11 :   0.3333 0.4000 0.0000  plane waves:    8207
 k-point  12 :   0.5000 0.4000 0.0000  plane waves:    8218
 k-point  13 :  -0.0000 0.0000 0.5000  plane waves:    8220
 k-point  14 :   0.1667-0.0000 0.5000  plane waves:    8234
 k-point  15 :   0.3333-0.0000 0.5000  plane waves:    8252
 k-point  16 :   0.5000-0.0000 0.5000  plane waves:    8252
 k-point  17 :  -0.0000 0.2000 0.5000  plane waves:    8228
 k-point  18 :   0.1667 0.2000 0.5000  plane waves:    8246
 k-point  19 :   0.3333 0.2000 0.5000  plane waves:    8232
 k-point  20 :   0.5000 0.2000 0.5000  plane waves:    8220
 k-point  21 :  -0.0000 0.4000 0.5000  plane waves:    8218
 k-point  22 :   0.1667 0.4000 0.5000  plane waves:    8232
 k-point  23 :   0.3333 0.4000 0.5000  plane waves:    8208
 k-point  24 :   0.5000 0.4000 0.5000  plane waves:    8180

 maximum and minimum number of plane-waves per node :       852      798

 maximum number of plane-waves:      8257
 maximum index in each direction: 
   IXMAX=    8   IYMAX=    9   IZMAX=   24
   IXMIN=   -8   IYMIN=  -10   IZMIN=  -24


 parallel 3D FFT for wavefunctions:
    minimum data exchange during FFTs selected (reduces bandwidth)
 parallel 3D FFT for charge:
    minimum data exchange during FFTs selected (reduces bandwidth)


 total amount of memory used by VASP MPI-rank0    42637. kBytes
=======================================================================

   base      :      30000. kBytes
   nonl-proj :       5829. kBytes
   fftplans  :        982. kBytes
   grid      :       2524. kBytes
   one-center:         31. kBytes
   wavefun   :       3271. kBytes
 
     INWAV:  cpu time      0.0001: real time      0.0006
 Broyden mixing: mesh for mixing (old mesh)
   NGX = 17   NGY = 19   NGZ = 49
  (NGX  = 72   NGY  = 80   NGZ  =196)
  gives a total of  15827 points

 initial charge density was supplied:
 charge density of overlapping atoms calculated
 number of electron      80.0000000 magnetization       4.8000000
 keeping initial charge density in first step


--------------------------------------------------------------------------------------------------------


 Maximum index for augmentation-charges          196 (set IRDMAX)


--------------------------------------------------------------------------------------------------------


 First call to EWALD:  gamma=   0.301
 Maximum number of real-space cells 4x 3x 2
 Maximum number of reciprocal cells 2x 2x 5

    FEWALD:  cpu time      0.0028: real time      0.0028


--------------------------------------- Ionic step        1  -------------------------------------------




--------------------------------------- Iteration      1(   1)  ---------------------------------------


    POTLOK:  cpu time      0.0423: real time      0.0447
    SETDIJ:  cpu time      0.3993: real time      0.4011
     EDDAV:  cpu time      1.2717: real time      1.2807
 BZINTS: Fermi energy:   20.854121;   80.000000 electrons
         Band energy: 0.339647E+03;  BLOECHL correction:   -0.249849
       DOS:  cpu time      0.0351: real time      0.0354
    --------------------------------------------
      LOOP:  cpu time      1.7484: real time      1.7619

 eigenvalue-minimisations  :  6456
 total energy-change (2. order) : 0.9095299E+03  (-0.4256715E+04)
 number of electron      80.0000000 magnetization       4.8000000
 augmentation part       80.0000000 magnetization       4.8000000

 Free energy of the ion-electron system (eV)
  ---------------------------------------------------
  alpha Z        PSCENC =       164.67690988
  Ewald energy   TEWEN  =     -6009.93810534
  -Hartree energ DENC   =     -2402.51146919
  -exchange      EXHF   =         0.00000000
  -V(xc)+E(xc)   XCENC  =       279.79591381
  PAW double counting   =      7141.40693579    -7278.34521145
  entropy T*S    EENTRO =         0.00000000
  eigenvalues    EBANDS =       339.64725899
  atomic energy  EATOM  =      8674.79762248
  Solvation  Ediel_sol  =         0.00000000
  ---------------------------------------------------
  free energy    TOTEN  =       909.52985498 eV

  energy without entropy =      909.52985498  energy(sigma->0) =      909.52985498


--------------------------------------------------------------------------------------------------------




--------------------------------------- Iteration      1(   2)  ---------------------------------------


     EDDAV:  cpu time      1.1087: real time      1.1149
 BZINTS: Fermi energy:    8.592267;   80.000000 electrons
         Band energy:-0.455566E+03;  BLOECHL correction:   -0.057994
       DOS:  cpu time      0.0308: real time      0.0310
    --------------------------------------------
      LOOP:  cpu time      1.1395: real time      1.1459

 eigenvalue-minimisations  :  5760
 total energy-change (2. order) :-0.7952132E+03  (-0.7590972E+03)
 number of electron      80.0000000 magnetization       4.8000000
 augmentation part       80.0000000 magnetization       4.8000000

 Free energy of the ion-electron system (eV)
  ---------------------------------------------------
  alpha Z        PSCENC =       164.67690988
  Ewald energy   TEWEN  =     -6009.93810534
  -Hartree energ DENC   =     -2402.51146919
  -exchange      EXHF   =         0.00000000
  -V(xc)+E(xc)   XCENC  =       279.79591381
  PAW double counting   =      7141.40693579    -7278.34521145
  entropy T*S    EENTRO =         0.00000000
  eigenvalues    EBANDS =      -455.56594516
  atomic energy  EATOM  =      8674.79762248
  Solvation  Ediel_sol  =         0.00000000
  ---------------------------------------------------
  free energy    TOTEN  =       114.31665083 eV

  energy without entropy =      114.31665083  energy(sigma->0) =      114.31665083


--------------------------------------------------------------------------------------------------------




--------------------------------------- Iteration      1(   3)  ---------------------------------------


     EDDAV:  cpu time      1.2260: real time      1.2429
 BZINTS: Fermi energy:    5.526419;   80.000000 electrons
         Band energy:-0.599420E+03;  BLOECHL correction:    0.000000
       DOS:  cpu time      0.0107: real time      0.0107
    --------------------------------------------
      LOOP:  cpu time      1.2368: real time      1.2536

 eigenvalue-minimisations  :  6696
 total energy-change (2. order) :-0.1438540E+03  (-0.1403312E+03)
 number of electron      80.0000000 magnetization       4.8000000
 augmentation part       80.0000000 magnetization       4.8000000

 Free energy of the ion-electron system (eV)
  ---------------------------------------------------
  alpha Z        PSCENC =       164.67690988
  Ewald energy   TEWEN  =     -6009.93810534
  -Hartree energ DENC   =     -2402.51146919
  -exchange      EXHF   =         0.00000000
  -V(xc)+E(xc)   XCENC  =       279.79591381
  PAW double counting   =      7141.40693579    -7278.34521145
  entropy T*S    EENTRO =         0.00000000
  eigenvalues    EBANDS =      -599.41995807
  atomic energy  EATOM  =      8674.79762248
  Solvation  Ediel_sol  =         0.00000000
  ---------------------------------------------------
  free energy    TOTEN  =       -29.53736208 eV

  energy without entropy =      -29.53736208  energy(sigma->0) =      -29.53736208


--------------------------------------------------------------------------------------------------------




--------------------------------------- Iteration      1(   4)  ---------------------------------------


     EDDAV:  cpu time      1.3180: real time      1.3353
 BZINTS: Fermi energy:    5.217402;   80.000000 electrons
         Band energy:-0.608495E+03;  BLOECHL correction:    0.000000
       DOS:  cpu time      0.0106: real time      0.0108
    --------------------------------------------
      LOOP:  cpu time      1.3285: real time      1.3461

 eigenvalue-minimisations  :  6984
 total energy-change (2. order) :-0.9075397E+01  (-0.9026244E+01)
 number of electron      80.0000000 magnetization       4.8000000
 augmentation part       80.0000000 magnetization       4.8000000

 Free energy of the ion-electron system (eV)
  ---------------------------------------------------
  alpha Z        PSCENC =       164.67690988
  Ewald energy   TEWEN  =     -6009.93810534
  -Hartree energ DENC   =     -2402.51146919
  -exchange      EXHF   =         0.00000000
  -V(xc)+E(xc)   XCENC  =       279.79591381
  PAW double counting   =      7141.40693579    -7278.34521145
  entropy T*S    EENTRO =         0.00000000
  eigenvalues    EBANDS =      -608.49535556
  atomic energy  EATOM  =      8674.79762248
  Solvation  Ediel_sol  =         0.00000000
  ---------------------------------------------------
  free energy    TOTEN  =       -38.61275957 eV

  energy without entropy =      -38.61275957  energy(sigma->0) =      -38.61275957


--------------------------------------------------------------------------------------------------------




--------------------------------------- Iteration      1(   5)  ---------------------------------------


     EDDAV:  cpu time      1.3528: real time      1.3671
 BZINTS: Fermi energy:    5.269597;   80.000000 electrons
         Band energy:-0.608768E+03;  BLOECHL correction:    0.000000
       DOS:  cpu time      0.0116: real time      0.0118
    CHARGE:  cpu time      0.0718: real time      0.0720
    MIXING:  cpu time      0.0060: real time      0.0062
    --------------------------------------------
      LOOP:  cpu time      1.4422: real time      1.4571

 eigenvalue-minimisations  :  7044
 total energy-change (2. order) :-0.2723751E+00  (-0.2723214E+00)
 number of electron      79.9999987 magnetization       3.0086700
 augmentation part       25.7580866 magnetization       3.0015871

 Broyden mixing:
  rms(total) = 0.13059E+01    rms(broyden)= 0.13059E+01
  rms(prec ) = 0.13998E+01
  weight for this iteration     100.00

 Free energy of the ion-electron system (eV)
  ---------------------------------------------------
  alpha Z        PSCENC =       164.67690988
  Ewald energy   TEWEN  =     -6009.93810534
  -Hartree energ DENC   =     -2402.51146919
  -exchange      EXHF   =         0.00000000
  -V(xc)+E(xc)   XCENC  =       279.79591381
  PAW double counting   =      7141.40693579    -7278.34521145
  entropy T*S    EENTRO =         0.00000000
  eigenvalues    EBANDS =      -608.76773067
  atomic energy  EATOM  =      8674.79762248
  Solvation  Ediel_sol  =         0.00000000
  ---------------------------------------------------
  free energy    TOTEN  =       -38.88513468 eV

  energy without entropy =      -38.88513468  energy(sigma->0) =      -38.88513468


--------------------------------------------------------------------------------------------------------




--------------------------------------- Iteration      1(   6)  ---------------------------------------


    POTLOK:  cpu time      0.0287: real time      0.0361
    SETDIJ:  cpu time      0.3940: real time      0.3949
    EDDIAG:  cpu time      0.3998: real time      0.4011
  RMM-DIIS:  cpu time      0.4946: real time      0.4961
    ORTHCH:  cpu time      0.0524: real time      0.0525
 BZINTS: Fermi energy:    5.438366;   80.000000 electrons
         Band energy:-0.617978E+03;  BLOECHL correction:    0.000000
       DOS:  cpu time      0.0122: real time      0.0123
    CHARGE:  cpu time      0.0546: real time      0.0547
    MIXING:  cpu time      0.0015: real time      0.0015
    --------------------------------------------
      LOOP:  cpu time      1.4378: real time      1.4491

 eigenvalue-minimisations  :  7210
 total energy-change (2. order) : 0.1105852E+01  (-0.2019884E+00)
 number of electron      79.9999987 magnetization       1.6997046
 augmentation part       25.8537389 magnetization       1.7247844

 Broyden mixing:
  rms(total) = 0.76935E+00    rms(broyden)= 0.76935E+00
  rms(prec ) = 0.78576E+00
  weight for this iteration     100.00

 eigenvalues of (default mixing * dielectric matrix)
  average eigenvalue GAMMA=   0.8825
  0.8825

 Free energy of the ion-electron system (eV)
  ---------------------------------------------------
  alpha Z        PSCENC =       164.67690988
  Ewald energy   TEWEN  =     -6009.93810534
  -Hartree energ DENC   =     -2395.66755776
  -exchange      EXHF   =         0.00000000
  -V(xc)+E(xc)   XCENC  =       280.35432385
  PAW double counting   =      7790.80342944    -7924.82785921
  entropy T*S    EENTRO =         0.00000000
  eigenvalues    EBANDS =      -617.97804650
  atomic energy  EATOM  =      8674.79762248
  Solvation  Ediel_sol  =         0.00000000
  ---------------------------------------------------
  free energy    TOTEN  =       -37.77928316 eV

  energy without entropy =      -37.77928316  energy(sigma->0) =      -37.77928316


--------------------------------------------------------------------------------------------------------




--------------------------------------- Iteration      1(   7)  ---------------------------------------


    POTLOK:  cpu time      0.0234: real time      0.0361
    SETDIJ:  cpu time      0.3923: real time      0.3932
    EDDIAG:  cpu time      0.3938: real time      0.3949
  RMM-DIIS:  cpu time      0.5181: real time      0.5194
    ORTHCH:  cpu time      0.0526: real time      0.0528
 BZINTS: Fermi energy:    5.339267;   80.000000 electrons
         Band energy:-0.619761E+03;  BLOECHL correction:    0.000000
       DOS:  cpu time      0.0116: real time      0.0116
    CHARGE:  cpu time      0.0547: real time      0.0548
    MIXING:  cpu time      0.0008: real time      0.0008
    --------------------------------------------
      LOOP:  cpu time      1.4474: real time      1.4637

 eigenvalue-minimisations  :  7578
 total energy-change (2. order) :-0.3016617E+00  (-0.4943195E-01)
 number of electron      79.9999987 magnetization       0.4385507
 augmentation part       25.8594532 magnetization       0.4816178

 Broyden mixing:
  rms(total) = 0.45201E+00    rms(broyden)= 0.45201E+00
  rms(prec ) = 0.45830E+00
  weight for this iteration     100.00

 eigenvalues of (default mixing * dielectric matrix)
  average eigenvalue GAMMA=   1.4046
  0.7348  2.0744

 Free energy of the ion-electron system (eV)
  ---------------------------------------------------
  alpha Z        PSCENC =       164.67690988
  Ewald energy   TEWEN  =     -6009.93810534
  -Hartree energ DENC   =     -2393.55892947
  -exchange      EXHF   =         0.00000000
  -V(xc)+E(xc)   XCENC  =       280.41214998
  PAW double counting   =      8383.64726376    -8518.35641269
  entropy T*S    EENTRO =         0.00000000
  eigenvalues    EBANDS =      -619.76144347
  atomic energy  EATOM  =      8674.79762248
  Solvation  Ediel_sol  =         0.00000000
  ---------------------------------------------------
  free energy    TOTEN  =       -38.08094487 eV

  energy without entropy =      -38.08094487  energy(sigma->0) =      -38.08094487


--------------------------------------------------------------------------------------------------------




--------------------------------------- Iteration      1(   8)  ---------------------------------------


    POTLOK:  cpu time      0.0240: real time      0.0375
    SETDIJ:  cpu time      0.3910: real time      0.3920
    EDDIAG:  cpu time      0.4018: real time      0.4028
  RMM-DIIS:  cpu time      0.5361: real time      0.5376
    ORTHCH:  cpu time      0.0525: real time      0.0526
 BZINTS: Fermi energy:    5.385917;   80.000000 electrons
         Band energy:-0.620220E+03;  BLOECHL correction:    0.000000
       DOS:  cpu time      0.0112: real time      0.0112
    CHARGE:  cpu time      0.0500: real time      0.0501
    MIXING:  cpu time      0.0005: real time      0.0005
    --------------------------------------------
      LOOP:  cpu time      1.4670: real time      1.4844

 eigenvalue-minimisations  :  8047
 total energy-change (2. order) :-0.1310649E+00  (-0.2066064E-01)
 number of electron      79.9999987 magnetization       0.1137882
 augmentation part       25.8508301 magnetization       0.1204119

 Broyden mixing:
  rms(total) = 0.11351E+00    rms(broyden)= 0.11351E+00
  rms(prec ) = 0.11775E+00
  weight for this iteration     100.00

 eigenvalues of (default mixing * dielectric matrix)
  average eigenvalue GAMMA=   1.3897
  2.4880  0.9768  0.7045

 Free energy of the ion-electron system (eV)
  ---------------------------------------------------
  alpha Z        PSCENC =       164.67690988
  Ewald energy   TEWEN  =     -6009.93810534
  -Hartree energ DENC   =     -2391.76898392
  -exchange      EXHF   =         0.00000000
  -V(xc)+E(xc)   XCENC  =       280.42693567
  PAW double counting   =      9019.43542519    -9155.62196288
  entropy T*S    EENTRO =         0.00000000
  eigenvalues    EBANDS =      -620.21985087
  atomic energy  EATOM  =      8674.79762248
  Solvation  Ediel_sol  =         0.00000000
  ---------------------------------------------------
  free energy    TOTEN  =       -38.21200979 eV

  energy without entropy =      -38.21200979  energy(sigma->0) =      -38.21200979


--------------------------------------------------------------------------------------------------------




--------------------------------------- Iteration      1(   9)  ---------------------------------------


    POTLOK:  cpu time      0.0232: real time      0.0394
    SETDIJ:  cpu time      0.3924: real time      0.3934
    EDDIAG:  cpu time      0.3774: real time      0.3786
  RMM-DIIS:  cpu time      0.5061: real time      0.5073
    ORTHCH:  cpu time      0.0491: real time      0.0492
 BZINTS: Fermi energy:    5.376895;   80.000000 electrons
         Band energy:-0.619829E+03;  BLOECHL correction:    0.000000
       DOS:  cpu time      0.0105: real time      0.0106
    CHARGE:  cpu time      0.0510: real time      0.0512
    MIXING:  cpu time      0.0006: real time      0.0006
    --------------------------------------------
      LOOP:  cpu time      1.4103: real time      1.4301

 eigenvalue-minimisations  :  8344
 total energy-change (2. order) :-0.5566278E-02  (-0.3259953E-02)
 number of electron      79.9999987 magnetization       0.0981366
 augmentation part       25.8375721 magnetization       0.1030891

 Broyden mixing:
  rms(total) = 0.40217E-01    rms(broyden)= 0.40217E-01
  rms(prec ) = 0.41325E-01
  weight for this iteration     100.00

 eigenvalues of (default mixing * dielectric matrix)
  average eigenvalue GAMMA=   1.2526
  2.3848  1.1924  0.7657  0.6673

 Free energy of the ion-electron system (eV)
  ---------------------------------------------------
  alpha Z        PSCENC =       164.67690988
  Ewald energy   TEWEN  =     -6009.93810534
  -Hartree energ DENC   =     -2391.48261905
  -exchange      EXHF   =         0.00000000
  -V(xc)+E(xc)   XCENC  =       280.39094346
  PAW double counting   =      9170.82958170    -9307.66329028
  entropy T*S    EENTRO =         0.00000000
  eigenvalues    EBANDS =      -619.82861892
  atomic energy  EATOM  =      8674.79762248
  Solvation  Ediel_sol  =         0.00000000
  ---------------------------------------------------
  free energy    TOTEN  =       -38.21757607 eV

  energy without entropy =      -38.21757607  energy(sigma->0) =      -38.21757607


--------------------------------------------------------------------------------------------------------




--------------------------------------- Iteration      1(  10)  ---------------------------------------


    POTLOK:  cpu time      0.0249: real time      0.0397
    SETDIJ:  cpu time      0.3911: real time      0.3921
    EDDIAG:  cpu time      0.3602: real time      0.3611
  RMM-DIIS:  cpu time      0.5534: real time      0.5549
    ORTHCH:  cpu time      0.0514: real time      0.0515
 BZINTS: Fermi energy:    5.379074;   80.000000 electrons
         Band energy:-0.619833E+03;  BLOECHL correction:    0.000000
       DOS:  cpu time      0.0105: real time      0.0105
    CHARGE:  cpu time      0.0514: real time      0.0516
    MIXING:  cpu time      0.0006: real time      0.0006
    --------------------------------------------
      LOOP:  cpu time      1.4434: real time      1.4619

 eigenvalue-minimisations  :  8767
 total energy-change (2. order) : 0.1881845E-03  (-0.8555238E-03)
 number of electron      79.9999987 magnetization       0.0939032
 augmentation part       25.8353017 magnetization       0.0974847

 Broyden mixing:
  rms(total) = 0.29045E-01    rms(broyden)= 0.29045E-01
  rms(prec ) = 0.29666E-01
  weight for this iteration     100.00

 eigenvalues of (default mixing * dielectric matrix)
  average eigenvalue GAMMA=   1.2646
  1.9694  1.9694  0.9609  0.7625  0.6608

 Free energy of the ion-electron system (eV)
  ---------------------------------------------------
  alpha Z        PSCENC =       164.67690988
  Ewald energy   TEWEN  =     -6009.93810534
  -Hartree energ DENC   =     -2391.47929892
  -exchange      EXHF   =         0.00000000
  -V(xc)+E(xc)   XCENC  =       280.38822712
  PAW double counting   =      9155.89912669    -9292.72868327
  entropy T*S    EENTRO =         0.00000000
  eigenvalues    EBANDS =      -619.83318653
  atomic energy  EATOM  =      8674.79762248
  Solvation  Ediel_sol  =         0.00000000
  ---------------------------------------------------
  free energy    TOTEN  =       -38.21738789 eV

  energy without entropy =      -38.21738789  energy(sigma->0) =      -38.21738789


--------------------------------------------------------------------------------------------------------




--------------------------------------- Iteration      1(  11)  ---------------------------------------


    POTLOK:  cpu time      0.0236: real time      0.0398
    SETDIJ:  cpu time      0.3915: real time      0.3924
    EDDIAG:  cpu time      0.3596: real time      0.3606
  RMM-DIIS:  cpu time      0.5366: real time      0.5379
    ORTHCH:  cpu time      0.0516: real time      0.0517
 BZINTS: Fermi energy:    5.379605;   80.000000 electrons
         Band energy:-0.619762E+03;  BLOECHL correction:    0.000000
       DOS:  cpu time      0.0106: real time      0.0106
    CHARGE:  cpu time      0.0498: real time      0.0499
    MIXING:  cpu time      0.0005: real time      0.0005
    --------------------------------------------
      LOOP:  cpu time      1.4238: real time      1.4435

 eigenvalue-minimisations  :  8744
 total energy-change (2. order) :-0.2500159E-03  (-0.1963706E-03)
 number of electron      79.9999987 magnetization       0.0326193
 augmentation part       25.8339151 magnetization       0.0336316

 Broyden mixing:
  rms(total) = 0.14233E-01    rms(broyden)= 0.14233E-01
  rms(prec ) = 0.14722E-01
  weight for this iteration     100.00

 eigenvalues of (default mixing * dielectric matrix)
  average eigenvalue GAMMA=   1.3549
  2.4009  2.4009  1.0978  0.8062  0.7765  0.6468

 Free energy of the ion-electron system (eV)
  ---------------------------------------------------
  alpha Z        PSCENC =       164.67690988
  Ewald energy   TEWEN  =     -6009.93810534
  -Hartree energ DENC   =     -2391.57941473
  -exchange      EXHF   =         0.00000000
  -V(xc)+E(xc)   XCENC  =       280.39060298
  PAW double counting   =      9118.10813586    -9254.91147787
  entropy T*S    EENTRO =         0.00000000
  eigenvalues    EBANDS =      -619.76191116
  atomic energy  EATOM  =      8674.79762248
  Solvation  Ediel_sol  =         0.00000000
  ---------------------------------------------------
  free energy    TOTEN  =       -38.21763790 eV

  energy without entropy =      -38.21763790  energy(sigma->0) =      -38.21763790


--------------------------------------------------------------------------------------------------------




--------------------------------------- Iteration      1(  12)  ---------------------------------------


    POTLOK:  cpu time      0.0222: real time      0.0371
    SETDIJ:  cpu time      0.3913: real time      0.3924
    EDDIAG:  cpu time      0.3607: real time      0.3615
  RMM-DIIS:  cpu time      0.4923: real time      0.4936
    ORTHCH:  cpu time      0.0521: real time      0.0522
 BZINTS: Fermi energy:    5.292710;   80.000000 electrons
         Band energy:-0.619721E+03;  BLOECHL correction:    0.000000
       DOS:  cpu time      0.0104: real time      0.0105
    CHARGE:  cpu time      0.0492: real time      0.0494
    MIXING:  cpu time      0.0006: real time      0.0006
    --------------------------------------------
      LOOP:  cpu time      1.3788: real time      1.3972

 eigenvalue-minimisations  :  7935
 total energy-change (2. order) :-0.4772483E-03  (-0.8110428E-04)
 number of electron      79.9999987 magnetization       0.0060232
 augmentation part       25.8327091 magnetization       0.0072947

 Broyden mixing:
  rms(total) = 0.52956E-02    rms(broyden)= 0.52956E-02
  rms(prec ) = 0.56692E-02
  weight for this iteration     100.00

 eigenvalues of (default mixing * dielectric matrix)
  average eigenvalue GAMMA=   1.3637
  2.5530  2.5530  1.3345  1.0038  0.7417  0.7417  0.6186

 Free energy of the ion-electron system (eV)
  ---------------------------------------------------
  alpha Z        PSCENC =       164.67690988
  Ewald energy   TEWEN  =     -6009.93810534
  -Hartree energ DENC   =     -2391.57183270
  -exchange      EXHF   =         0.00000000
  -V(xc)+E(xc)   XCENC  =       280.39339265
  PAW double counting   =      9115.35429399    -9252.20905305
  entropy T*S    EENTRO =         0.00000000
  eigenvalues    EBANDS =      -619.72134306
  atomic energy  EATOM  =      8674.79762248
  Solvation  Ediel_sol  =         0.00000000
  ---------------------------------------------------
  free energy    TOTEN  =       -38.21811515 eV

  energy without entropy =      -38.21811515  energy(sigma->0) =      -38.21811515


--------------------------------------------------------------------------------------------------------




--------------------------------------- Iteration      1(  13)  ---------------------------------------


    POTLOK:  cpu time      0.0223: real time      0.0380
    SETDIJ:  cpu time      0.3917: real time      0.3926
    EDDIAG:  cpu time      0.3598: real time      0.3608
  RMM-DIIS:  cpu time      0.5308: real time      0.5320
    ORTHCH:  cpu time      0.0519: real time      0.0521
 BZINTS: Fermi energy:    5.293398;   80.000000 electrons
         Band energy:-0.619709E+03;  BLOECHL correction:    0.000000
       DOS:  cpu time      0.0105: real time      0.0106
    CHARGE:  cpu time      0.0492: real time      0.0493
    MIXING:  cpu time      0.0006: real time      0.0006
    --------------------------------------------
      LOOP:  cpu time      1.4169: real time      1.4360

 eigenvalue-minimisations  :  8117
 total energy-change (2. order) :-0.3183089E-04  (-0.2746405E-04)
 number of electron      79.9999987 magnetization       0.0047888
 augmentation part       25.8318427 magnetization       0.0052290

 Broyden mixing:
  rms(total) = 0.39253E-02    rms(broyden)= 0.39253E-02
  rms(prec ) = 0.40050E-02
  weight for this iteration     100.00

 eigenvalues of (default mixing * dielectric matrix)
  average eigenvalue GAMMA=   1.3310
  2.5070  2.5070  1.6468  1.1025  0.7631  0.7631  0.7301  0.6285

 Free energy of the ion-electron system (eV)
  ---------------------------------------------------
  alpha Z        PSCENC =       164.67690988
  Ewald energy   TEWEN  =     -6009.93810534
  -Hartree energ DENC   =     -2391.55802531
  -exchange      EXHF   =         0.00000000
  -V(xc)+E(xc)   XCENC  =       280.39551678
  PAW double counting   =      9122.66396184    -9259.54655988
  entropy T*S    EENTRO =         0.00000000
  eigenvalues    EBANDS =      -619.70946743
  atomic energy  EATOM  =      8674.79762248
  Solvation  Ediel_sol  =         0.00000000
  ---------------------------------------------------
  free energy    TOTEN  =       -38.21814698 eV

  energy without entropy =      -38.21814698  energy(sigma->0) =      -38.21814698


--------------------------------------------------------------------------------------------------------




--------------------------------------- Iteration      1(  14)  ---------------------------------------


    POTLOK:  cpu time      0.0226: real time      0.0370
    SETDIJ:  cpu time      0.3995: real time      0.4005
    EDDIAG:  cpu time      0.4107: real time      0.4117
  RMM-DIIS:  cpu time      0.4662: real time      0.4673
    ORTHCH:  cpu time      0.0506: real time      0.0508
 BZINTS: Fermi energy:    5.292174;   80.000000 electrons
         Band energy:-0.619689E+03;  BLOECHL correction:    0.000000
       DOS:  cpu time      0.0100: real time      0.0101
    --------------------------------------------
      LOOP:  cpu time      1.3595: real time      1.3774

 eigenvalue-minimisations  :  6905
 total energy-change (2. order) :-0.4241865E-05  (-0.5573198E-05)
 number of electron      79.9999987 magnetization       0.0047888
 augmentation part       25.8318427 magnetization       0.0052290

 Free energy of the ion-electron system (eV)
  ---------------------------------------------------
  alpha Z        PSCENC =       164.67690988
  Ewald energy   TEWEN  =     -6009.93810534
  -Hartree energ DENC   =     -2391.58190713
  -exchange      EXHF   =         0.00000000
  -V(xc)+E(xc)   XCENC  =       280.39700649
  PAW double counting   =      9118.75854219    -9255.63953927
  entropy T*S    EENTRO =         0.00000000
  eigenvalues    EBANDS =      -619.68868052
  atomic energy  EATOM  =      8674.79762248
  Solvation  Ediel_sol  =         0.00000000
  ---------------------------------------------------
  free energy    TOTEN  =       -38.21815122 eV

  energy without entropy =      -38.21815122  energy(sigma->0) =      -38.21815122


--------------------------------------------------------------------------------------------------------




 average (electrostatic) potential at core
  the test charge radii are     1.0894  0.9698
  (the norm of the test charge is              1.0000)
       1-101.0369       2-101.0369       3-101.0369       4-101.0369       5 -85.8578
       6 -85.8578       7 -85.8578       8 -85.8578
 
 
 
 E-fermi :   5.2922     XC(G=0):  -9.7524     alpha+bet :-11.0823

 Fermi energy:         5.2921742692

 spin component 1

 k-point     1 :       0.0000    0.0000    0.0000
  band No.  band energies     occupation 
      1     -15.6709      1.00000
      2     -15.6582      1.00000
      3     -15.6495      1.00000
      4     -15.6423      1.00000
      5     -15.6385      1.00000
      6     -15.6351      1.00000
      7     -15.6330      1.00000
      8     -15.6292      1.00000
      9     -15.6182      1.00000
     10     -15.6180      1.00000
     11     -15.6082      1.00000
     12     -15.6017      1.00000
     13     -15.5990      1.00000
     14     -15.5974      1.00000
     15     -15.5784      1.00000
     16     -15.5742      1.00000
     17     -15.5667      1.00000
     18     -15.5662      1.00000
     19     -15.5619      1.00000
     20     -15.5555      1.00000
     21      -8.1970      1.00000
     22      -7.9441      1.00000
     23      -6.9474      1.00000
     24      -6.5664      1.00000
     25      -1.7854      1.00000
     26      -0.9368      1.00000
     27       0.0976      1.00000
     28       0.7841      1.00000
     29       0.8198      1.00000
     30       1.8252      1.00000
     31       2.1533      1.00000
     32       2.1959      1.00000
     33       2.2043      1.00000
     34       2.5102      1.00000
     35       3.2919      1.00000
     36       3.3965      1.00000
     37       3.6813      1.00000
     38       4.4111      1.00000
     39       4.6364      1.00000
     40       5.1475      1.00000
     41       6.5254      0.00000
     42       8.0758      0.00000
     43       8.1979      0.00000
     44       8.2756      0.00000
     45       8.5917      0.00000
     46       9.1283      0.00000
     47       9.1857      0.00000
     48      10.2206      0.00000
     49      10.4813      0.00000
     50      10.8641      0.00000
     51      10.8651      0.00000
     52      11.4479      0.00000
     53      11.6877      0.00000
     54      12.2401      0.00000
     55      12.5451      0.00000
     56      12.8300      0.00000
     57      13.0128      0.00000
     58      13.7671      0.00000
     59      13.8760      0.00000
     60      14.0708      0.00000

 k-point     2 :       0.1667   -0.0000    0.0000
  band No.  band energies     occupation 
      1     -15.6634      1.00000
      2     -15.6544      1.00000
      3     -15.6432      1.00000
      4     -15.6421      1.00000
      5     -15.6400      1.00000
      6     -15.6359      1.00000
      7     -15.6355      1.00000
      8     -15.6329      1.00000
      9     -15.6161      1.00000
     10     -15.6158      1.00000
     11     -15.6086      1.00000
     12     -15.6048      1.00000
     13     -15.5997      1.00000
     14     -15.5966      1.00000
     15     -15.5806      1.00000
     16     -15.5720      1.00000
     17     -15.5710      1.00000
     18     -15.5643      1.00000
     19     -15.5605      1.00000
     20     -15.5555      1.00000
     21      -8.0233      1.00000
     22      -7.7852      1.00000
     23      -6.8668      1.00000
     24      -6.5386      1.00000
     25      -1.9373      1.00000
     26      -1.1981      1.00000
     27      -0.0160      1.00000
     28       0.1214      1.00000
     29       0.7481      1.00000
     30       1.9265      1.00000
     31       2.0262      1.00000
     32       2.2887      1.00000
     33       2.2969      1.00000
     34       2.4943      1.00000
     35       3.3530      1.00000
     36       3.4310      1.00000
     37       3.5637      1.00000
     38       4.6378      1.00000
     39       4.8183      1.00000
     40       5.0195      1.00000
     41       6.7345      0.00000
     42       7.4703      0.00000
     43       8.3194      0.00000
     44       8.4196      0.00000
     45       8.7501      0.00000
     46       8.7515      0.00000
     47       9.3345      0.00000
     48       9.4447      0.00000
     49       9.5553      0.00000
     50      10.9501      0.00000
     51      10.9719      0.00000
     52      11.0225      0.00000
     53      11.4523      0.00000
     54      11.7501      0.00000
     55      11.9772      0.00000
     56      12.1471      0.00000
     57      12.2635      0.00000
     58      13.6625      0.00000
     59      14.3111      0.00000
     60      14.5855      0.00000

 k-point     3 :       0.3333   -0.0000    0.0000
  band No.  band energies     occupation 
      1     -15.6568      1.00000
      2     -15.6548      1.00000
      3     -15.6520      1.00000
      4     -15.6518      1.00000
      5     -15.6339      1.00000
      6     -15.6285      1.00000
      7     -15.6268      1.00000
      8     -15.6258      1.00000
      9     -15.6147      1.00000
     10     -15.6140      1.00000
     11     -15.6107      1.00000
     12     -15.6032      1.00000
     13     -15.6024      1.00000
     14     -15.5941      1.00000
     15     -15.5866      1.00000
     16     -15.5842      1.00000
     17     -15.5641      1.00000
     18     -15.5586      1.00000
     19     -15.5574      1.00000
     20     -15.5550      1.00000
     21      -7.5528      1.00000
     22      -7.3701      1.00000
     23      -6.7552      1.00000
     24      -6.5932      1.00000
     25      -2.2283      1.00000
     26      -1.6432      1.00000
     27      -1.1416      1.00000
     28      -0.7784      1.00000
     29       1.1947      1.00000
     30       1.9989      1.00000
     31       2.2675      1.00000
     32       2.6033      1.00000
     33       2.6104      1.00000
     34       2.7419      1.00000
     35       3.2866      1.00000
     36       3.5145      1.00000
     37       3.8565      1.00000
     38       4.5360      1.00000
     39       4.5885      1.00000
     40       5.1022      1.00000
     41       6.2470      0.00000
     42       7.2177      0.00000
     43       7.2865      0.00000
     44       7.4809      0.00000
     45       7.9302      0.00000
     46       8.2420      0.00000
     47       8.6257      0.00000
     48       9.0806      0.00000
     49       9.5428      0.00000
     50       9.7891      0.00000
     51      10.1362      0.00000
     52      10.5548      0.00000
     53      11.9183      0.00000
     54      12.7599      0.00000
     55      12.7866      0.00000
     56      12.9644      0.00000
     57      13.3066      0.00000
     58      13.7628      0.00000
     59      13.8830      0.00000
     60      14.1453      0.00000

 k-point     4 :       0.5000   -0.0000    0.0000
  band No.  band energies     occupation 
      1     -15.6589      1.00000
      2     -15.6589      1.00000
      3     -15.6561      1.00000
      4     -15.6561      1.00000
      5     -15.6255      1.00000
      6     -15.6255      1.00000
      7     -15.6215      1.00000
      8     -15.6215      1.00000
      9     -15.6139      1.00000
     10     -15.6139      1.00000
     11     -15.6094      1.00000
     12     -15.6094      1.00000
     13     -15.5940      1.00000
     14     -15.5940      1.00000
     15     -15.5911      1.00000
     16     -15.5911      1.00000
     17     -15.5574      1.00000
     18     -15.5574      1.00000
     19     -15.5553      1.00000
     20     -15.5553      1.00000
     21      -6.9693      1.00000
     22      -6.9693      1.00000
     23      -6.9188      1.00000
     24      -6.9188      1.00000
     25      -2.0596      1.00000
     26      -2.0596      1.00000
     27      -1.5347      1.00000
     28      -1.5347      1.00000
     29       1.8849      1.00000
     30       1.8849      1.00000
     31       2.6077      1.00000
     32       2.6077      1.00000
     33       2.9248      1.00000
     34       2.9248      1.00000
     35       3.3618      1.00000
     36       3.3618      1.00000
     37       4.3077      1.00000
     38       4.3077      1.00000
     39       4.4132      1.00000
     40       4.4132      1.00000
     41       6.7675      0.00000
     42       6.7675      0.00000
     43       6.9010      0.00000
     44       6.9010      0.00000
     45       7.7792      0.00000
     46       7.7792      0.00000
     47       8.4196      0.00000
     48       8.4196      0.00000
     49       9.0769      0.00000
     50       9.0769      0.00000
     51      10.1610      0.00000
     52      10.1610      0.00000
     53      12.7158      0.00000
     54      12.7158      0.00000
     55      12.9359      0.00000
     56      12.9359      0.00000
     57      14.4294      0.00000
     58      14.4294      0.00000
     59      14.8503      0.00000
     60      14.8504      0.00000

 k-point     5 :       0.0000    0.2000    0.0000
  band No.  band energies     occupation 
      1     -15.6682      1.00000
      2     -15.6566      1.00000
      3     -15.6507      1.00000
      4     -15.6434      1.00000
      5     -15.6396      1.00000
      6     -15.6354      1.00000
      7     -15.6352      1.00000
      8     -15.6302      1.00000
      9     -15.6145      1.00000
     10     -15.6138      1.00000
     11     -15.6069      1.00000
     12     -15.6014      1.00000
     13     -15.5987      1.00000
     14     -15.5981      1.00000
     15     -15.5778      1.00000
     16     -15.5733      1.00000
     17     -15.5679      1.00000
     18     -15.5650      1.00000
     19     -15.5639      1.00000
     20     -15.5564      1.00000
     21      -8.0370      1.00000
     22      -7.7937      1.00000
     23      -6.9777      1.00000
     24      -6.6514      1.00000
     25      -2.1771      1.00000
     26      -1.1543      1.00000
     27      -0.6433      1.00000
     28       0.0661      1.00000
     29       0.8160      1.00000
     30       2.2196      1.00000
     31       2.3970      1.00000
     32       2.6807      1.00000
     33       2.7700      1.00000
     34       2.9698      1.00000
     35       3.3429      1.00000
     36       3.6741      1.00000
     37       3.9772      1.00000
     38       4.1639      1.00000
     39       4.9805      1.00000
     40       5.0751      1.00000
     41       6.8148      0.00000
     42       7.2184      0.00000
     43       8.1634      0.00000
     44       8.1968      0.00000
     45       8.3850      0.00000
     46       8.5593      0.00000
     47       9.5706      0.00000
     48       9.7055      0.00000
     49       9.7173      0.00000
     50      10.4896      0.00000
     51      10.8683      0.00000
     52      10.8779      0.00000
     53      11.7231      0.00000
     54      12.2620      0.00000
     55      12.3284      0.00000
     56      12.7172      0.00000
     57      13.0423      0.00000
     58      13.3273      0.00000
     59      14.0981      0.00000
     60      14.4599      0.00000

 k-point     6 :       0.1667    0.2000    0.0000
  band No.  band energies     occupation 
      1     -15.6617      1.00000
      2     -15.6537      1.00000
      3     -15.6457      1.00000
      4     -15.6435      1.00000
      5     -15.6407      1.00000
      6     -15.6364      1.00000
      7     -15.6356      1.00000
      8     -15.6349      1.00000
      9     -15.6137      1.00000
     10     -15.6115      1.00000
     11     -15.6068      1.00000
     12     -15.6048      1.00000
     13     -15.6007      1.00000
     14     -15.5957      1.00000
     15     -15.5797      1.00000
     16     -15.5727      1.00000
     17     -15.5707      1.00000
     18     -15.5632      1.00000
     19     -15.5627      1.00000
     20     -15.5557      1.00000
     21      -7.8698      1.00000
     22      -7.6420      1.00000
     23      -6.8922      1.00000
     24      -6.6085      1.00000
     25      -2.1498      1.00000
     26      -1.2307      1.00000
     27      -0.6699      1.00000
     28      -0.1680      1.00000
     29       0.9248      1.00000
     30       1.4103      1.00000
     31       1.6937      1.00000
     32       2.5385      1.00000
     33       2.7985      1.00000
     34       3.1214      1.00000
     35       3.2574      1.00000
     36       3.3261      1.00000
     37       4.1705      1.00000
     38       4.2866      1.00000
     39       5.0227      1.00000
     40       5.1025      1.00000
     41       6.9620      0.00000
     42       7.5240      0.00000
     43       7.8216      0.00000
     44       7.8759      0.00000
     45       8.5286      0.00000
     46       8.5594      0.00000
     47       9.4427      0.00000
     48       9.4948      0.00000
     49       9.7752      0.00000
     50      10.2120      0.00000
     51      10.3112      0.00000
     52      11.3308      0.00000
     53      11.6003      0.00000
     54      12.6762      0.00000
     55      12.7172      0.00000
     56      12.9300      0.00000
     57      13.1257      0.00000
     58      13.7373      0.00000
     59      13.9275      0.00000
     60      14.4313      0.00000

 k-point     7 :       0.3333    0.2000    0.0000
  band No.  band energies     occupation 
      1     -15.6604      1.00000
      2     -15.6557      1.00000
      3     -15.6548      1.00000
      4     -15.6532      1.00000
      5     -15.6346      1.00000
      6     -15.6282      1.00000
      7     -15.6278      1.00000
      8     -15.6262      1.00000
      9     -15.6131      1.00000
     10     -15.6106      1.00000
     11     -15.6103      1.00000
     12     -15.6024      1.00000
     13     -15.6009      1.00000
     14     -15.5941      1.00000
     15     -15.5850      1.00000
     16     -15.5829      1.00000
     17     -15.5644      1.00000
     18     -15.5597      1.00000
     19     -15.5576      1.00000
     20     -15.5539      1.00000
     21      -7.4248      1.00000
     22      -7.2542      1.00000
     23      -6.7560      1.00000
     24      -6.6087      1.00000
     25      -2.1328      1.00000
     26      -1.4960      1.00000
     27      -1.1233      1.00000
     28      -0.8979      1.00000
     29       1.0371      1.00000
     30       1.3552      1.00000
     31       1.4629      1.00000
     32       2.1221      1.00000
     33       2.6516      1.00000
     34       2.9647      1.00000
     35       3.0555      1.00000
     36       3.4572      1.00000
     37       3.6318      1.00000
     38       4.4668      1.00000
     39       4.5922      1.00000
     40       4.6404      1.00000
     41       6.6857      0.00000
     42       7.2743      0.00000
     43       7.3398      0.00000
     44       7.8385      0.00000
     45       8.5578      0.00000
     46       8.9890      0.00000
     47       9.2955      0.00000
     48       9.6523      0.00000
     49       9.6822      0.00000
     50       9.7576      0.00000
     51      10.7391      0.00000
     52      10.9380      0.00000
     53      11.4310      0.00000
     54      12.1990      0.00000
     55      13.1772      0.00000
     56      13.2488      0.00000
     57      13.4705      0.00000
     58      13.7798      0.00000
     59      14.1771      0.00000
     60      14.7133      0.00000

 k-point     8 :       0.5000    0.2000    0.0000
  band No.  band energies     occupation 
      1     -15.6628      1.00000
      2     -15.6628      1.00000
      3     -15.6583      1.00000
      4     -15.6583      1.00000
      5     -15.6268      1.00000
      6     -15.6268      1.00000
      7     -15.6216      1.00000
      8     -15.6216      1.00000
      9     -15.6123      1.00000
     10     -15.6123      1.00000
     11     -15.6074      1.00000
     12     -15.6074      1.00000
     13     -15.5948      1.00000
     14     -15.5948      1.00000
     15     -15.5876      1.00000
     16     -15.5876      1.00000
     17     -15.5589      1.00000
     18     -15.5589      1.00000
     19     -15.5539      1.00000
     20     -15.5539      1.00000
     21      -6.9012      1.00000
     22      -6.9012      1.00000
     23      -6.8595      1.00000
     24      -6.8595      1.00000
     25      -1.8850      1.00000
     26      -1.8850      1.00000
     27      -1.4535      1.00000
     28      -1.4535      1.00000
     29       1.4936      1.00000
     30       1.4936      1.00000
     31       1.9437      1.00000
     32       1.9437      1.00000
     33       2.4464      1.00000
     34       2.4464      1.00000
     35       3.1754      1.00000
     36       3.1754      1.00000
     37       3.6145      1.00000
     38       3.6145      1.00000
     39       4.6696      1.00000
     40       4.6696      1.00000
     41       6.6060      0.00000
     42       6.6060      0.00000
     43       7.8140      0.00000
     44       7.8140      0.00000
     45       8.8233      0.00000
     46       8.8233      0.00000
     47       9.4592      0.00000
     48       9.4592      0.00000
     49       9.8035      0.00000
     50       9.8035      0.00000
     51      10.0703      0.00000
     52      10.0703      0.00000
     53      11.5511      0.00000
     54      11.5511      0.00000
     55      13.2840      0.00000
     56      13.2840      0.00000
     57      14.6681      0.00000
     58      14.6685      0.00000
     59      15.2414      0.00000
     60      15.2474      0.00000

 k-point     9 :       0.0000    0.4000    0.0000
[...]
     28      -1.1004      1.00000
     29       0.8693      1.00000
     30       0.8693      1.00000
     31       1.4263      1.00000
     32       1.4263      1.00000
     33       2.3051      1.00000
     34       2.3051      1.00000
     35       2.8576      1.00000
     36       2.8576      1.00000
     37       3.7169      1.00000
     38       3.7169      1.00000
     39       4.2827      1.00000
     40       4.2827      1.00000
     41       7.9188      0.00000
     42       7.9188      0.00000
     43       8.5318      0.00000
     44       8.5318      0.00000
     45       8.8951      0.00000
     46       8.8951      0.00000
     47       9.6677      0.00000
     48       9.6677      0.00000
     49      10.4249      0.00000
     50      10.4249      0.00000
     51      11.2562      0.00000
     52      11.2562      0.00000
     53      12.4733      0.00000
     54      12.4733      0.00000
     55      12.7742      0.00000
     56      12.7742      0.00000
     57      14.4497      0.00000
     58      14.4509      0.00000
     59      15.0433      0.00000
     60      15.0780      0.00000

 k-point    24 :       0.5000    0.4000    0.5000
  band No.  band energies     occupation 
      1     -15.6651      1.00000
      2     -15.6651      1.00000
      3     -15.6651      1.00000
      4     -15.6651      1.00000
      5     -15.6254      1.00000
      6     -15.6254      1.00000
      7     -15.6254      1.00000
      8     -15.6254      1.00000
      9     -15.6074      1.00000
     10     -15.6074      1.00000
     11     -15.6074      1.00000
     12     -15.6074      1.00000
     13     -15.5883      1.00000
     14     -15.5883      1.00000
     15     -15.5883      1.00000
     16     -15.5883      1.00000
     17     -15.5558      1.00000
     18     -15.5558      1.00000
     19     -15.5558      1.00000
     20     -15.5558      1.00000
     21      -6.7719      1.00000
     22      -6.7719      1.00000
     23      -6.7719      1.00000
     24      -6.7719      1.00000
     25      -1.4403      1.00000
     26      -1.4403      1.00000
     27      -1.4403      1.00000
     28      -1.4403      1.00000
     29       1.1567      1.00000
     30       1.1567      1.00000
     31       1.1567      1.00000
     32       1.1567      1.00000
     33       1.9470      1.00000
     34       1.9470      1.00000
     35       1.9470      1.00000
     36       1.9470      1.00000
     37       3.9671      1.00000
     38       3.9671      1.00000
     39       3.9671      1.00000
     40       3.9671      1.00000
     41       8.0923      0.00000
     42       8.0923      0.00000
     43       8.0923      0.00000
     44       8.0923      0.00000
     45       9.4125      0.00000
     46       9.4125      0.00000
     47       9.4125      0.00000
     48       9.4125      0.00000
     49      11.4298      0.00000
     50      11.4298      0.00000
     51      11.4298      0.00000
     52      11.4298      0.00000
     53      12.6107      0.00000
     54      12.6107      0.00000
     55      12.6107      0.00000
     56      12.6107      0.00000
     57      14.6147      0.00000
     58      14.6147      0.00000
     59      14.6147      0.00000
     60      14.6147      0.00000


--------------------------------------------------------------------------------------------------------


 soft charge-density along one line, spin component           1
         0         1         2         3         4         5         6         7         8         9
 total charge-density along one line
 
 soft charge-density along one line, spin component           2
         0         1         2         3         4         5         6         7         8         9
 total charge-density along one line
 
 pseudopotential strength for first ion, spin component:           1
-17.213  -0.000  -0.000  -0.019  -0.000   3.295   0.000   0.000
 -0.000 -17.198  -0.006   0.000   0.016   0.000   3.288   0.003
 -0.000  -0.006 -17.185  -0.000   0.001   0.000   0.003   3.282
 -0.019   0.000  -0.000 -17.202  -0.000   0.009  -0.000   0.000
 -0.000   0.016   0.001  -0.000 -17.222   0.000  -0.008  -0.001
  3.295   0.000   0.000   0.009   0.000   4.285  -0.000   0.000
  0.000   3.288   0.003  -0.000  -0.008  -0.000   4.289  -0.002
  0.000   0.003   3.282   0.000  -0.001   0.000  -0.002   4.290
  0.009  -0.000   0.000   3.289   0.000  -0.003  -0.000   0.000
  0.000  -0.008  -0.001   0.000   3.299  -0.000   0.003   0.000
  0.000  -0.001   0.001  -0.000   0.000  -0.000   0.003  -0.002
 -0.000   0.003  -0.002   0.000  -0.000   0.000  -0.006   0.004
 -0.000   0.015   0.008   0.000   0.012  -0.000   0.001   0.000
  0.000  -0.012   0.018  -0.000  -0.000  -0.000  -0.001   0.001
 -0.014   0.000   0.000   0.015  -0.000  -0.001  -0.000   0.000
 -0.000   0.024   0.013   0.000   0.019  -0.000   0.003   0.001
  0.000  -0.019   0.028  -0.000  -0.000  -0.000  -0.003   0.003
 -0.022   0.000   0.000   0.024  -0.000  -0.002  -0.000   0.000
 pseudopotential strength for first ion, spin component:           2
-17.212  -0.000   0.000  -0.019  -0.000   3.295   0.000  -0.000
 -0.000 -17.198  -0.006  -0.000   0.016   0.000   3.288   0.003
  0.000  -0.006 -17.185  -0.000   0.001  -0.000   0.003   3.282
 -0.019  -0.000  -0.000 -17.201  -0.000   0.009   0.000   0.000
 -0.000   0.016   0.001  -0.000 -17.222   0.000  -0.008  -0.001
  3.295   0.000  -0.000   0.009   0.000   4.285  -0.000   0.000
  0.000   3.288   0.003   0.000  -0.008  -0.000   4.289  -0.002
 -0.000   0.003   3.282   0.000  -0.001   0.000  -0.002   4.290
  0.009   0.000   0.000   3.289   0.000  -0.003  -0.000  -0.000
  0.000  -0.008  -0.001   0.000   3.299  -0.000   0.003   0.000
  0.000  -0.001   0.001  -0.000   0.000  -0.000   0.003  -0.002
 -0.000   0.003  -0.002   0.000  -0.000   0.000  -0.006   0.004
 -0.000   0.015   0.008  -0.000   0.012  -0.000   0.001   0.000
 -0.000  -0.012   0.018  -0.000  -0.000  -0.000  -0.001   0.001
 -0.014  -0.000   0.000   0.015  -0.000  -0.001  -0.000   0.000
 -0.000   0.024   0.013  -0.000   0.019  -0.000   0.003   0.001
 -0.000  -0.019   0.028  -0.000  -0.000  -0.000  -0.003   0.003
 -0.022  -0.000   0.000   0.024  -0.000  -0.002  -0.000   0.000
 total augmentation occupancy for first ion, spin component:           1
  2.004   0.000   0.000   0.000  -0.000   0.011   0.000   0.000  -0.001  -0.000   0.000   0.000  -0.000  -0.000   0.050   0.000
  0.000   2.003   0.000  -0.000  -0.000   0.000   0.008   0.001  -0.000  -0.000  -0.001  -0.002  -0.106   0.114   0.000   0.069
  0.000   0.000   2.004   0.000  -0.000   0.000   0.001   0.011   0.000  -0.001   0.001   0.001  -0.023  -0.105  -0.000   0.016
  0.000  -0.000   0.000   2.004   0.000  -0.001  -0.000   0.000   0.009   0.000   0.000   0.000   0.000  -0.000  -0.109  -0.000
 -0.000  -0.000  -0.000   0.000   2.004  -0.000  -0.000  -0.001   0.000   0.008   0.001   0.001  -0.104  -0.001   0.000   0.067
  0.011   0.000   0.000  -0.001  -0.000   0.045   0.000   0.000  -0.007  -0.000   0.000  -0.000   0.000  -0.000  -0.194  -0.000
  0.000   0.008   0.001  -0.000  -0.000   0.000   0.018   0.012  -0.000  -0.003  -0.002   0.001   0.062   0.038  -0.000  -0.016
  0.000   0.001   0.011   0.000  -0.001   0.000   0.012   0.046  -0.000  -0.004   0.003  -0.000   0.135   0.136  -0.000  -0.035
 -0.001  -0.000   0.000   0.009   0.000  -0.007  -0.000  -0.000   0.017   0.000   0.000   0.000  -0.000  -0.000   0.055   0.000
 -0.000  -0.000  -0.001   0.000   0.008  -0.000  -0.003  -0.004   0.000   0.013   0.004   0.002  -0.009  -0.005   0.000   0.002
  0.000  -0.001   0.001   0.000   0.001   0.000  -0.002   0.003   0.000   0.004   1.947  -0.014   0.149  -0.182  -0.000  -0.018
  0.000  -0.002   0.001   0.000   0.001   0.000   0.001  -0.000   0.000   0.002  -0.014   0.010  -0.059   0.071   0.000   0.014
 -0.000  -0.106  -0.023   0.000  -0.104   0.000   0.062   0.135  -0.000  -0.009   0.149  -0.059   1.690  -0.123  -0.000  -0.427
 -0.000   0.114  -0.105  -0.000  -0.001  -0.000   0.038   0.136  -0.000  -0.005  -0.182   0.071  -0.123   1.896   0.000   0.012
  0.050   0.000  -0.000  -0.109   0.000  -0.194  -0.000  -0.000   0.055   0.000  -0.000   0.000  -0.000   0.000   1.792   0.000
  0.000   0.069   0.016  -0.000   0.067  -0.000  -0.016  -0.035   0.000   0.002  -0.018   0.014  -0.427   0.012   0.000   0.118
  0.000  -0.073   0.068   0.000   0.001   0.000  -0.010  -0.037   0.000   0.001   0.022  -0.016   0.012  -0.480  -0.000  -0.000
 -0.033  -0.000   0.000   0.070  -0.000   0.052   0.000   0.000  -0.014  -0.000   0.000  -0.000   0.000  -0.000  -0.478  -0.000
 total augmentation occupancy for first ion, spin component:           2
 -0.000  -0.000  -0.000  -0.000   0.000  -0.000  -0.000  -0.000  -0.000   0.000  -0.000   0.000   0.000   0.000  -0.000  -0.000
 -0.000  -0.000   0.000   0.000  -0.000  -0.000  -0.000   0.000   0.000  -0.000  -0.000  -0.000   0.000  -0.000  -0.000  -0.000
 -0.000   0.000  -0.000  -0.000  -0.000  -0.000   0.000  -0.000  -0.000  -0.000  -0.000  -0.000   0.000   0.000   0.000  -0.000
 -0.000   0.000  -0.000  -0.000  -0.000  -0.000   0.000  -0.000  -0.000  -0.000   0.000   0.000  -0.000   0.000   0.000   0.000
  0.000  -0.000  -0.000  -0.000  -0.000   0.000  -0.000  -0.000  -0.000  -0.000   0.000   0.000   0.000  -0.000  -0.000  -0.000
 -0.000  -0.000  -0.000  -0.000   0.000  -0.000  -0.000  -0.000   0.000   0.000   0.000  -0.000   0.000  -0.000  -0.000  -0.000
 -0.000  -0.000   0.000   0.000  -0.000  -0.000  -0.000  -0.000   0.000   0.000  -0.000  -0.000   0.000  -0.000  -0.000  -0.000
 -0.000   0.000  -0.000  -0.000  -0.000  -0.000  -0.000  -0.000   0.000  -0.000   0.000  -0.000   0.000   0.000  -0.000  -0.000
 -0.000   0.000  -0.000  -0.000  -0.000   0.000   0.000   0.000   0.000  -0.000   0.000   0.000  -0.000   0.000   0.000   0.000
  0.000  -0.000  -0.000  -0.000  -0.000   0.000   0.000  -0.000  -0.000  -0.000   0.000  -0.000   0.000  -0.000   0.000  -0.000
 -0.000  -0.000  -0.000   0.000   0.000   0.000  -0.000   0.000   0.000   0.000   0.000   0.000   0.000  -0.000  -0.000  -0.000
  0.000  -0.000  -0.000   0.000   0.000  -0.000  -0.000  -0.000   0.000  -0.000   0.000  -0.000   0.000  -0.000  -0.000  -0.000
  0.000   0.000   0.000  -0.000   0.000   0.000   0.000   0.000  -0.000   0.000   0.000   0.000   0.001   0.000  -0.000  -0.000
  0.000  -0.000   0.000   0.000  -0.000  -0.000  -0.000   0.000   0.000  -0.000  -0.000  -0.000   0.000   0.001   0.000  -0.000
 -0.000  -0.000   0.000   0.000  -0.000  -0.000  -0.000  -0.000   0.000   0.000  -0.000  -0.000  -0.000   0.000   0.001   0.000
 -0.000  -0.000  -0.000   0.000  -0.000  -0.000  -0.000  -0.000   0.000  -0.000  -0.000  -0.000  -0.000  -0.000   0.000   0.000
 -0.000   0.000  -0.000  -0.000   0.000   0.000   0.000  -0.000  -0.000   0.000   0.000   0.000  -0.000  -0.000  -0.000   0.000
  0.000   0.000  -0.000  -0.000   0.000   0.000   0.000   0.000  -0.000  -0.000   0.000   0.000   0.000  -0.000  -0.000  -0.000


------------------------ aborting loop because EDIFF is reached ----------------------------------------





 total charge

# of ion       s       p       d       tot
------------------------------------------
    1        1.332   0.760  10.006  12.098
    2        1.332   0.760  10.006  12.098
    3        1.332   0.760  10.006  12.098
    4        1.332   0.760  10.006  12.098
    5        1.347   2.318   0.000   3.665
    6        1.347   2.318   0.000   3.665
    7        1.347   2.318   0.000   3.665
    8        1.347   2.318   0.000   3.665
--------------------------------------------------
tot         10.718  12.314  40.023  63.055



 magnetization (x)

# of ion       s       p       d       tot
------------------------------------------
    1       -0.000   0.000   0.000   0.000
    2       -0.000   0.000   0.000   0.000
    3       -0.000   0.000   0.000   0.000
    4       -0.000   0.000   0.000   0.000
    5       -0.000  -0.000   0.000  -0.000
    6       -0.000  -0.000   0.000  -0.000
    7       -0.000  -0.000   0.000  -0.000
    8       -0.000  -0.000   0.000  -0.000
--------------------------------------------------
tot         -0.000  -0.000   0.000  -0.001
 
    CHARGE:  cpu time      0.0627: real time      0.0629
    FORLOC:  cpu time      0.0018: real time      0.0018
    FORNL :  cpu time      0.1287: real time      0.1293
    STRESS:  cpu time      0.2610: real time      0.2619
    FORCOR:  cpu time      0.0244: real time      0.0245
    FORHAR:  cpu time      0.0047: real time      0.0048
    MIXING:  cpu time      0.0010: real time      0.0010
    OFIELD:  cpu time      0.0009: real time      0.0011

  FORCE on cell =-STRESS in cart. coord.  units (eV):
  Direction    XX          YY          ZZ          XY          YZ          ZX
  --------------------------------------------------------------------------------------
  Alpha Z   164.67691   164.67691   164.67691
  Ewald   -1848.40504 -2165.22873 -1996.31011    -0.00000     0.00000    -0.00000
  Hartree   894.06283   690.72094   806.83954     0.00000    -0.00000    -0.00000
  E(xc)    -361.30199  -361.34906  -361.34816     0.00000    -0.00000    -0.00000
  Local    -745.58015  -232.50013  -522.42908     0.00000    -0.00000    -0.00000
  n-local   568.28934   566.52042   572.06147     0.79724     0.00000     0.00001
  augment   640.37523   640.09946   639.44820     0.00000     0.00000    -0.00000
  Kinetic   686.19182   694.78893   695.23839     6.38846    -0.00010    -0.00002
  Fock        0.00000     0.00000     0.00000     0.00000     0.00000     0.00000
  -------------------------------------------------------------------------------------
  Total      -1.69104    -2.27125    -1.82284     0.00000    -0.00000    -0.00000
  in kB     -13.26009   -17.80974   -14.29360     0.00000    -0.00000    -0.00000
  external pressure =      -15.12 kB  Pullay stress =        0.00 kB


 VOLUME and BASIS-vectors are now :
 -----------------------------------------------------------------------------
  energy-cutoff  :      680.00
  volume of cell :      204.32
      direct lattice vectors                 reciprocal lattice vectors
     3.956855210  0.000000000  0.000000000     0.252725952  0.000000000  0.000000000
    -0.000000000  4.532810690  0.000000000     0.000000000  0.220613670  0.000000000
     0.000000000  0.000000000 11.392018510    -0.000000000 -0.000000000  0.087780756

  length of vectors
     3.956855210  4.532810690 11.392018510     0.252725952  0.220613670  0.087780756


 FORCES acting on ions
    electron-ion (+dipol)            ewald-force                    non-local-force                 convergence-correction
 -----------------------------------------------------------------------------------------------
   0.403E-12 -.246E+02 0.681E+02   0.369E-13 0.343E+02 -.798E+02   0.773E-15 -.965E+01 0.116E+02   0.490E-13 -.294E-02 -.653E-02
   0.111E-11 0.246E+02 -.681E+02   -.225E-13 -.343E+02 0.798E+02   -.524E-15 0.965E+01 -.116E+02   0.103E-12 0.294E-02 0.653E-02
   0.115E-11 -.246E+02 -.681E+02   -.200E-13 0.343E+02 0.798E+02   0.513E-15 -.965E+01 -.116E+02   0.131E-12 -.294E-02 0.653E-02
   0.397E-12 0.246E+02 0.681E+02   0.134E-13 -.343E+02 -.798E+02   -.506E-15 0.965E+01 0.116E+02   0.574E-13 0.294E-02 -.653E-02
   -.820E-14 -.479E+02 -.542E+02   0.150E-13 0.497E+02 0.562E+02   0.858E-16 -.176E+01 -.188E+01   -.181E-13 -.125E-03 0.408E-02
   0.220E-13 0.479E+02 0.542E+02   -.297E-13 -.497E+02 -.562E+02   -.948E-16 0.176E+01 0.188E+01   0.349E-14 0.125E-03 -.408E-02
   0.141E-13 -.479E+02 0.542E+02   -.137E-13 0.497E+02 -.562E+02   0.810E-16 -.176E+01 0.188E+01   -.106E-13 -.125E-03 -.408E-02
   0.123E-13 0.479E+02 -.542E+02   0.151E-13 -.497E+02 0.562E+02   -.741E-16 0.176E+01 -.188E+01   -.118E-14 0.125E-03 0.408E-02
 -----------------------------------------------------------------------------------------------
   0.310E-11 0.495E-11 0.463E-11   -.550E-14 0.000E+00 -.213E-13   0.254E-15 0.222E-15 -.178E-14   0.313E-12 -.830E-13 -.621E-13
 
 
 POSITION                                       TOTAL-FORCE (eV/Angst)
 -----------------------------------------------------------------------------------
      0.98921      1.67505      7.08165        -0.000000      0.060635     -0.071209
      2.96764      2.85776      4.31037         0.000000     -0.060635      0.071209
      2.96764      3.94146     10.00638        -0.000000      0.060635      0.071209
      0.98921      0.59135      1.38564         0.000000     -0.060635     -0.071209
      0.98921      0.04803      3.95870        -0.000000      0.076682      0.069949
      2.96764      4.48478      7.43332         0.000000     -0.076682     -0.069949
      2.96764      2.31444      1.73731        -0.000000      0.076682     -0.069949
      0.98921      2.21837      9.65471         0.000000     -0.076682      0.069949
 -----------------------------------------------------------------------------------
    total drift:                                0.000000      0.000000      0.000000


--------------------------------------------------------------------------------------------------------



  FREE ENERGIE OF THE ION-ELECTRON SYSTEM (eV)
  ---------------------------------------------------
  free  energy   TOTEN  =       -38.21815122 eV

  energy  without entropy=      -38.21815122  energy(sigma->0) =      -38.21815122
 


--------------------------------------------------------------------------------------------------------


    POTLOK:  cpu time      0.4341: real time      0.4352


--------------------------------------------------------------------------------------------------------


 writing wavefunctions
     LOOP+:  cpu time     24.3179: real time     24.5824
    4ORBIT:  cpu time      0.0000: real time      0.0000



 total charge

# of ion       s       p       d       tot
------------------------------------------
    1        1.332   0.760  10.006  12.098
    2        1.332   0.760  10.006  12.098
    3        1.332   0.760  10.006  12.098
    4        1.332   0.760  10.006  12.098
    5        1.347   2.318   0.000   3.665
    6        1.347   2.318   0.000   3.665
    7        1.347   2.318   0.000   3.665
    8        1.347   2.318   0.000   3.665
--------------------------------------------------
tot         10.718  12.314  40.023  63.055



 magnetization (x)

# of ion       s       p       d       tot
------------------------------------------
    1       -0.000   0.000   0.000   0.000
    2       -0.000   0.000   0.000   0.000
    3       -0.000   0.000   0.000   0.000
    4       -0.000   0.000   0.000   0.000
    5       -0.000  -0.000   0.000  -0.000
    6       -0.000  -0.000   0.000  -0.000
    7       -0.000  -0.000   0.000  -0.000
    8       -0.000  -0.000   0.000  -0.000
--------------------------------------------------
tot         -0.000  -0.000   0.000  -0.001
 
 BZINTS: Fermi energy:    5.292174;   80.000000 electrons
         Band energy:-0.619689E+03;  BLOECHL correction:    0.000000

 total amount of memory used by VASP MPI-rank0    42637. kBytes
=======================================================================

   base      :      30000. kBytes
   nonl-proj :       5829. kBytes
   fftplans  :        982. kBytes
   grid      :       2524. kBytes
   one-center:         31. kBytes
   wavefun   :       3271. kBytes
 
  
  
 General timing and accounting informations for this job:
 ========================================================
  
                  Total CPU time used (sec):       36.981
                            User time (sec):       33.881
                          System time (sec):        3.100
                         Elapsed time (sec):       37.988
  
                   Maximum memory used (kb):      206800.
                   Average memory used (kb):          N/A
  
                          Minor page faults:        41904
                          Major page faults:            0
                 Voluntary context switches:         2044
